<event>
12    1  0.1628146E-001  0.2242155E+03  0.7818608E-02  0.1131453E+00
         21   -1    0    0  501  502  0.00000000000E+00  0.00000000000E+00  0.15271507670E+03  0.15271507670E+03  0.00000000000E+00 0. -1.
         21   -1    0    0  502  503 -0.00000000000E+00 -0.00000000000E+00 -0.39504564934E+03  0.39504564934E+03  0.00000000000E+00 0.  1.
         -6    2    1    2    0  503  0.59954180320E+02  0.12432743608E+03 -0.23827852753E+03  0.32718383834E+03  0.17669406409E+03 0.  0.
        -24    2    3    3    0    0  0.92850149505E+02  0.10257285850E+03 -0.10831142839E+03  0.19128334793E+03  0.75601667387E+02 0.  0.
          6    2    1    2  501    0 -0.59954180320E+02 -0.12432743608E+03 -0.40520451167E+01  0.22057688770E+03  0.17200560810E+03 0.  0.
         24    2    5    5    0    0  0.84873375024E+01 -0.31786625887E+02 -0.46693059019E+02  0.97742084082E+02  0.79314870970E+02 0.  0.
          5    1    5    5  501    0 -0.68441517822E+02 -0.92540810197E+02  0.42641013902E+02  0.12283480362E+03  0.47000000000E+01 0. -1.
        -11    1    6    6    0    0 -0.20202159325E+02 -0.27699554882E+02 -0.57390899570E+02  0.66851386937E+02  0.00000000000E+00 0.  1.
         12    1    6    6    0    0  0.28689496828E+02 -0.40870710054E+01  0.10697840551E+02  0.30890697145E+02  0.00000000000E+00 0. -1.
         -5    1    3    3    0  503 -0.32895969186E+02  0.21754577585E+02 -0.12996709913E+03  0.13590049040E+03  0.47000000000E+01 0.  1.
         13    1    4    4    0    0  0.56522296060E+02  0.10291165821E+03 -0.99496589779E+02  0.15389980742E+03  0.00000000000E+00 0. -1.
        -14    1    4    4    0    0  0.36327853446E+02 -0.33879971085E+00 -0.88148386162E+01  0.37383540510E+02  0.00000000000E+00 0.  1.
</event>
<event>
12    1  0.1628146E-001  0.1996574E+03  0.7818608E-02  0.1150248E+00
         21   -1    0    0  503  502  0.00000000000E+00  0.00000000000E+00  0.14016105773E+04  0.14016105773E+04  0.00000000000E+00 0. -1.
         21   -1    0    0  501  503 -0.00000000000E+00 -0.00000000000E+00 -0.74330751794E+02  0.74330751794E+02  0.00000000000E+00 0. -1.
          6    2    1    2  501    0 -0.10082382667E+03 -0.47344619615E+01  0.83521052303E+02  0.21642284228E+03  0.17226497417E+03 0.  0.
         24    2    3    3    0    0 -0.12687383862E+03 -0.34691712327E+02  0.86460533078E+02  0.17633830013E+03  0.79493939898E+02 0.  0.
         -6    2    1    2    0  502  0.10082382667E+03  0.47344619615E+01  0.12437587732E+04  0.12595184868E+04  0.17106453040E+03 0.  0.
        -24    2    5    5    0    0 -0.21692892008E+00  0.19309230677E+02  0.79628800405E+03  0.80052628926E+03  0.79967874500E+02 0.  0.
          5    1    3    3  501    0  0.26050011950E+02  0.29957250366E+02 -0.29394807753E+01  0.40084542149E+02  0.47000000000E+01 0. -1.
        -11    1    4    4    0    0 -0.77460107819E+02 -0.60091944298E+02  0.52252389834E+02  0.11109195433E+03  0.00000000000E+00 0.  1.
         12    1    4    4    0    0 -0.49413730804E+02  0.25400231970E+02  0.34208143245E+02  0.65246345801E+02  0.00000000000E+00 0. -1.
         -5    1    5    5    0  502  0.10104075559E+03 -0.14574768716E+02  0.44747076917E+03  0.45899219758E+03  0.47000000000E+01 0.  1.
         11    1    6    6    0    0  0.35817520631E+02 -0.63633974314E+01  0.44008046039E+03  0.44158147518E+03  0.00000000000E+00 0. -1.
        -12    1    6    6    0    0 -0.36034449552E+02  0.25672628108E+02  0.35620754367E+03  0.35894481408E+03  0.00000000000E+00 0.  1.
</event>
<event>
12    1  0.1628146E-001  0.2776937E+03  0.7818608E-02  0.1097116E+00
         21   -1    0    0  501  502  0.00000000000E+00  0.00000000000E+00  0.15476879728E+03  0.15476879728E+03  0.00000000000E+00 0. -1.
         21   -1    0    0  502  503 -0.00000000000E+00 -0.00000000000E+00 -0.74484831247E+03  0.74484831247E+03  0.00000000000E+00 0. -1.
         -6    2    1    2    0  503  0.83863580329E+02  0.19929869057E+03 -0.55453113403E+03  0.61965736451E+03  0.17238736209E+03 0.  0.
        -24    2    3    3    0    0  0.12070907063E+03  0.11688004483E+03 -0.37701748984E+03  0.42044991687E+03  0.80026997545E+02 0.  0.
          6    2    1    2  501    0 -0.83863580329E+02 -0.19929869057E+03 -0.35548381156E+02  0.27995974523E+03  0.17424323052E+03 0.  0.
         24    2    5    5    0    0 -0.24832794512E+02 -0.75314405989E+02  0.44128705432E+02  0.12112881429E+03  0.80224183236E+02 0.  0.
          5    1    5    5  501    0 -0.59030785817E+02 -0.12398428458E+03 -0.79677086588E+02  0.15883093094E+03  0.47000000000E+01 0. -1.
        -13    1    6    6    0    0  0.82032421712E+01 -0.91633076203E+01 -0.19849407040E+02  0.23350767622E+02  0.00000000000E+00 0.  1.
         14    1    6    6    0    0 -0.33036036683E+02 -0.66151098368E+02  0.63978112472E+02  0.97778046670E+02  0.00000000000E+00 0. -1.
         -5    1    3    3    0  503 -0.36845490303E+02  0.82418645737E+02 -0.17751364420E+03  0.19920744764E+03  0.47000000000E+01 0.  1.
         13    1    4    4    0    0  0.66696938130E+02  0.11110271870E+03 -0.29333168430E+03  0.32068017194E+03  0.00000000000E+00 0. -1.
        -14    1    4    4    0    0  0.54012132501E+02  0.57773261271E+01 -0.83685805537E+02  0.99769744927E+02  0.00000000000E+00 0.  1.
</event>
<event>
12    1  0.1628146E-001  0.1957757E+03  0.7818608E-02  0.1153376E+00
         21   -1    0    0  501  502  0.00000000000E+00  0.00000000000E+00  0.98697797918E+03  0.98697797918E+03  0.00000000000E+00 0. -1.
         21   -1    0    0  502  503 -0.00000000000E+00 -0.00000000000E+00 -0.72278476627E+02  0.72278476627E+02  0.00000000000E+00 0.  1.
         -6    2    1    2    0  503 -0.29137152732E+02  0.87931688706E+02  0.96894425686E+02  0.21834428401E+03  0.17235063413E+03 0.  0.
        -24    2    3    3    0    0  0.50076269196E+02  0.60731848689E+02  0.61009301802E+02  0.12710597174E+03  0.78979763001E+02 0.  0.
          6    2    1    2  501    0  0.29137152732E+02 -0.87931688706E+02  0.81780507687E+03  0.84091217179E+03  0.17247371212E+03 0.  0.
         24    2    5    5    0    0  0.87872606258E+01  0.14576841799E+02  0.25741422680E+03  0.27084014848E+03  0.82477885517E+02 0.  0.
          5    1    5    5  501    0  0.20349892106E+02 -0.10250853050E+03  0.56039085006E+03  0.57007202332E+03  0.47000000000E+01 0. -1.
        -13    1    6    6    0    0 -0.74591250554E+01 -0.16470695879E+02  0.94298615692E+01  0.20392269578E+02  0.00000000000E+00 0.  1.
         14    1    6    6    0    0  0.16246385681E+02  0.31047537678E+02  0.24798436523E+03  0.25044787890E+03  0.00000000000E+00 0. -1.
         -5    1    3    3    0  503 -0.79213421928E+02  0.27199840017E+02  0.35885123885E+02  0.91238312275E+02  0.47000000000E+01 0.  1.
         11    1    4    4    0    0  0.52613244038E+02  0.28244992856E+01  0.36919293511E+02  0.64336346476E+02  0.00000000000E+00 0. -1.
        -12    1    4    4    0    0 -0.25369748423E+01  0.57907349404E+02  0.24090008291E+02  0.62769625264E+02  0.00000000000E+00 0.  1.
</event>
<event>
12    1  0.1628146E-001  0.2194563E+03  0.7818608E-02  0.1134552E+00
         21   -1    0    0  501  502  0.00000000000E+00  0.00000000000E+00  0.17272609962E+04  0.17272609962E+04  0.00000000000E+00 0.  1.
         21   -1    0    0  502  503 -0.00000000000E+00 -0.00000000000E+00 -0.27709308629E+02  0.27709308629E+02  0.00000000000E+00 0.  1.
         -6    2    1    2    0  503 -0.13005863053E+02 -0.13371487297E+03  0.85761805043E+03  0.88490519194E+03  0.17175464647E+03 0.  0.
        -24    2    3    3    0    0 -0.41131342299E+02 -0.41872446148E+02  0.62019212203E+03  0.62874267434E+03  0.85052885006E+02 0.  0.
          6    2    1    2  501    0  0.13005863053E+02  0.13371487297E+03  0.84193363719E+03  0.87006511293E+03  0.17352876297E+03 0.  0.
         24    2    5    5    0    0 -0.43668067808E+02  0.13163215371E+03  0.69030090782E+03  0.70810571439E+03  0.75262443372E+02 0.  0.
          5    1    5    5  501    0  0.56673930861E+02  0.20827192666E+01  0.15163272937E+03  0.16195939854E+03  0.47000000000E+01 0. -1.
        -13    1    6    6    0    0 -0.63364597481E+02  0.77284573860E+02  0.44548581020E+03  0.45655841319E+03  0.00000000000E+00 0.  1.
         14    1    6    6    0    0  0.19696529673E+02  0.54347579846E+02  0.24481509762E+03  0.25154730120E+03  0.00000000000E+00 0. -1.
         -5    1    3    3    0  503  0.28125479246E+02 -0.91842426825E+02  0.23742592840E+03  0.25616251760E+03  0.47000000000E+01 0.  1.
         13    1    4    4    0    0 -0.46679214604E+02  0.12558117117E+00  0.16184981332E+03  0.16844680739E+03  0.00000000000E+00 0. -1.
        -14    1    4    4    0    0  0.55478723048E+01 -0.41998027319E+02  0.45834230870E+03  0.46029586695E+03  0.00000000000E+00 0.  1.
</event>
<event>
12    1  0.1628146E-001  0.2152535E+03  0.7818608E-02  0.1137803E+00
         21   -1    0    0  501  502  0.00000000000E+00  0.00000000000E+00  0.33846890687E+03  0.33846890687E+03  0.00000000000E+00 0.  1.
         21   -1    0    0  502  503 -0.00000000000E+00 -0.00000000000E+00 -0.24815748823E+03  0.24815748823E+03  0.00000000000E+00 0.  1.
         -6    2    1    2    0  503  0.40036952555E+02  0.12218538769E+03 -0.15210719340E+03  0.26357285194E+03  0.17263204645E+03 0.  0.
        -24    2    3    3    0    0  0.46824454946E+02  0.28696187951E+02 -0.13880104608E+03  0.16878126891E+03  0.78774269649E+02 0.  0.
          6    2    1    2  501    0 -0.40036952555E+02 -0.12218538769E+03  0.24241861204E+03  0.32305354316E+03  0.17048337676E+03 0.  0.
         24    2    5    5    0    0 -0.77883885945E+02 -0.12220796355E+03  0.22870981261E+03  0.28252685987E+03  0.80700446837E+02 0.  0.
          5    1    5    5  501    0  0.37846933390E+02  0.22575858634E-01  0.13708799423E+02  0.40526683288E+02  0.47000000000E+01 0. -1.
        -13    1    6    6    0    0  0.46459945462E+01 -0.44627667371E+02  0.30560035507E+02  0.54287473053E+02  0.00000000000E+00 0.  1.
         14    1    6    6    0    0 -0.82529880491E+02 -0.77580296179E+02  0.19814977711E+03  0.22823938682E+03  0.00000000000E+00 0. -1.
         -5    1    3    3    0  503 -0.67875023914E+01  0.93489199739E+02 -0.13306147315E+02  0.94791583028E+02  0.47000000000E+01 0.  1.
         13    1    4    4    0    0  0.39894694146E+02 -0.20826717294E+02 -0.78068291167E+02  0.90111025186E+02  0.00000000000E+00 0. -1.
        -14    1    4    4    0    0  0.69297607998E+01  0.49522905245E+02 -0.60732754916E+02  0.78670243728E+02  0.00000000000E+00 0.  1.
</event>
<event>
12    1  0.1628146E-001  0.3309532E+03  0.7818608E-02  0.1070813E+00
         21   -1    0    0  503  502  0.00000000000E+00  0.00000000000E+00  0.93223880102E+03  0.93223880102E+03  0.00000000000E+00 0.  1.
         21   -1    0    0  501  503 -0.00000000000E+00 -0.00000000000E+00 -0.11894825730E+03  0.11894825730E+03  0.00000000000E+00 0. -1.
          6    2    1    2  501    0 -0.20786437987E+03 -0.19123435557E+03  0.47020999629E+03  0.57449609370E+03  0.17079268687E+03 0.  0.
         24    2    3    3    0    0 -0.10185985785E+03 -0.33988362608E+02  0.25280843419E+03  0.28596742927E+03  0.79590368584E+02 0.  0.
         -6    2    1    2    0  502  0.20786437987E+03  0.19123435557E+03  0.34308054743E+03  0.47669096462E+03  0.17248720114E+03 0.  0.
        -24    2    5    5    0    0  0.31346140128E+02  0.93784947763E+02  0.96986998537E+02  0.15850988277E+03  0.77075989268E+02 0.  0.
          5    1    3    3  501    0 -0.10600452203E+03 -0.15724599296E+03  0.21740156210E+03  0.28852866443E+03  0.47000000000E+01 0. -1.
        -13    1    4    4    0    0  0.34551917655E+01 -0.35641880853E+01 -0.42347659161E+01  0.65249543453E+01  0.00000000000E+00 0.  1.
         14    1    4    4    0    0 -0.10531504961E+03 -0.30424174523E+02  0.25704320010E+03  0.27944247492E+03  0.00000000000E+00 0. -1.
         -5    1    5    5    0  502  0.17651823975E+03  0.97449407806E+02  0.24609354889E+03  0.31818108185E+03  0.47000000000E+01 0.  1.
         13    1    6    6    0    0  0.48205951428E+02  0.35127524712E+02  0.26491580157E+02  0.65265309044E+02  0.00000000000E+00 0. -1.
        -14    1    6    6    0    0 -0.16859811300E+02  0.58657423051E+02  0.70495418381E+02  0.93244573722E+02  0.00000000000E+00 0.  1.
</event>
<event>
12    1  0.1628146E-001  0.2562963E+03  0.7818608E-02  0.1109439E+00
         21   -1    0    0  503  502  0.00000000000E+00  0.00000000000E+00  0.83052636658E+03  0.83052636658E+03  0.00000000000E+00 0. -1.
         21   -1    0    0  501  503 -0.00000000000E+00 -0.00000000000E+00 -0.15614944101E+03  0.15614944101E+03  0.00000000000E+00 0. -1.
          6    2    1    2  501    0 -0.17516179095E+03  0.75420831629E+02 -0.94908742283E+01  0.25647201337E+03  0.17122459548E+03 0.  0.
         24    2    3    3    0    0 -0.13490458307E+03  0.11676234242E+03 -0.24791695067E+02  0.19658905737E+03  0.78739686256E+02 0.  0.
         -6    2    1    2    0  502  0.17516179095E+03 -0.75420831629E+02  0.68386779980E+03  0.73020379422E+03  0.17074091088E+03 0.  0.
        -24    2    5    5    0    0  0.75544246876E+02  0.17408793401E+01  0.46480533865E+03  0.47744296535E+03  0.78726224562E+02 0.  0.
          5    1    3    3  501    0 -0.40257207873E+02 -0.41341510793E+02  0.15300820839E+02  0.59882955996E+02  0.47000000000E+01 0. -1.
        -13    1    4    4    0    0 -0.69409132087E+02  0.37203925091E+02 -0.46251431621E+02  0.91328826699E+02  0.00000000000E+00 0.  1.
         14    1    4    4    0    0 -0.65495450985E+02  0.79558417332E+02  0.21459736554E+02  0.10526023067E+03  0.00000000000E+00 0. -1.
         -5    1    5    5    0  502  0.99617544070E+02 -0.77161710969E+02  0.21906246115E+03  0.25276082887E+03  0.47000000000E+01 0.  1.
         13    1    6    6    0    0  0.55974268270E+02 -0.20391126348E+02  0.15218028197E+03  0.16342507446E+03  0.00000000000E+00 0. -1.
        -14    1    6    6    0    0  0.19569978606E+02  0.22132005688E+02  0.31262505667E+03  0.31401789089E+03  0.00000000000E+00 0.  1.
</event>
<event>
12    1  0.1628146E-001  0.1887268E+03  0.7818608E-02  0.1160730E+00
         21   -1    0    0  501  502  0.00000000000E+00  0.00000000000E+00  0.13476534483E+03  0.13476534483E+03  0.00000000000E+00 0. -1.
         21   -1    0    0  502  503 -0.00000000000E+00 -0.00000000000E+00 -0.25759459581E+03  0.25759459581E+03  0.00000000000E+00 0. -1.
         -6    2    1    2    0  503  0.62302354262E+02 -0.99457455065E+01 -0.60183733574E+02  0.19809061136E+03  0.17786879244E+03 0.  0.
        -24    2    3    3    0    0 -0.78540083258E+01  0.51009773076E+02 -0.36599286231E+02  0.10209161859E+03  0.80121834962E+02 0.  0.
          6    2    1    2  501    0 -0.62302354262E+02  0.99457455065E+01 -0.62645517406E+02  0.19426932928E+03  0.17272987653E+03 0.  0.
         24    2    5    5    0    0 -0.51015487389E+01 -0.39932537575E+02  0.19415284401E+02  0.82395112100E+02  0.69219707258E+02 0.  0.
          5    1    5    5  501    0 -0.57200805523E+02  0.49878283081E+02 -0.82060801806E+02  0.11187421718E+03  0.47000000000E+01 0. -1.
        -11    1    6    6    0    0  0.25035138530E+02  0.51239505951E+01  0.28404597440E+01  0.25711500199E+02  0.00000000000E+00 0.  1.
         12    1    6    6    0    0 -0.30136687269E+02 -0.45056488170E+02  0.16574824657E+02  0.56683611901E+02  0.00000000000E+00 0. -1.
         -5    1    3    3    0  503  0.70156362587E+02 -0.60955518582E+02 -0.23584447343E+02  0.95998992774E+02  0.47000000000E+01 0.  1.
         11    1    4    4    0    0  0.27436604776E+02  0.83420060350E+01 -0.36883282804E+02  0.46719727062E+02  0.00000000000E+00 0. -1.
        -12    1    4    4    0    0 -0.35290613102E+02  0.42667767040E+02  0.28399657281E+00  0.55371891528E+02  0.00000000000E+00 0.  1.
</event>
<event>
12    1  0.1628146E-001  0.2736136E+03  0.7818608E-02  0.1099937E+00
         21   -1    0    0  501  502  0.00000000000E+00  0.00000000000E+00  0.68418552077E+03  0.68418552077E+03  0.00000000000E+00 0.  1.
         21   -1    0    0  502  503 -0.00000000000E+00 -0.00000000000E+00 -0.12367334590E+03  0.12367334590E+03  0.00000000000E+00 0.  1.
         -6    2    1    2    0  503 -0.36242832250E+02  0.20639892893E+03  0.42436596755E+03  0.50224440721E+03  0.16807411881E+03 0.  0.
        -24    2    3    3    0    0  0.43496373515E+02  0.13381551059E+03  0.22511934653E+03  0.27564343735E+03  0.74175865292E+02 0.  0.
          6    2    1    2  501    0  0.36242832250E+02 -0.20639892893E+03  0.13614620732E+03  0.30561445946E+03  0.17592710795E+03 0.  0.
         24    2    5    5    0    0 -0.33811676927E+02 -0.17622017914E+03  0.89579866290E+02  0.21612197200E+03  0.80544231976E+02 0.  0.
          5    1    5    5  501    0  0.70054509177E+02 -0.30178749783E+02  0.46566341025E+02  0.89492487456E+02  0.47000000000E+01 0. -1.
        -13    1    6    6    0    0 -0.45641201971E+02 -0.61675660610E+02  0.59528697381E+02  0.97111648328E+02  0.00000000000E+00 0.  1.
         14    1    6    6    0    0  0.11829525044E+02 -0.11454451853E+03  0.30051168909E+02  0.11901032368E+03  0.00000000000E+00 0. -1.
         -5    1    3    3    0  503 -0.79739205765E+02  0.72583418338E+02  0.19924662102E+03  0.22660096986E+03  0.47000000000E+01 0.  1.
         11    1    4    4    0    0 -0.60253120127E+01  0.97244270252E+01 -0.24989717749E+01  0.11709557026E+02  0.00000000000E+00 0. -1.
        -12    1    4    4    0    0  0.49521685527E+02  0.12409108356E+03  0.22761831830E+03  0.26393388033E+03  0.00000000000E+00 0.  1.
</event>
<event>
12    1  0.1628146E-001  0.2923830E+03  0.7818608E-02  0.1089114E+00
         21   -1    0    0  503  502  0.00000000000E+00  0.00000000000E+00  0.40554319923E+03  0.40554319923E+03  0.00000000000E+00 0. -1.
         21   -1    0    0  501  503 -0.00000000000E+00 -0.00000000000E+00 -0.25937749406E+03  0.25937749406E+03  0.00000000000E+00 0.  1.
          6    2    1    2  501    0 -0.10628473373E+03  0.21138938808E+03 -0.70815772401E+02  0.30083662622E+03  0.17177276862E+03 0.  0.
         24    2    3    3    0    0 -0.92127137477E+02  0.22814015000E+03 -0.87228946997E+02  0.27304260065E+03  0.80050203471E+02 0.  0.
         -6    2    1    2    0  502  0.10628473373E+03 -0.21138938808E+03  0.21698147757E+03  0.36408406707E+03  0.17173912855E+03 0.  0.
        -24    2    5    5    0    0  0.22422104753E+02 -0.61411907321E+02  0.14767250182E+03  0.17874111633E+03  0.76596643068E+02 0.  0.
          5    1    3    3  501    0 -0.14157596250E+02 -0.16750761924E+02  0.16413174596E+02  0.27794025562E+02  0.47000000000E+01 0. -1.
        -13    1    4    4    0    0  0.14084138807E+02  0.16390571070E+02 -0.41659845904E+01  0.22008389617E+02  0.00000000000E+00 0.  1.
         14    1    4    4    0    0 -0.10621127628E+03  0.21174957893E+03 -0.83062962407E+02  0.25103421104E+03  0.00000000000E+00 0. -1.
         -5    1    5    5    0  502  0.83862628974E+02 -0.14997748075E+03  0.69308975744E+02  0.18534295074E+03  0.47000000000E+01 0.  1.
         13    1    6    6    0    0  0.42429599367E+02 -0.75612561372E+01  0.68289028772E+02  0.80751686964E+02  0.00000000000E+00 0. -1.
        -14    1    6    6    0    0 -0.20007494614E+02 -0.53850651184E+02  0.79383473049E+02  0.97989429363E+02  0.00000000000E+00 0.  1.
</event>
<event>
12    1  0.1628146E-001  0.2785607E+03  0.7818608E-02  0.1096511E+00
         21   -1    0    0  501  502  0.00000000000E+00  0.00000000000E+00  0.36965919263E+03  0.36965919263E+03  0.00000000000E+00 0. -1.
         21   -1    0    0  502  503 -0.00000000000E+00 -0.00000000000E+00 -0.21154505549E+03  0.21154505549E+03  0.00000000000E+00 0.  1.
         -6    2    1    2    0  503  0.12375586949E+02  0.21876362594E+03  0.52169233045E+02  0.28340378338E+03  0.17200405917E+03 0.  0.
        -24    2    3    3    0    0  0.85221382379E+01  0.14313394556E+03  0.10180711568E+03  0.19273566873E+03  0.78882165208E+02 0.  0.
          6    2    1    2  501    0 -0.12375586949E+02 -0.21876362594E+03  0.10594490409E+03  0.29780046474E+03  0.17161035781E+03 0.  0.
         24    2    5    5    0    0 -0.62718229385E+02 -0.77660832904E+02  0.46542443524E+02  0.13657043598E+03  0.80749635731E+02 0.  0.
          5    1    5    5  501    0  0.50342642436E+02 -0.14110279304E+03  0.59402460570E+02  0.16123002875E+03  0.47000000000E+01 0. -1.
        -13    1    6    6    0    0 -0.36361141115E+02 -0.90997629712E+02  0.42279648654E+02  0.10672520736E+03  0.00000000000E+00 0.  1.
         14    1    6    6    0    0 -0.26357088270E+02  0.13336796809E+02  0.42627948700E+01  0.29845228618E+02  0.00000000000E+00 0. -1.
         -5    1    3    3    0  503  0.38534487112E+01  0.75629680382E+02 -0.49637882632E+02  0.90668114648E+02  0.47000000000E+01 0.  1.
         11    1    4    4    0    0 -0.25737540141E+02  0.43544372788E+02  0.62307737635E+02  0.80254517276E+02  0.00000000000E+00 0. -1.
        -12    1    4    4    0    0  0.34259678379E+02  0.99589572770E+02  0.39499378043E+02  0.11248115146E+03  0.00000000000E+00 0.  1.
</event>
<event>
12    1  0.1628146E-001  0.1795024E+03  0.7818608E-02  0.1168599E+00
         21   -1    0    0  501  502  0.00000000000E+00  0.00000000000E+00  0.15148214809E+03  0.15148214809E+03  0.00000000000E+00 0. -1.
         21   -1    0    0  502  503 -0.00000000000E+00 -0.00000000000E+00 -0.51682951020E+03  0.51682951020E+03  0.00000000000E+00 0. -1.
         -6    2    1    2    0  503 -0.32615636954E+02 -0.37955930766E+02 -0.43937607341E+03  0.47414325211E+03  0.17104402117E+03 0.  0.
        -24    2    3    3    0    0 -0.17122848461E+02 -0.56027401329E+02 -0.12748245297E+03  0.16130731264E+03  0.79599068208E+02 0.  0.
          6    2    1    2  501    0  0.32615636954E+02  0.37955930766E+02  0.74028711302E+02  0.19416840618E+03  0.17238528768E+03 0.  0.
         24    2    5    5    0    0  0.26817044472E+01  0.75179539348E+02  0.96799873357E+02  0.14104352338E+03  0.69741704392E+02 0.  0.
          5    1    5    5  501    0  0.29933932507E+02 -0.37223608582E+02 -0.22771162055E+02  0.53124882800E+02  0.47000000000E+01 0. -1.
        -11    1    6    6    0    0 -0.15492388175E+02 -0.78330197437E+01  0.20221709903E+02  0.26651225883E+02  0.00000000000E+00 0.  1.
         12    1    6    6    0    0  0.18174092623E+02  0.83012559092E+02  0.76578163455E+02  0.11439229750E+03  0.00000000000E+00 0. -1.
         -5    1    3    3    0  503 -0.15492788492E+02  0.18071470564E+02 -0.31189362045E+03  0.31283593946E+03  0.47000000000E+01 0.  1.
         11    1    4    4    0    0  0.15140123981E+02  0.76937988717E+01 -0.62431955027E+02  0.64700594308E+02  0.00000000000E+00 0. -1.
        -12    1    4    4    0    0 -0.32262972443E+02 -0.63721200201E+02 -0.65050497938E+02  0.96606718337E+02  0.00000000000E+00 0.  1.
</event>
<event>
12    1  0.1628146E-001  0.2533771E+03  0.7818608E-02  0.1111382E+00
         21   -1    0    0  501  502  0.00000000000E+00  0.00000000000E+00  0.51220301652E+02  0.51220301652E+02  0.00000000000E+00 0.  1.
         21   -1    0    0  502  503 -0.00000000000E+00 -0.00000000000E+00 -0.18221136118E+04  0.18221136118E+04  0.00000000000E+00 0. -1.
         -6    2    1    2    0  503 -0.78119564637E+01  0.18452109923E+03 -0.14130320744E+04  0.14355694411E+04  0.17346732901E+03 0.  0.
        -24    2    3    3    0    0  0.51281479246E+02  0.12048220957E+03 -0.81829074662E+03  0.83446017441E+03  0.97868706678E+02 0.  0.
          6    2    1    2  501    0  0.78119564637E+01 -0.18452109923E+03 -0.35786123579E+03  0.43776447239E+03  0.17165082719E+03 0.  0.
         24    2    5    5    0    0 -0.37002137204E+02 -0.10334011793E+03 -0.11735903265E+03  0.17996211702E+03  0.81023964893E+02 0.  0.
          5    1    5    5  501    0  0.44814093667E+02 -0.81180981307E+02 -0.24050220314E+03  0.25780235537E+03  0.47000000000E+01 0. -1.
        -13    1    6    6    0    0 -0.44950712751E+02 -0.58671308898E+02 -0.26704010041E+02  0.78587487661E+02  0.00000000000E+00 0.  1.
         14    1    6    6    0    0  0.79485755477E+01 -0.44668809029E+02 -0.90655022610E+02  0.10137462936E+03  0.00000000000E+00 0. -1.
         -5    1    3    3    0  503 -0.59093435710E+02  0.64038889666E+02 -0.59474132775E+03  0.60110926666E+03  0.47000000000E+01 0.  1.
         11    1    4    4    0    0 -0.17795818207E+02  0.46113483639E+02 -0.44076653264E+03  0.44352934606E+03  0.00000000000E+00 0. -1.
        -12    1    4    4    0    0  0.69077297453E+02  0.74368725929E+02 -0.37752421398E+03  0.39093082835E+03  0.00000000000E+00 0.  1.
</event>
<event>
12    1  0.1628146E-001  0.2407301E+03  0.7818608E-02  0.1119368E+00
         21   -1    0    0  503  502  0.00000000000E+00  0.00000000000E+00  0.27699405666E+02  0.27699405666E+02  0.00000000000E+00 0.  1.
         21   -1    0    0  501  503 -0.00000000000E+00 -0.00000000000E+00 -0.20889607936E+04  0.20889607936E+04  0.00000000000E+00 0.  1.
          6    2    1    2  501    0  0.72615426369E+02 -0.15228657670E+03 -0.10305520113E+04  0.10582119059E+04  0.17120393732E+03 0.  0.
         24    2    3    3    0    0  0.82129016185E+02 -0.16995627608E+03 -0.10034039754E+04  0.10241262414E+04  0.79904377093E+02 0.  0.
         -6    2    1    2    0  502 -0.72615426369E+02  0.15228657670E+03 -0.10307093767E+04  0.10584482934E+04  0.17171711944E+03 0.  0.
        -24    2    5    5    0    0 -0.10776372698E+02  0.82660715325E+02 -0.20185066852E+03  0.22436156100E+03  0.51434362117E+02 0.  0.
          5    1    3    3  501    0 -0.95135898167E+01  0.17669699377E+02 -0.27148035931E+02  0.34085664467E+02  0.47000000000E+01 0. -1.
        -13    1    4    4    0    0  0.56485575179E+02 -0.60962636203E+02 -0.27884355535E+03  0.29096527555E+03  0.00000000000E+00 0.  1.
         14    1    4    4    0    0  0.25643441006E+02 -0.10899363987E+03 -0.72456042004E+03  0.73316096587E+03  0.00000000000E+00 0. -1.
         -5    1    5    5    0  502 -0.61839053671E+02  0.69625861374E+02 -0.82885870814E+03  0.83408673241E+03  0.47000000000E+01 0.  1.
         13    1    6    6    0    0  0.89161908630E+01  0.25014670414E+01 -0.42016803187E+01  0.10169066543E+02  0.00000000000E+00 0. -1.
        -14    1    6    6    0    0 -0.19692563561E+02  0.80159248283E+02 -0.19764898820E+03  0.21419249446E+03  0.00000000000E+00 0.  1.
</event>
<event>
12    1  0.1628146E-001  0.1816851E+03  0.7818608E-02  0.1166787E+00
         21   -1    0    0  501  502  0.00000000000E+00  0.00000000000E+00  0.19719374893E+03  0.19719374893E+03  0.00000000000E+00 0. -1.
         21   -1    0    0  502  503 -0.00000000000E+00 -0.00000000000E+00 -0.22670296041E+03  0.22670296041E+03  0.00000000000E+00 0. -1.
         -6    2    1    2    0  503  0.39025352004E+02 -0.44711987481E+02 -0.12517071326E+03  0.21856625271E+03  0.16906022430E+03 0.  0.
        -24    2    3    3    0    0  0.57013857235E+02 -0.16397292369E+02 -0.92481694868E+01  0.97796080749E+02  0.77195166023E+02 0.  0.
          6    2    1    2  501    0 -0.39025352004E+02  0.44711987481E+02  0.95661501781E+02  0.20533045663E+03  0.17171876302E+03 0.  0.
         24    2    5    5    0    0 -0.17299315886E+02  0.94916306288E+02  0.52616399408E+02  0.13556323574E+03  0.79375902318E+02 0.  0.
          5    1    5    5  501    0 -0.21726036118E+02 -0.50204318808E+02  0.43045102373E+02  0.69767220890E+02  0.47000000000E+01 0. -1.
        -13    1    6    6    0    0 -0.34540357485E+01 -0.36344915226E+01 -0.14623017596E+02  0.15458736533E+02  0.00000000000E+00 0.  1.
         14    1    6    6    0    0 -0.13845280137E+02  0.98550797811E+02  0.67239417004E+02  0.12010449921E+03  0.00000000000E+00 0. -1.
         -5    1    3    3    0  503 -0.17988505231E+02 -0.28314695112E+02 -0.11592254378E+03  0.12077017196E+03  0.47000000000E+01 0.  1.
         13    1    4    4    0    0  0.57739935310E+02 -0.41872499449E+02 -0.22199688974E+01  0.71359194233E+02  0.00000000000E+00 0. -1.
        -14    1    4    4    0    0 -0.72607807461E+00  0.25475207080E+02 -0.70282005894E+01  0.26436886516E+02  0.00000000000E+00 0.  1.
</event>
<event>
12    1  0.1628146E-001  0.1820254E+03  0.7818608E-02  0.1166034E+00
         21   -1    0    0  503  502  0.00000000000E+00  0.00000000000E+00  0.56249599342E+03  0.56249599342E+03  0.00000000000E+00 0.  1.
         21   -1    0    0  501  503 -0.00000000000E+00 -0.00000000000E+00 -0.59055358620E+02  0.59055358620E+02  0.00000000000E+00 0.  1.
          6    2    1    2  501    0  0.44266351263E+02  0.37781577607E+02  0.27752781809E+03  0.33189599350E+03  0.17247116636E+03 0.  0.
         24    2    3    3    0    0  0.53170015131E+02  0.31189755655E+02  0.67280719827E+02  0.12130477888E+03  0.79926858757E+02 0.  0.
         -6    2    1    2    0  502 -0.44266351263E+02 -0.37781577607E+02  0.22591281671E+03  0.28965535855E+03  0.17168770637E+03 0.  0.
        -24    2    5    5    0    0 -0.32831090277E+02  0.41816766162E+02  0.92980801103E+02  0.13422153887E+03  0.80891715907E+02 0.  0.
          5    1    3    3  501    0 -0.89036638678E+01  0.65918219516E+01  0.21024709827E+03  0.21059121462E+03  0.47000000000E+01 0. -1.
        -13    1    4    4    0    0  0.59635374322E+02  0.48386312499E+02  0.35518351103E+02  0.84611857165E+02  0.00000000000E+00 0.  1.
         14    1    4    4    0    0 -0.64653591912E+01 -0.17196556844E+02  0.31762368723E+02  0.36692921711E+02  0.00000000000E+00 0. -1.
         -5    1    5    5    0  502 -0.11435260986E+02 -0.79598343769E+02  0.13293201561E+03  0.15543381968E+03  0.47000000000E+01 0.  1.
         11    1    6    6    0    0 -0.79664707241E+01 -0.16310650034E+02 -0.38717991498E+01  0.18560516938E+02  0.00000000000E+00 0. -1.
        -12    1    6    6    0    0 -0.24864619553E+02  0.58127416196E+02  0.96852600252E+02  0.11566102193E+03  0.00000000000E+00 0.  1.
</event>
<event>
12    1  0.1628146E-001  0.2392577E+03  0.7818608E-02  0.1120352E+00
         21   -1    0    0  503  502  0.00000000000E+00  0.00000000000E+00  0.92039689004E+03  0.92039689004E+03  0.00000000000E+00 0.  1.
         21   -1    0    0  501  503 -0.00000000000E+00 -0.00000000000E+00 -0.11780367232E+03  0.11780367232E+03  0.00000000000E+00 0.  1.
          6    2    1    2  501    0 -0.15351417330E+03  0.63053457642E+02  0.44497499409E+02  0.24336036206E+03  0.17234238725E+03 0.  0.
         24    2    3    3    0    0 -0.62485937612E+02  0.79228109136E+02 -0.20477664560E+02  0.13026031354E+03  0.79792411047E+02 0.  0.
         -6    2    1    2    0  502  0.15351417330E+03 -0.63053457642E+02  0.75809571830E+03  0.79484020030E+03  0.17181235690E+03 0.  0.
        -24    2    5    5    0    0  0.14718354717E+03 -0.71751027429E+02  0.43591955806E+03  0.47245023027E+03  0.79825763309E+02 0.  0.
          5    1    3    3  501    0 -0.91028235685E+02 -0.16174651493E+02  0.64975163969E+02  0.11310004852E+03  0.47000000000E+01 0. -1.
        -11    1    4    4    0    0 -0.56275938675E+02  0.12748094935E+02 -0.25947055309E+02  0.63267249643E+02  0.00000000000E+00 0.  1.
         12    1    4    4    0    0 -0.62099989374E+01  0.66480014200E+02  0.54693907486E+01  0.66993063895E+02  0.00000000000E+00 0. -1.
         -5    1    5    5    0  502  0.63306261232E+01  0.86975697870E+01  0.32217616024E+03  0.32238997003E+03  0.47000000000E+01 0.  1.
         11    1    6    6    0    0  0.29457096093E+02 -0.29877374477E+02  0.42735067311E+02  0.59888763503E+02  0.00000000000E+00 0. -1.
        -12    1    6    6    0    0  0.11772645108E+03 -0.41873652952E+02  0.39318449075E+03  0.41256146677E+03  0.00000000000E+00 0.  1.
</event>
<event>
12    1  0.1628146E-001  0.2143633E+03  0.7818608E-02  0.1138401E+00
         21   -1    0    0  503  502  0.00000000000E+00  0.00000000000E+00  0.73471114617E+03  0.73471114617E+03  0.00000000000E+00 0. -1.
         21   -1    0    0  501  503 -0.00000000000E+00 -0.00000000000E+00 -0.12517793781E+03  0.12517793781E+03  0.00000000000E+00 0. -1.
          6    2    1    2  501    0  0.40078749112E+02 -0.11943064473E+03 -0.70069942980E+00  0.21309927673E+03  0.17187444758E+03 0.  0.
         24    2    3    3    0    0 -0.14324347571E+02 -0.13296893269E+03 -0.10331015325E+02  0.15602200319E+03  0.79688214990E+02 0.  0.
         -6    2    1    2    0  502 -0.40078749112E+02  0.11943064473E+03  0.61023390779E+03  0.64678980726E+03  0.17344061672E+03 0.  0.
        -24    2    5    5    0    0 -0.45644370657E+02 -0.10198928438E+01  0.30180230816E+03  0.31559281181E+03  0.80185665186E+02 0.  0.
          5    1    3    3  501    0  0.54403096683E+02  0.13538287966E+02  0.96303158949E+01  0.57077273533E+02  0.47000000000E+01 0. -1.
        -13    1    4    4    0    0 -0.29070277390E+02 -0.10405188221E+03  0.21949384473E+02  0.11024359709E+03  0.00000000000E+00 0.  1.
         14    1    4    4    0    0  0.14745929820E+02 -0.28917050478E+02 -0.32280399798E+02  0.45778406107E+02  0.00000000000E+00 0. -1.
         -5    1    5    5    0  502  0.55656215444E+01  0.12045053757E+03  0.30843159963E+03  0.33119699545E+03  0.47000000000E+01 0.  1.
         13    1    6    6    0    0 -0.21238664348E+02  0.15834975488E+02  0.27288847310E+03  0.27417138083E+03  0.00000000000E+00 0. -1.
        -14    1    6    6    0    0 -0.24405706308E+02 -0.16854868331E+02  0.28913835052E+02  0.41421430979E+02  0.00000000000E+00 0.  1.
</event>
<event>
12    1  0.1628146E-001  0.2033956E+03  0.7818608E-02  0.1147164E+00
         21   -1    0    0  503  502  0.00000000000E+00  0.00000000000E+00  0.50337721042E+03  0.50337721042E+03  0.00000000000E+00 0. -1.
         21   -1    0    0  501  503 -0.00000000000E+00 -0.00000000000E+00 -0.10693372812E+03  0.10693372812E+03  0.00000000000E+00 0. -1.
          6    2    1    2  501    0 -0.53117918519E+02 -0.91029714730E+02  0.34604728096E+03  0.40076488751E+03  0.17249884685E+03 0.  0.
         24    2    3    3    0    0 -0.10024406484E+03 -0.41359035807E+02  0.20525595714E+03  0.24413686678E+03  0.75586767382E+02 0.  0.
         -6    2    1    2    0  502  0.53117918519E+02  0.91029714730E+02  0.50396201335E+02  0.20954605103E+03  0.17395932905E+03 0.  0.
        -24    2    5    5    0    0 -0.31951023434E+02  0.16902030561E+02  0.42577009801E+01  0.87552241106E+02  0.79628640384E+02 0.  0.
          5    1    3    3  501    0  0.47126146320E+02 -0.49670678923E+02  0.14079132382E+03  0.15662802072E+03  0.47000000000E+01 0. -1.
        -11    1    4    4    0    0 -0.37324799268E+02  0.21526174338E+02  0.61780914369E+02  0.75321963611E+02  0.00000000000E+00 0.  1.
         12    1    4    4    0    0 -0.62919265571E+02 -0.62885210144E+02  0.14347504277E+03  0.16881490317E+03  0.00000000000E+00 0. -1.
         -5    1    5    5    0  502  0.85068941953E+02  0.74127684169E+02  0.46138500355E+02  0.12199380993E+03  0.47000000000E+01 0.  1.
         13    1    6    6    0    0 -0.20017076594E+02  0.45325767757E+02 -0.14298461752E+02  0.51570869554E+02  0.00000000000E+00 0. -1.
        -14    1    6    6    0    0 -0.11933946841E+02 -0.28423737196E+02  0.18556162732E+02  0.35981371551E+02  0.00000000000E+00 0.  1.
</event>
<event>
12    1  0.1628146E-001  0.2027133E+03  0.7818608E-02  0.1147490E+00
         21   -1    0    0  503  502  0.00000000000E+00  0.00000000000E+00  0.16353945319E+03  0.16353945319E+03  0.00000000000E+00 0.  1.
         21   -1    0    0  501  503 -0.00000000000E+00 -0.00000000000E+00 -0.44100301747E+03  0.44100301747E+03  0.00000000000E+00 0.  1.
          6    2    1    2  501    0 -0.91736119562E+02  0.54110029346E+02 -0.33707958257E+03  0.39333867542E+03  0.17247973125E+03 0.  0.
         24    2    3    3    0    0 -0.12911667124E+03  0.34844304534E+02 -0.22881958935E+03  0.27710275186E+03  0.80884425349E+02 0.  0.
         -6    2    1    2    0  502  0.91736119562E+02 -0.54110029346E+02  0.59616018286E+02  0.21120379524E+03  0.17236462102E+03 0.  0.
        -24    2    5    5    0    0  0.95498757326E+02 -0.64646357819E+02 -0.10351519241E+02  0.14019169790E+03  0.79040457864E+02 0.  0.
          5    1    3    3  501    0  0.37380551679E+02  0.19265724812E+02 -0.10825999321E+03  0.11623592357E+03  0.47000000000E+01 0. -1.
        -11    1    4    4    0    0 -0.62559356018E+02 -0.53585195940E+00 -0.41203545064E+02  0.74911229389E+02  0.00000000000E+00 0.  1.
         12    1    4    4    0    0 -0.66557315223E+02  0.35380156494E+02 -0.18761604429E+03  0.20219152247E+03  0.00000000000E+00 0. -1.
         -5    1    5    5    0  502 -0.37626377639E+01  0.10536328472E+02  0.69967537527E+02  0.71012097337E+02  0.47000000000E+01 0.  1.
         13    1    6    6    0    0  0.15468761928E+02  0.18555821953E+02  0.10852673082E+01  0.24182202734E+02  0.00000000000E+00 0. -1.
        -14    1    6    6    0    0  0.80029995398E+02 -0.83202179771E+02 -0.11436786550E+02  0.11600949517E+03  0.00000000000E+00 0.  1.
</event>
<event>
12    1  0.1628146E-001  0.1822391E+03  0.7818608E-02  0.1166557E+00
         21   -1    0    0  503  502  0.00000000000E+00  0.00000000000E+00  0.19003458675E+03  0.19003458675E+03  0.00000000000E+00 0.  1.
         21   -1    0    0  501  503 -0.00000000000E+00 -0.00000000000E+00 -0.20790304269E+03  0.20790304269E+03  0.00000000000E+00 0.  1.
          6    2    1    2  501    0  0.50228180688E+02  0.17033808925E+01 -0.92474909835E+02  0.20101834931E+03  0.17126294453E+03 0.  0.
         24    2    3    3    0    0 -0.14081571569E+02  0.27569687491E+01  0.37827877697E+01  0.85154253793E+02  0.83851332257E+02 0.  0.
         -6    2    1    2    0  502 -0.50228180688E+02 -0.17033808925E+01  0.74606453893E+02  0.19691928013E+03  0.17517222463E+03 0.  0.
        -24    2    5    5    0    0 -0.16573214772E+02 -0.62204685526E+02  0.75388589343E+02  0.12752355743E+03  0.80216731094E+02 0.  0.
          5    1    3    3  501    0  0.64309752257E+02 -0.10535878565E+01 -0.96257697605E+02  0.11586409552E+03  0.47000000000E+01 0. -1.
        -11    1    4    4    0    0  0.17625706419E+02 -0.21911054912E+02 -0.23454853039E+02  0.36618164689E+02  0.00000000000E+00 0.  1.
         12    1    4    4    0    0 -0.31707277988E+02  0.24668023661E+02  0.27237640809E+02  0.48536089104E+02  0.00000000000E+00 0. -1.
         -5    1    5    5    0  502 -0.33654965917E+02  0.60501304634E+02 -0.78213544983E+00  0.69395722700E+02  0.47000000000E+01 0.  1.
         13    1    6    6    0    0 -0.17454026075E+02 -0.76055900706E+02  0.36336346763E+02  0.86078296652E+02  0.00000000000E+00 0. -1.
        -14    1    6    6    0    0  0.88081130365E+00  0.13851215179E+02  0.39052242580E+02  0.41445260779E+02  0.00000000000E+00 0.  1.
</event>
<event>
12    1  0.1628146E-001  0.2168840E+03  0.7818608E-02  0.1136477E+00
         21   -1    0    0  503  502  0.00000000000E+00  0.00000000000E+00  0.73944191298E+03  0.73944191298E+03  0.00000000000E+00 0. -1.
         21   -1    0    0  501  503 -0.00000000000E+00 -0.00000000000E+00 -0.91071657350E+02  0.91071657350E+02  0.00000000000E+00 0. -1.
          6    2    1    2  501    0  0.11298956248E+03 -0.69066380003E+02  0.95269383826E+02  0.23688589768E+03  0.17176107518E+03 0.  0.
         24    2    3    3    0    0  0.54225010609E+02 -0.10665910786E+03  0.51417677778E+02  0.15435379564E+03  0.82854086045E+02 0.  0.
         -6    2    1    2    0  502 -0.11298956248E+03  0.69066380003E+02  0.55310087180E+03  0.59362767265E+03  0.17010712292E+03 0.  0.
        -24    2    5    5    0    0 -0.64834809282E+02 -0.27388197709E+02  0.23597899868E+03  0.25864895955E+03  0.79117195279E+02 0.  0.
          5    1    3    3  501    0  0.58764551874E+02  0.37592727856E+02  0.43851706049E+02  0.82532102045E+02  0.47000000000E+01 0. -1.
        -13    1    4    4    0    0 -0.31928468656E+01 -0.58195996091E+02  0.53603963810E+02  0.79185561615E+02  0.00000000000E+00 0.  1.
         14    1    4    4    0    0  0.57417857474E+02 -0.48463111768E+02 -0.21862860326E+01  0.75168234020E+02  0.00000000000E+00 0. -1.
         -5    1    5    5    0  502 -0.48154753201E+02  0.96454577712E+02  0.31712187312E+03  0.33497871310E+03  0.47000000000E+01 0.  1.
         13    1    6    6    0    0  0.14665127667E+01 -0.13740759546E+02  0.14285647634E+03  0.14352328022E+03  0.00000000000E+00 0. -1.
        -14    1    6    6    0    0 -0.66301322048E+02 -0.13647438163E+02  0.93122522338E+02  0.11512567933E+03  0.00000000000E+00 0.  1.
</event>
<event>
12    1  0.1628146E-001  0.1949973E+03  0.7818608E-02  0.1154791E+00
         21   -1    0    0  501  502  0.00000000000E+00  0.00000000000E+00  0.17250524850E+03  0.17250524850E+03  0.00000000000E+00 0.  1.
         21   -1    0    0  502  503 -0.00000000000E+00 -0.00000000000E+00 -0.22365169002E+03  0.22365169002E+03  0.00000000000E+00 0. -1.
         -6    2    1    2    0  503  0.30912400219E+02 -0.78660642814E+02  0.95541734874E+01  0.19523119171E+03  0.17572951593E+03 0.  0.
        -24    2    3    3    0    0  0.44688815577E+02  0.19144111480E+02  0.20431166445E+02  0.95752759080E+02  0.79922281418E+02 0.  0.
          6    2    1    2  501    0 -0.30912400219E+02  0.78660642814E+02 -0.60700615012E+02  0.20092574682E+03  0.17188227906E+03 0.  0.
         24    2    5    5    0    0 -0.62697028520E+02  0.10534565363E+03 -0.29873024586E+02  0.14901445007E+03  0.79273479857E+02 0.  0.
          5    1    5    5  501    0  0.31784628301E+02 -0.26685010812E+02 -0.30827590425E+02  0.51911296745E+02  0.47000000000E+01 0. -1.
        -13    1    6    6    0    0 -0.66447061498E+02  0.34425873807E+02 -0.18529624912E+02  0.77095393951E+02  0.00000000000E+00 0.  1.
         14    1    6    6    0    0  0.37500329777E+01  0.70919779820E+02 -0.11343399674E+02  0.71919056120E+02  0.00000000000E+00 0. -1.
         -5    1    3    3    0  503 -0.13776415358E+02 -0.97804754294E+02 -0.10876992958E+02  0.99478432630E+02  0.47000000000E+01 0.  1.
         13    1    4    4    0    0 -0.22476972551E+02 -0.33279416928E+01  0.50533707041E+01  0.23277157181E+02  0.00000000000E+00 0. -1.
        -14    1    4    4    0    0  0.67165788128E+02  0.22472053173E+02  0.15377795741E+02  0.72475601898E+02  0.00000000000E+00 0.  1.
</event>
<event>
12    1  0.1628146E-001  0.2234950E+03  0.7818608E-02  0.1131570E+00
         21   -1    0    0  501  502  0.00000000000E+00  0.00000000000E+00  0.72753712688E+03  0.72753712688E+03  0.00000000000E+00 0.  1.
         21   -1    0    0  502  503 -0.00000000000E+00 -0.00000000000E+00 -0.27865104028E+03  0.27865104028E+03  0.00000000000E+00 0. -1.
         -6    2    1    2    0  503 -0.11982783401E+03 -0.75797938412E+02 -0.21258064068E+03  0.30844863607E+03  0.17275993467E+03 0.  0.
        -24    2    3    3    0    0 -0.26663265109E+02 -0.65122500062E+02 -0.17958559982E+03  0.20892796182E+03  0.80299662796E+02 0.  0.
          6    2    1    2  501    0  0.11982783401E+03  0.75797938412E+02  0.66146672728E+03  0.69773953109E+03  0.17087476314E+03 0.  0.
         24    2    5    5    0    0  0.12861192312E+02  0.43548355160E+00  0.16087803166E+03  0.18031079762E+03  0.80403002147E+02 0.  0.
          5    1    5    5  501    0  0.10696664169E+03  0.75362454861E+02  0.50058869562E+03  0.51742873347E+03  0.47000000000E+01 0. -1.
        -11    1    6    6    0    0  0.39654242491E+02  0.22744788194E+02  0.10389985314E+03  0.11351195452E+03  0.00000000000E+00 0.  1.
         12    1    6    6    0    0 -0.26793050180E+02 -0.22309304642E+02  0.56978178524E+02  0.66798843100E+02  0.00000000000E+00 0. -1.
         -5    1    3    3    0  503 -0.93164568897E+02 -0.10675438351E+02 -0.32995040863E+02  0.99520674251E+02  0.47000000000E+01 0.  1.
         13    1    4    4    0    0 -0.48956869067E+02 -0.18238563802E+02 -0.11302839666E+03  0.12451842711E+03  0.00000000000E+00 0. -1.
        -14    1    4    4    0    0  0.22293603959E+02 -0.46883936260E+02 -0.66557203158E+02  0.84409534704E+02  0.00000000000E+00 0.  1.
</event>
<event>
12    1  0.1628146E-001  0.1878231E+03  0.7818608E-02  0.1160579E+00
         21   -1    0    0  501  502  0.00000000000E+00  0.00000000000E+00  0.12166276475E+03  0.12166276475E+03  0.00000000000E+00 0. -1.
         21   -1    0    0  502  503 -0.00000000000E+00 -0.00000000000E+00 -0.42564938465E+03  0.42564938465E+03  0.00000000000E+00 0. -1.
         -6    2    1    2    0  503 -0.35420847200E+02  0.65224515973E+02 -0.30719949854E+03  0.36006811338E+03  0.17253591067E+03 0.  0.
        -24    2    3    3    0    0 -0.29756321185E+01  0.43229617374E+02 -0.30701120559E+03  0.32058909363E+03  0.81509707330E+02 0.  0.
          6    2    1    2  501    0  0.35420847200E+02 -0.65224515973E+02  0.32128786328E+01  0.18724403602E+03  0.17187534010E+03 0.  0.
         24    2    5    5    0    0  0.36234038086E+02  0.15382548834E+02  0.42216028855E+02  0.97569647793E+02  0.78664571146E+02 0.  0.
          5    1    5    5  501    0 -0.81319088584E+00 -0.80607064807E+02 -0.39003150222E+02  0.89674388225E+02  0.47000000000E+01 0. -1.
        -13    1    6    6    0    0 -0.17194943718E+02  0.11741104206E+02  0.38645842644E+02  0.43897844720E+02  0.00000000000E+00 0.  1.
         14    1    6    6    0    0  0.53428981804E+02  0.36414446281E+01  0.35701862113E+01  0.53671803073E+02  0.00000000000E+00 0. -1.
         -5    1    3    3    0  503 -0.32445215081E+02  0.21994898598E+02 -0.18829294348E+00  0.39479019748E+02  0.47000000000E+01 0.  1.
         11    1    4    4    0    0 -0.34074201128E+02  0.48468715906E+02 -0.22652449734E+03  0.23414443299E+03  0.00000000000E+00 0. -1.
        -12    1    4    4    0    0  0.31098569010E+02 -0.52390985315E+01 -0.80486708256E+02  0.86444660644E+02  0.00000000000E+00 0.  1.
</event>
<event>
12    1  0.1628146E-001  0.1763064E+03  0.7818608E-02  0.1171580E+00
         21   -1    0    0  501  502  0.00000000000E+00  0.00000000000E+00  0.16828181807E+03  0.16828181807E+03  0.00000000000E+00 0. -1.
         21   -1    0    0  502  503 -0.00000000000E+00 -0.00000000000E+00 -0.25883716951E+03  0.25883716951E+03  0.00000000000E+00 0. -1.
         -6    2    1    2    0  503 -0.38378606745E+02 -0.95659489618E+01 -0.16000076374E+03  0.23762858738E+03  0.17118024508E+03 0.  0.
        -24    2    3    3    0    0 -0.56476898431E+02 -0.50817866213E+02 -0.15794433602E+03  0.19228999748E+03  0.79100785504E+02 0.  0.
          6    2    1    2  501    0  0.38378606745E+02  0.95659489618E+01  0.69445412304E+02  0.18949040020E+03  0.17181246068E+03 0.  0.
         24    2    5    5    0    0  0.19040563257E+02 -0.59302132753E+02  0.25712718771E+02  0.10551771959E+03  0.81200734256E+02 0.  0.
          5    1    5    5  501    0  0.19338043489E+02  0.68868081715E+02  0.43732693533E+02  0.83972680609E+02  0.47000000000E+01 0. -1.
        -13    1    6    6    0    0  0.37492714500E+02 -0.39798846910E+02  0.46329492939E+02  0.71666406160E+02  0.00000000000E+00 0.  1.
         14    1    6    6    0    0 -0.18452151243E+02 -0.19503285843E+02 -0.20616774168E+02  0.33851313435E+02  0.00000000000E+00 0. -1.
         -5    1    3    3    0  503  0.18098291686E+02  0.41251917251E+02 -0.20564277231E+01  0.45338589897E+02  0.47000000000E+01 0.  1.
         11    1    4    4    0    0 -0.27881317453E+02  0.61472584109E+01 -0.10685178384E+03  0.11060045370E+03  0.00000000000E+00 0. -1.
        -12    1    4    4    0    0 -0.28595580979E+02 -0.56965124624E+02 -0.51092552182E+02  0.81689543782E+02  0.00000000000E+00 0.  1.
</event>
<event>
12    1  0.1628146E-001  0.2212511E+03  0.7818608E-02  0.1133302E+00
         21   -1    0    0  503  502  0.00000000000E+00  0.00000000000E+00  0.55778345776E+02  0.55778345776E+02  0.00000000000E+00 0. -1.
         21   -1    0    0  501  503 -0.00000000000E+00 -0.00000000000E+00 -0.10684090469E+04  0.10684090469E+04  0.00000000000E+00 0. -1.
          6    2    1    2  501    0  0.73724225379E+02  0.11388320860E+03 -0.74666484051E+03  0.77822510823E+03  0.17239863232E+03 0.  0.
         24    2    3    3    0    0  0.25815493636E+02  0.10381615789E+03 -0.69175373568E+03  0.70451003840E+03  0.79793038727E+02 0.  0.
         -6    2    1    2    0  502 -0.73724225379E+02 -0.11388320860E+03 -0.26596586058E+03  0.34596228441E+03  0.17477819266E+03 0.  0.
        -24    2    5    5    0    0 -0.22042848388E+02 -0.43214136205E+02 -0.35049524594E+02  0.98961218122E+02  0.78813100338E+02 0.  0.
          5    1    3    3  501    0  0.47908731743E+02  0.10067050706E+02 -0.54911104831E+02  0.73715069836E+02  0.47000000000E+01 0. -1.
        -11    1    4    4    0    0  0.63010845588E+01 -0.12330583552E+02 -0.43704713942E+02  0.45845926516E+02  0.00000000000E+00 0.  1.
         12    1    4    4    0    0  0.19514409077E+02  0.11614674144E+03 -0.64804902174E+03  0.65866411188E+03  0.00000000000E+00 0. -1.
         -5    1    5    5    0  502 -0.51681376990E+02 -0.70669072390E+02 -0.23091633599E+03  0.24700106629E+03  0.47000000000E+01 0.  1.
         13    1    6    6    0    0 -0.48899687422E+02 -0.31594796014E+02 -0.38042496589E+02  0.69545971213E+02  0.00000000000E+00 0. -1.
        -14    1    6    6    0    0  0.26856839034E+02 -0.11619340191E+02  0.29929719950E+01  0.29415246909E+02  0.00000000000E+00 0.  1.
</event>
<event>
12    1  0.1628146E-001  0.1874519E+03  0.7818608E-02  0.1163416E+00
         21   -1    0    0  503  502  0.00000000000E+00  0.00000000000E+00  0.14906690535E+03  0.14906690535E+03  0.00000000000E+00 0.  1.
         21   -1    0    0  501  503 -0.00000000000E+00 -0.00000000000E+00 -0.29183400898E+03  0.29183400898E+03  0.00000000000E+00 0.  1.
          6    2    1    2  501    0 -0.73952997993E+02 -0.79871443497E+01 -0.18088465553E+03  0.26049469040E+03  0.17206215369E+03 0.  0.
         24    2    3    3    0    0 -0.41348981377E+02  0.57018093583E+02 -0.67094776131E+02  0.12536908397E+03  0.79087906631E+02 0.  0.
         -6    2    1    2    0  502  0.73952997993E+02  0.79871443497E+01  0.38117551902E+02  0.18040622392E+03  0.15987688225E+03 0.  0.
        -24    2    5    5    0    0  0.20063808801E+02  0.61993918239E+02 -0.68607128480E+00  0.94682321128E+02  0.68691112367E+02 0.  0.
          5    1    3    3  501    0 -0.32604016615E+02 -0.65005237933E+02 -0.11378987940E+03  0.13512560643E+03  0.47000000000E+01 0. -1.
        -11    1    4    4    0    0  0.22856347293E+02  0.54054626934E+01 -0.16313496695E+02  0.28596534982E+02  0.00000000000E+00 0.  1.
         12    1    4    4    0    0 -0.64205328671E+02  0.51612630890E+02 -0.50781279436E+02  0.96772548991E+02  0.00000000000E+00 0. -1.
         -5    1    5    5    0  502  0.53889189192E+02 -0.54006773889E+02  0.38803623187E+02  0.85723902793E+02  0.47000000000E+01 0.  1.
         13    1    6    6    0    0  0.24955641570E+02 -0.48567257192E+01  0.89724341189E+01  0.26960645484E+02  0.00000000000E+00 0. -1.
        -14    1    6    6    0    0 -0.48918327693E+01  0.66850643958E+02 -0.96585054037E+01  0.67721675644E+02  0.00000000000E+00 0.  1.
</event>
<event>
12    1  0.1628146E-001  0.1774398E+03  0.7818608E-02  0.1170782E+00
         21   -1    0    0  503  502  0.00000000000E+00  0.00000000000E+00  0.89543607135E+02  0.89543607135E+02  0.00000000000E+00 0.  1.
         21   -1    0    0  501  503 -0.00000000000E+00 -0.00000000000E+00 -0.37700621351E+03  0.37700621351E+03  0.00000000000E+00 0.  1.
          6    2    1    2  501    0 -0.31664190538E+02  0.40620110243E+01 -0.20937346338E+03  0.27444877852E+03  0.17454444696E+03 0.  0.
         24    2    3    3    0    0 -0.30840415450E+02 -0.39570060619E+02 -0.20977352345E+03  0.23055474328E+03  0.81447145972E+02 0.  0.
         -6    2    1    2    0  502  0.31664190538E+02 -0.40620110243E+01 -0.78089142994E+02  0.19210104213E+03  0.17258555918E+03 0.  0.
        -24    2    5    5    0    0 -0.37566120736E+02  0.20037332199E+02 -0.89016501634E+01  0.91192105421E+02  0.80150187814E+02 0.  0.
          5    1    3    3  501    0 -0.82377508762E+00  0.43632071643E+02  0.40006006792E+00  0.43894035236E+02  0.47000000000E+01 0. -1.
        -13    1    4    4    0    0 -0.49203458144E+02 -0.25446548173E+00 -0.13993395886E+03  0.14833259213E+03  0.00000000000E+00 0.  1.
         14    1    4    4    0    0  0.18363042693E+02 -0.39315595137E+02 -0.69839564589E+02  0.82222151151E+02  0.00000000000E+00 0. -1.
         -5    1    5    5    0  502  0.69230311274E+02 -0.24099343223E+02 -0.69187492831E+02  0.10090893671E+03  0.47000000000E+01 0.  1.
         11    1    6    6    0    0 -0.27151189210E+02 -0.60428598514E+01 -0.40363726707E+02  0.49019727298E+02  0.00000000000E+00 0. -1.
        -12    1    6    6    0    0 -0.10414931526E+02  0.26080192050E+02  0.31462076544E+02  0.42172378123E+02  0.00000000000E+00 0.  1.
</event>
<event>
12    1  0.1628146E-001  0.2738151E+03  0.7818608E-02  0.1099271E+00
         21   -1    0    0  501  502  0.00000000000E+00  0.00000000000E+00  0.10204952996E+03  0.10204952996E+03  0.00000000000E+00 0.  1.
         21   -1    0    0  502  503 -0.00000000000E+00 -0.00000000000E+00 -0.12852742979E+04  0.12852742979E+04  0.00000000000E+00 0. -1.
         -6    2    1    2    0  503 -0.21201162354E+03 -0.14269860921E+01 -0.10475107883E+04  0.10827065967E+04  0.17327365057E+03 0.  0.
        -24    2    3    3    0    0 -0.13422801920E+03  0.81587488935E+01 -0.91722427530E+03  0.93059203162E+03  0.81347598621E+02 0.  0.
          6    2    1    2  501    0  0.21201162354E+03  0.14269860921E+01 -0.13571397962E+03  0.30461723121E+03  0.17152961402E+03 0.  0.
         24    2    5    5    0    0  0.20135452368E+03 -0.44161495586E+02 -0.13214730035E+03  0.25742936583E+03  0.79454940056E+02 0.  0.
          5    1    5    5  501    0  0.10657099856E+02  0.45588481678E+02 -0.35666792633E+01  0.47187865390E+02  0.47000000000E+01 0. -1.
        -11    1    6    6    0    0  0.12180391129E+03 -0.24877058927E+02 -0.32545154634E+02  0.12850777391E+03  0.00000000000E+00 0.  1.
         12    1    6    6    0    0  0.79550612394E+02 -0.19284436659E+02 -0.99602145720E+02  0.12892159191E+03  0.00000000000E+00 0. -1.
         -5    1    3    3    0  503 -0.77783604336E+02 -0.95857349856E+01 -0.13028651302E+03  0.15211456503E+03  0.47000000000E+01 0.  1.
         13    1    4    4    0    0 -0.13450840689E+03 -0.83935406141E+01 -0.87356092188E+03  0.88389572195E+03  0.00000000000E+00 0. -1.
        -14    1    4    4    0    0  0.28038768841E+00  0.16552289508E+02 -0.43663353416E+02  0.46696309669E+02  0.00000000000E+00 0.  1.
</event>
<event>
12    1  0.1628146E-001  0.3252084E+03  0.7818608E-02  0.1073341E+00
         21   -1    0    0  501  502  0.00000000000E+00  0.00000000000E+00  0.36656024846E+03  0.36656024846E+03  0.00000000000E+00 0. -1.
         21   -1    0    0  502  503 -0.00000000000E+00 -0.00000000000E+00 -0.30711092300E+03  0.30711092300E+03  0.00000000000E+00 0. -1.
         -6    2    1    2    0  503  0.22503021240E+03 -0.15940052789E+03 -0.54277793858E+02  0.32915068722E+03  0.17130957711E+03 0.  0.
        -24    2    3    3    0    0  0.16661127759E+03 -0.95140591107E+02 -0.10068254119E+03  0.23057278912E+03  0.78840263094E+02 0.  0.
          6    2    1    2  501    0 -0.22503021240E+03  0.15940052789E+03  0.11372711932E+03  0.34452048424E+03  0.17237569901E+03 0.  0.
         24    2    5    5    0    0 -0.20260253560E+03  0.16436638372E+03  0.14229702416E+03  0.30756118401E+03  0.79254926014E+02 0.  0.
          5    1    5    5  501    0 -0.22427676799E+02 -0.49658558329E+01 -0.28569904838E+02  0.36959300226E+02  0.47000000000E+01 0. -1.
        -11    1    6    6    0    0 -0.18705895715E+03  0.11506296214E+03  0.12680483833E+03  0.25359417527E+03  0.00000000000E+00 0.  1.
         12    1    6    6    0    0 -0.15543578445E+02  0.49303421586E+02  0.15492185836E+02  0.53967008746E+02  0.00000000000E+00 0. -1.
         -5    1    3    3    0  503  0.58418934808E+02 -0.64259936784E+02  0.46404747332E+02  0.98577898104E+02  0.47000000000E+01 0.  1.
         13    1    4    4    0    0  0.10865970475E+03 -0.29990042987E+02 -0.25801990995E+02  0.11563769651E+03  0.00000000000E+00 0. -1.
        -14    1    4    4    0    0  0.57951572835E+02 -0.65150548120E+02 -0.74880550195E+02  0.11493509260E+03  0.00000000000E+00 0.  1.
</event>
<event>
12    1  0.1628146E-001  0.2290798E+03  0.7818608E-02  0.1127342E+00
         21   -1    0    0  503  502  0.00000000000E+00  0.00000000000E+00  0.11272054794E+04  0.11272054794E+04  0.00000000000E+00 0. -1.
         21   -1    0    0  501  503 -0.00000000000E+00 -0.00000000000E+00 -0.66835661480E+02  0.66835661480E+02  0.00000000000E+00 0. -1.
          6    2    1    2  501    0  0.15021050962E+03 -0.65597618084E+01  0.20106566529E+03  0.30480314032E+03  0.17283322863E+03 0.  0.
         24    2    3    3    0    0  0.26703128022E+02  0.24930225762E+02  0.13574648009E+03  0.16150492477E+03  0.79512015856E+02 0.  0.
         -6    2    1    2    0  502 -0.15021050962E+03  0.65597618084E+01  0.85930415259E+03  0.88923800051E+03  0.17243656001E+03 0.  0.
        -24    2    5    5    0    0 -0.12214071547E+03 -0.53068020946E+02  0.69916601665E+03  0.71600492515E+03  0.78072817121E+02 0.  0.
          5    1    3    3  501    0  0.12350738159E+03 -0.31489987571E+02  0.65319185198E+02  0.14329821555E+03  0.47000000000E+01 0. -1.
        -11    1    4    4    0    0 -0.92381618367E+01 -0.24566304822E+02  0.44123108915E+02  0.51339027134E+02  0.00000000000E+00 0.  1.
         12    1    4    4    0    0  0.35941289859E+02  0.49496530584E+02  0.91623371177E+02  0.11016589764E+03  0.00000000000E+00 0. -1.
         -5    1    5    5    0  502 -0.28069794147E+02  0.59627782754E+02  0.16013813593E+03  0.17323307536E+03  0.47000000000E+01 0.  1.
         13    1    6    6    0    0 -0.67391970236E+02  0.80892796820E+01  0.40293379796E+03  0.40861076789E+03  0.00000000000E+00 0. -1.
        -14    1    6    6    0    0 -0.54748745233E+02 -0.61157300628E+02  0.29623221869E+03  0.30739415726E+03  0.00000000000E+00 0.  1.
</event>
<event>
12    1  0.1628146E-001  0.2322598E+03  0.7818608E-02  0.1125226E+00
         21   -1    0    0  501  502  0.00000000000E+00  0.00000000000E+00  0.47982777212E+03  0.47982777212E+03  0.00000000000E+00 0. -1.
         21   -1    0    0  502  503 -0.00000000000E+00 -0.00000000000E+00 -0.13763456055E+03  0.13763456055E+03  0.00000000000E+00 0. -1.
         -6    2    1    2    0  503  0.16543970470E+02 -0.15358556624E+03  0.30472027725E+03  0.38314367498E+03  0.17344278362E+03 0.  0.
        -24    2    3    3    0    0 -0.39749928268E+02 -0.67956735609E+02  0.84101803755E+02  0.13984159829E+03  0.79274109934E+02 0.  0.
          6    2    1    2  501    0 -0.16543970470E+02  0.15358556624E+03  0.37472934315E+02  0.23431865769E+03  0.17215918047E+03 0.  0.
         24    2    5    5    0    0  0.15471950125E+01 -0.11760942218E+01  0.17946295149E+02  0.77214101889E+02  0.75074436468E+02 0.  0.
          5    1    5    5  501    0 -0.18091165483E+02  0.15476166046E+03  0.19526639167E+02  0.15710455581E+03  0.47000000000E+01 0. -1.
        -11    1    6    6    0    0  0.16649146239E+02  0.18738718805E+02  0.37757919586E+02  0.45321012173E+02  0.00000000000E+00 0.  1.
         12    1    6    6    0    0 -0.15101951227E+02 -0.19914813027E+02 -0.19811624437E+02  0.31893089715E+02  0.00000000000E+00 0. -1.
         -5    1    3    3    0  503  0.56293898739E+02 -0.85628830631E+02  0.22061847350E+03  0.24330207668E+03  0.47000000000E+01 0.  1.
         13    1    4    4    0    0 -0.17003598934E+02  0.88889211999E+00  0.61621494760E+02  0.63930596137E+02  0.00000000000E+00 0. -1.
        -14    1    4    4    0    0 -0.22746329334E+02 -0.68845627729E+02  0.22480308995E+02  0.75911002155E+02  0.00000000000E+00 0.  1.
</event>
<event>
12    1  0.1628146E-001  0.2230002E+03  0.7818608E-02  0.1131751E+00
         21   -1    0    0  503  502  0.00000000000E+00  0.00000000000E+00  0.10954941711E+04  0.10954941711E+04  0.00000000000E+00 0.  1.
         21   -1    0    0  501  503 -0.00000000000E+00 -0.00000000000E+00 -0.57040339219E+02  0.57040339219E+02  0.00000000000E+00 0.  1.
          6    2    1    2  501    0  0.10316352089E+03  0.98371538586E+02  0.25821296368E+03  0.34117886917E+03  0.17149173306E+03 0.  0.
         24    2    3    3    0    0  0.12025395634E+03  0.26277255785E+02  0.16797825431E+03  0.22432827494E+03  0.83396479720E+02 0.  0.
         -6    2    1    2    0  502 -0.10316352089E+03 -0.98371538586E+02  0.78024086817E+03  0.81135564112E+03  0.17088736751E+03 0.  0.
        -24    2    5    5    0    0 -0.86537272351E+02 -0.34724408778E+02  0.68917183383E+03  0.69891433070E+03  0.69490582441E+02 0.  0.
          5    1    3    3  501    0 -0.17090435444E+02  0.72094282801E+02  0.90234709371E+02  0.11685059423E+03  0.47000000000E+01 0. -1.
        -11    1    4    4    0    0  0.65563970216E+02 -0.17406176853E+02  0.40796311398E+02  0.79157742557E+02  0.00000000000E+00 0.  1.
         12    1    4    4    0    0  0.54689986119E+02  0.43683432638E+02  0.12718194291E+03  0.14517053238E+03  0.00000000000E+00 0. -1.
         -5    1    5    5    0  502 -0.16626248540E+02 -0.63647129808E+02  0.91069034345E+02  0.11244131042E+03  0.47000000000E+01 0.  1.
         13    1    6    6    0    0 -0.12190875510E+02 -0.81136573791E+01  0.18426931609E+02  0.23537219255E+02  0.00000000000E+00 0. -1.
        -14    1    6    6    0    0 -0.74346396842E+02 -0.26610751399E+02  0.67074490222E+03  0.67537711145E+03  0.00000000000E+00 0.  1.
</event>
<event>
12    1  0.1628146E-001  0.1946173E+03  0.7818608E-02  0.1154442E+00
         21   -1    0    0  503  502  0.00000000000E+00  0.00000000000E+00  0.69950412805E+03  0.69950412805E+03  0.00000000000E+00 0. -1.
         21   -1    0    0  501  503 -0.00000000000E+00 -0.00000000000E+00 -0.67774631194E+02  0.67774631194E+02  0.00000000000E+00 0. -1.
          6    2    1    2  501    0 -0.39669552186E+02  0.82386787001E+02  0.48877529090E+03  0.52609615430E+03  0.17179820294E+03 0.  0.
         24    2    3    3    0    0 -0.49435348529E+02  0.62617849982E+02  0.15433679327E+03  0.19089862993E+03  0.79104945048E+02 0.  0.
         -6    2    1    2    0  502  0.39669552186E+02 -0.82386787001E+02  0.14295420596E+03  0.24118260494E+03  0.17138228579E+03 0.  0.
        -24    2    5    5    0    0  0.83270377018E+02 -0.21428641676E+02  0.71339476162E+02  0.13741513928E+03  0.80002857889E+02 0.  0.
          5    1    3    3  501    0  0.97657963430E+01  0.19768937019E+02  0.33443849762E+03  0.33519752437E+03  0.47000000000E+01 0. -1.
        -13    1    4    4    0    0  0.56909818818E+01 -0.46733573720E+01 -0.53181797671E+01  0.90835334502E+01  0.00000000000E+00 0.  1.
         14    1    4    4    0    0 -0.55126330411E+02  0.67291207354E+02  0.15965497304E+03  0.18181509648E+03  0.00000000000E+00 0. -1.
         -5    1    5    5    0  502 -0.43600824832E+02 -0.60958145325E+02  0.71614729794E+02  0.10376746567E+03  0.47000000000E+01 0.  1.
         13    1    6    6    0    0  0.12790712160E+02  0.16380286914E+02  0.50729838103E+02  0.54821825863E+02  0.00000000000E+00 0. -1.
        -14    1    6    6    0    0  0.70479664859E+02 -0.37808928590E+02  0.20609638059E+02  0.82593313414E+02  0.00000000000E+00 0.  1.
</event>
<event>
12    1  0.1628146E-001  0.1732153E+03  0.7818608E-02  0.1174998E+00
         21   -1    0    0  501  502  0.00000000000E+00  0.00000000000E+00  0.15521371834E+04  0.15521371834E+04  0.00000000000E+00 0.  1.
         21   -1    0    0  502  503 -0.00000000000E+00 -0.00000000000E+00 -0.28078033325E+02  0.28078033325E+02  0.00000000000E+00 0.  1.
         -6    2    1    2    0  503  0.25075473164E+02  0.58247207065E+01  0.31326363295E+03  0.35709244072E+03  0.16946445282E+03 0.  0.
        -24    2    3    3    0    0 -0.50505557947E+02 -0.98154177415E+01  0.15989070327E+03  0.18532966317E+03  0.78325559368E+02 0.  0.
          6    2    1    2  501    0 -0.25075473164E+02 -0.58247207065E+01  0.12107955171E+04  0.12231227760E+04  0.17129166400E+03 0.  0.
         24    2    5    5    0    0  0.26670506647E+02 -0.82541614837E+01  0.31385263008E+03  0.32467289914E+03  0.78291576312E+02 0.  0.
          5    1    5    5  501    0 -0.51745979810E+02  0.24294407771E+01  0.89694288705E+03  0.89844987687E+03  0.47000000000E+01 0. -1.
        -13    1    6    6    0    0  0.40199659299E+02  0.33811024309E+01  0.29826012150E+03  0.30097598665E+03  0.00000000000E+00 0.  1.
         14    1    6    6    0    0 -0.13529152652E+02 -0.11635263915E+02  0.15592508580E+02  0.23696912492E+02  0.00000000000E+00 0. -1.
         -5    1    3    3    0  503  0.75581031110E+02  0.15640138448E+02  0.15337292968E+03  0.17176277755E+03  0.47000000000E+01 0.  1.
         11    1    4    4    0    0 -0.46925068397E+02  0.23601391382E+02  0.13053288062E+03  0.14070472857E+03  0.00000000000E+00 0. -1.
        -12    1    4    4    0    0 -0.35804895494E+01 -0.33416809123E+02  0.29357822650E+02  0.44624934601E+02  0.00000000000E+00 0.  1.
</event>
<event>
12    1  0.1628146E-001  0.1842581E+03  0.7818608E-02  0.1164414E+00
         21   -1    0    0  503  502  0.00000000000E+00  0.00000000000E+00  0.72618242283E+02  0.72618242283E+02  0.00000000000E+00 0.  1.
         21   -1    0    0  501  503 -0.00000000000E+00 -0.00000000000E+00 -0.12255838157E+04  0.12255838157E+04  0.00000000000E+00 0. -1.
          6    2    1    2  501    0 -0.39518371475E+02  0.38357109678E+02 -0.10876991647E+04  0.11027263746E+04  0.17286704403E+03 0.  0.
         24    2    3    3    0    0 -0.22905330407E+02  0.18484823352E+02 -0.24011624093E+03  0.25473474523E+03  0.79797483760E+02 0.  0.
         -6    2    1    2    0  502  0.39518371475E+02 -0.38357109678E+02 -0.65266408736E+02  0.19547568335E+03  0.17583534663E+03 0.  0.
        -24    2    5    5    0    0  0.95357083498E+02 -0.26202250378E+02 -0.37781217632E+02  0.13188930041E+03  0.78662798448E+02 0.  0.
          5    1    3    3  501    0 -0.16613041068E+02  0.19872286326E+02 -0.84758292372E+03  0.84799162937E+03  0.47000000000E+01 0. -1.
        -13    1    4    4    0    0  0.26605493605E+02  0.22665381923E+02 -0.86984702049E+02  0.93743854296E+02  0.00000000000E+00 0.  1.
         14    1    4    4    0    0 -0.49510824012E+02 -0.41805585703E+01 -0.15313153888E+03  0.16099089094E+03  0.00000000000E+00 0. -1.
         -5    1    5    5    0  502 -0.55838712024E+02 -0.12154859300E+02 -0.27485191104E+02  0.63586382938E+02  0.47000000000E+01 0.  1.
         13    1    6    6    0    0 -0.69673017523E+01  0.13604369723E+02 -0.11126487357E+02  0.18905578282E+02  0.00000000000E+00 0. -1.
        -14    1    6    6    0    0  0.10232438525E+03 -0.39806620101E+02 -0.26654730275E+02  0.11298372213E+03  0.00000000000E+00 0.  1.
</event>
<event>
12    1  0.1628146E-001  0.2120320E+03  0.7818608E-02  0.1139972E+00
         21   -1    0    0  503  502  0.00000000000E+00  0.00000000000E+00  0.12802538438E+03  0.12802538438E+03  0.00000000000E+00 0. -1.
         21   -1    0    0  501  503 -0.00000000000E+00 -0.00000000000E+00 -0.35202756345E+03  0.35202756345E+03  0.00000000000E+00 0. -1.
          6    2    1    2  501    0  0.75083459073E+02 -0.98465025194E+02 -0.99835631875E+02  0.23436022533E+03  0.17211820012E+03 0.  0.
         24    2    3    3    0    0  0.50436876302E+02 -0.99556928926E+01  0.32073906246E+01  0.96225108754E+02  0.81277240898E+02 0.  0.
         -6    2    1    2    0  502 -0.75083459073E+02  0.98465025194E+02 -0.12416654719E+03  0.24569272250E+03  0.17208920778E+03 0.  0.
        -24    2    5    5    0    0 -0.11816954363E+03  0.72592600305E+02 -0.81360707515E+02  0.17950946962E+03  0.79814524327E+02 0.  0.
          5    1    3    3  501    0  0.24646582771E+02 -0.88509332301E+02 -0.10304302250E+03  0.13813511658E+03  0.47000000000E+01 0. -1.
        -13    1    4    4    0    0 -0.12290137066E+02 -0.33716712614E+00 -0.24165325168E+02  0.27113171914E+02  0.00000000000E+00 0.  1.
         14    1    4    4    0    0  0.62727013367E+02 -0.96185257665E+01  0.27372715793E+02  0.69111936840E+02  0.00000000000E+00 0. -1.
         -5    1    5    5    0  502  0.43086084556E+02  0.25872424889E+02 -0.42805839678E+02  0.66183252886E+02  0.47000000000E+01 0.  1.
         13    1    6    6    0    0 -0.67559447090E+02  0.78314580660E+02 -0.75890265500E+02  0.12828400069E+03  0.00000000000E+00 0. -1.
        -14    1    6    6    0    0 -0.50610096539E+02 -0.57219803555E+01 -0.54704420158E+01  0.51225468926E+02  0.00000000000E+00 0.  1.
</event>
<event>
12    1  0.1628146E-001  0.2949029E+03  0.7818608E-02  0.1087882E+00
         21   -1    0    0  501  502  0.00000000000E+00  0.00000000000E+00  0.85065427662E+03  0.85065427662E+03  0.00000000000E+00 0. -1.
         21   -1    0    0  502  503 -0.00000000000E+00 -0.00000000000E+00 -0.92543384653E+03  0.92543384653E+03  0.00000000000E+00 0.  1.
         -6    2    1    2    0  503  0.18382876019E+03  0.15332604411E+03 -0.87503939606E+03  0.92339679309E+03  0.17223763805E+03 0.  0.
        -24    2    3    3    0    0  0.10761481619E+02  0.21786538057E+02 -0.26145637633E+03  0.27242741081E+03  0.72572685711E+02 0.  0.
          6    2    1    2  501    0 -0.18382876019E+03 -0.15332604411E+03  0.80025982615E+03  0.85269133005E+03  0.17136168220E+03 0.  0.
         24    2    5    5    0    0 -0.18152988073E+03 -0.11357137772E+03  0.76682831415E+03  0.80048525435E+03  0.83062769108E+02 0.  0.
          5    1    5    5  501    0 -0.22988794681E+01 -0.39754666382E+02  0.33431511995E+02  0.52206075702E+02  0.47000000000E+01 0. -1.
        -13    1    6    6    0    0 -0.10562606495E+03 -0.23267158497E+02  0.29725452905E+03  0.31632021956E+03  0.00000000000E+00 0.  1.
         14    1    6    6    0    0 -0.75903815781E+02 -0.90304219227E+02  0.46957378510E+03  0.48416503479E+03  0.00000000000E+00 0. -1.
         -5    1    3    3    0  503  0.17306727858E+03  0.13153950605E+03 -0.61358301973E+03  0.65096938228E+03  0.47000000000E+01 0.  1.
         11    1    4    4    0    0 -0.16440883309E+02 -0.17121435886E+02 -0.14044531826E+03  0.14243712168E+03  0.00000000000E+00 0. -1.
        -12    1    4    4    0    0  0.27202364928E+02  0.38907973943E+02 -0.12101105807E+03  0.12999028913E+03  0.00000000000E+00 0.  1.
</event>
<event>
12    1  0.1628146E-001  0.2369665E+03  0.7818608E-02  0.1121905E+00
         21   -1    0    0  503  502  0.00000000000E+00  0.00000000000E+00  0.49531715763E+03  0.49531715763E+03  0.00000000000E+00 0. -1.
         21   -1    0    0  501  503 -0.00000000000E+00 -0.00000000000E+00 -0.24523229288E+03  0.24523229288E+03  0.00000000000E+00 0.  1.
          6    2    1    2  501    0 -0.61677389563E+02 -0.15075404337E+03 -0.14674477439E+03  0.27835154807E+03  0.17150706553E+03 0.  0.
         24    2    3    3    0    0 -0.10351680995E+03 -0.14209635525E+03 -0.12391809832E+03  0.22968287434E+03  0.80569371067E+02 0.  0.
         -6    2    1    2    0  502  0.61677389563E+02  0.15075404337E+03  0.39682963914E+03  0.46219790245E+03  0.17211117496E+03 0.  0.
        -24    2    5    5    0    0 -0.17554322103E+02  0.86844210201E+02  0.12860391314E+03  0.17526714251E+03  0.79558366612E+02 0.  0.
          5    1    3    3  501    0  0.41839420391E+02 -0.86576881194E+01 -0.22826676070E+02  0.48668673730E+02  0.47000000000E+01 0. -1.
        -11    1    4    4    0    0 -0.36052490512E+02 -0.19936331910E+02  0.26522853758E+01  0.41282853824E+02  0.00000000000E+00 0.  1.
         12    1    4    4    0    0 -0.67464319442E+02 -0.12216002334E+03 -0.12657038370E+03  0.18840002052E+03  0.00000000000E+00 0. -1.
         -5    1    5    5    0  502  0.79231711666E+02  0.63909833170E+02  0.26822572600E+03  0.28693075994E+03  0.47000000000E+01 0.  1.
         13    1    6    6    0    0  0.25519677259E+02  0.65555804734E+02  0.85480229293E+02  0.11070540665E+03  0.00000000000E+00 0. -1.
        -14    1    6    6    0    0 -0.43073999361E+02  0.21288405467E+02  0.43123683850E+02  0.64561735859E+02  0.00000000000E+00 0.  1.
</event>
<event>
12    1  0.1628146E-001  0.2245028E+03  0.7818608E-02  0.1131290E+00
         21   -1    0    0  503  502  0.00000000000E+00  0.00000000000E+00  0.33188406937E+03  0.33188406937E+03  0.00000000000E+00 0.  1.
         21   -1    0    0  501  503 -0.00000000000E+00 -0.00000000000E+00 -0.21033373781E+03  0.21033373781E+03  0.00000000000E+00 0.  1.
          6    2    1    2  501    0  0.11963230190E+03 -0.74224271093E+02  0.20652835831E+03  0.30217037777E+03  0.16979942385E+03 0.  0.
         24    2    3    3    0    0  0.14694600469E+03 -0.40735668817E+02  0.18556127254E+03  0.25390824429E+03  0.82364359058E+02 0.  0.
         -6    2    1    2    0  502 -0.11963230190E+03  0.74224271093E+02 -0.84978026753E+02  0.24004742941E+03  0.17487244854E+03 0.  0.
        -24    2    5    5    0    0 -0.54368738162E+02  0.10599466392E+03 -0.85487571961E+02  0.16730789237E+03  0.80579013532E+02 0.  0.
          5    1    3    3  501    0 -0.27313702789E+02 -0.33488602276E+02  0.20967085766E+02  0.48262133480E+02  0.47000000000E+01 0. -1.
        -13    1    4    4    0    0  0.10928650872E+03 -0.38115839140E+02  0.18240286341E+03  0.21602583818E+03  0.00000000000E+00 0.  1.
         14    1    4    4    0    0  0.37659495974E+02 -0.26198296770E+01  0.31584091314E+01  0.37882406111E+02  0.00000000000E+00 0. -1.
         -5    1    5    5    0  502 -0.65263563741E+02 -0.31770392823E+02  0.50954520800E+00  0.72739537039E+02  0.47000000000E+01 0.  1.
         13    1    6    6    0    0 -0.62389157162E+02  0.11082237140E+03 -0.60915731509E+02  0.14101323087E+03  0.00000000000E+00 0. -1.
        -14    1    6    6    0    0  0.80204190002E+01 -0.48277074832E+01 -0.24571840452E+02  0.26294661505E+02  0.00000000000E+00 0.  1.
</event>
<event>
12    1  0.1628146E-001  0.1914541E+03  0.7818608E-02  0.1158032E+00
         21   -1    0    0  501  502  0.00000000000E+00  0.00000000000E+00  0.63720419480E+03  0.63720419480E+03  0.00000000000E+00 0. -1.
         21   -1    0    0  502  503 -0.00000000000E+00 -0.00000000000E+00 -0.69371959541E+02  0.69371959541E+02  0.00000000000E+00 0. -1.
         -6    2    1    2    0  503 -0.48736525235E+02  0.59819106479E+02  0.12857957691E+03  0.22741272787E+03  0.17096861351E+03 0.  0.
        -24    2    3    3    0    0 -0.92604761462E+02  0.27178240411E+02  0.56962703711E+02  0.13718570966E+03  0.79125664127E+02 0.  0.
          6    2    1    2  501    0  0.48736525235E+02 -0.59819106479E+02  0.43925265834E+03  0.47916342647E+03  0.17521734222E+03 0.  0.
         24    2    5    5    0    0  0.65957633960E+02 -0.11220984102E+02  0.14130763801E+03  0.17675365608E+03  0.82448083160E+02 0.  0.
          5    1    5    5  501    0 -0.17221108725E+02 -0.48598122377E+02  0.29794502034E+03  0.30240977039E+03  0.47000000000E+01 0. -1.
        -11    1    6    6    0    0 -0.79748682451E+01  0.84982542840E+00 -0.69711294074E+01  0.10626258608E+02  0.00000000000E+00 0.  1.
         12    1    6    6    0    0  0.73932502205E+02 -0.12070809530E+02  0.14827876742E+03  0.16612739747E+03  0.00000000000E+00 0. -1.
         -5    1    3    3    0  503  0.43868236226E+02  0.32640866069E+02  0.71616873201E+02  0.90227018206E+02  0.47000000000E+01 0.  1.
         11    1    4    4    0    0 -0.64343790781E+02  0.42873342020E+02  0.69444980565E+01  0.77630360821E+02  0.00000000000E+00 0. -1.
        -12    1    4    4    0    0 -0.28260970681E+02 -0.15695101609E+02  0.50018205654E+02  0.59555348838E+02  0.00000000000E+00 0.  1.
</event>
<event>
12    1  0.1628146E-001  0.2491518E+03  0.7818608E-02  0.1113879E+00
         21   -1    0    0  503  502  0.00000000000E+00  0.00000000000E+00  0.86525824588E+02  0.86525824588E+02  0.00000000000E+00 0.  1.
         21   -1    0    0  501  503 -0.00000000000E+00 -0.00000000000E+00 -0.10164576588E+04  0.10164576588E+04  0.00000000000E+00 0.  1.
          6    2    1    2  501    0 -0.17979287250E+03 -0.30014703260E+01 -0.76457722578E+03  0.80414859701E+03  0.17245911417E+03 0.  0.
         24    2    3    3    0    0 -0.12838720652E+03 -0.68138204919E+02 -0.49487273569E+03  0.52192893315E+03  0.79904298820E+02 0.  0.
         -6    2    1    2    0  502  0.17979287250E+03  0.30014703260E+01 -0.16535460840E+03  0.29883488635E+03  0.17212105320E+03 0.  0.
        -24    2    5    5    0    0  0.76884270184E+02  0.38840692824E+02 -0.14712297462E+03  0.18824956738E+03  0.79830692969E+02 0.  0.
          5    1    3    3  501    0 -0.51405665987E+02  0.65136734593E+02 -0.26970449009E+03  0.28221966385E+03  0.47000000000E+01 0. -1.
        -11    1    4    4    0    0 -0.98320892405E+02 -0.46751176814E+02 -0.22961728771E+03  0.25411959631E+03  0.00000000000E+00 0.  1.
         12    1    4    4    0    0 -0.30066314111E+02 -0.21387028105E+02 -0.26525544798E+03  0.26780933684E+03  0.00000000000E+00 0. -1.
         -5    1    5    5    0  502  0.10290860232E+03 -0.35839222498E+02 -0.18231633786E+02  0.11058531897E+03  0.47000000000E+01 0.  1.
         11    1    6    6    0    0 -0.14338968316E+02  0.13309170253E+02 -0.44381400860E+02  0.48502049106E+02  0.00000000000E+00 0. -1.
        -12    1    6    6    0    0  0.91223238500E+02  0.25531522571E+02 -0.10274157376E+03  0.13974751828E+03  0.00000000000E+00 0.  1.
</event>
<event>
12    1  0.1628146E-001  0.2028512E+03  0.7818608E-02  0.1147414E+00
         21   -1    0    0  503  502  0.00000000000E+00  0.00000000000E+00  0.69755334423E+02  0.69755334423E+02  0.00000000000E+00 0. -1.
         21   -1    0    0  501  503 -0.00000000000E+00 -0.00000000000E+00 -0.60854103729E+03  0.60854103729E+03  0.00000000000E+00 0.  1.
          6    2    1    2  501    0  0.52399634145E+02  0.90664060543E+02 -0.20891869450E+03  0.29119688612E+03  0.17373229994E+03 0.  0.
         24    2    3    3    0    0 -0.87219251895E+01  0.16955555155E+02 -0.29199766704E+02  0.87506503948E+02  0.80257080859E+02 0.  0.
         -6    2    1    2    0  502 -0.52399634145E+02 -0.90664060543E+02 -0.32986700837E+03  0.38709948560E+03  0.17340148501E+03 0.  0.
        -24    2    5    5    0    0  0.12127958959E+02 -0.73339765068E+02 -0.95453868269E+02  0.14330540909E+03  0.76806189717E+02 0.  0.
          5    1    3    3  501    0  0.61121559334E+02  0.73708505388E+02 -0.17971892779E+03  0.20369038217E+03  0.47000000000E+01 0. -1.
        -11    1    4    4    0    0 -0.34887429178E+02  0.71861649411E+01 -0.43423175258E+02  0.56163563195E+02  0.00000000000E+00 0.  1.
         12    1    4    4    0    0  0.26165503989E+02  0.97693902136E+01  0.14223408554E+02  0.31342940753E+02  0.00000000000E+00 0. -1.
         -5    1    5    5    0  502 -0.64527593104E+02 -0.17324295475E+02 -0.23441314010E+03  0.24379407650E+03  0.47000000000E+01 0.  1.
         11    1    6    6    0    0 -0.26831705513E+02 -0.57195218629E+02 -0.45090230256E+02  0.77616765710E+02  0.00000000000E+00 0. -1.
        -12    1    6    6    0    0  0.38959664471E+02 -0.16144546438E+02 -0.50363638013E+02  0.65688643382E+02  0.00000000000E+00 0.  1.
</event>
<event>
12    1  0.1628146E-001  0.1906904E+03  0.7818608E-02  0.1157841E+00
         21   -1    0    0  503  502  0.00000000000E+00  0.00000000000E+00  0.17796106415E+03  0.17796106415E+03  0.00000000000E+00 0.  1.
         21   -1    0    0  501  503 -0.00000000000E+00 -0.00000000000E+00 -0.33061662266E+03  0.33061662266E+03  0.00000000000E+00 0.  1.
          6    2    1    2  501    0  0.19269408880E+02 -0.79451318958E+02 -0.23349185555E+03  0.30146521534E+03  0.17227596248E+03 0.  0.
         24    2    3    3    0    0  0.53288544873E+02 -0.74436272785E+02 -0.83050599540E+02  0.14707248944E+03  0.79702492713E+02 0.  0.
         -6    2    1    2    0  502 -0.19269408880E+02  0.79451318958E+02  0.80836297049E+02  0.20711247146E+03  0.17227085277E+03 0.  0.
        -24    2    5    5    0    0 -0.77750204761E+01  0.99930776763E+02  0.29200352880E+01  0.12559828249E+03  0.75629299029E+02 0.  0.
          5    1    3    3  501    0 -0.34019135993E+02 -0.50150461732E+01 -0.15044125601E+03  0.15439272591E+03  0.47000000000E+01 0. -1.
        -13    1    4    4    0    0  0.55213751497E+02 -0.34387478168E+02 -0.84877659924E+02  0.10693584134E+03  0.00000000000E+00 0.  1.
         14    1    4    4    0    0 -0.19252066241E+01 -0.40048794617E+02  0.18270603840E+01  0.40136648097E+02  0.00000000000E+00 0. -1.
         -5    1    5    5    0  502 -0.11494388404E+02 -0.20479457804E+02  0.77916261761E+02  0.81514188971E+02  0.47000000000E+01 0.  1.
         11    1    6    6    0    0 -0.90432131936E+01 -0.11037116175E+02  0.31981992776E+01  0.14622794430E+02  0.00000000000E+00 0. -1.
        -12    1    6    6    0    0  0.12681927175E+01  0.11096789294E+03 -0.27816398960E+00  0.11097548806E+03  0.00000000000E+00 0.  1.
</event>
<event>
12    1  0.1628146E-001  0.2733537E+03  0.7818608E-02  0.1099427E+00
         21   -1    0    0  503  502  0.00000000000E+00  0.00000000000E+00  0.14026466650E+03  0.14026466650E+03  0.00000000000E+00 0. -1.
         21   -1    0    0  501  503 -0.00000000000E+00 -0.00000000000E+00 -0.12971198860E+04  0.12971198860E+04  0.00000000000E+00 0.  1.
          6    2    1    2  501    0 -0.20499374844E+03  0.53140783205E+02 -0.11302380320E+04  0.11627380108E+04  0.17226518181E+03 0.  0.
         24    2    3    3    0    0 -0.39217011109E+02  0.59350833988E+02 -0.36997498535E+03  0.38457190926E+03  0.77159368510E+02 0.  0.
         -6    2    1    2    0  502  0.20499374844E+03 -0.53140783205E+02 -0.26617187458E+02  0.27464654173E+03  0.17284637247E+03 0.  0.
        -24    2    5    5    0    0  0.14011838524E+03 -0.10085577805E+03 -0.36216309280E+02  0.19340759403E+03  0.79308426544E+02 0.  0.
          5    1    3    3  501    0 -0.16577673733E+03 -0.62100507829E+01 -0.76026304669E+03  0.77816610151E+03  0.47000000000E+01 0. -1.
        -13    1    4    4    0    0 -0.40842717826E+02  0.97478382654E+01 -0.26676445628E+03  0.27004892721E+03  0.00000000000E+00 0.  1.
         14    1    4    4    0    0  0.16257067174E+01  0.49602995722E+02 -0.10321052907E+03  0.11452298205E+03  0.00000000000E+00 0. -1.
         -5    1    5    5    0  502  0.64875363203E+02  0.47714994847E+02  0.95991218222E+01  0.81238947702E+02  0.47000000000E+01 0.  1.
         11    1    6    6    0    0  0.10668568447E+03 -0.58126548094E+02 -0.58391373185E+02  0.13479645146E+03  0.00000000000E+00 0. -1.
        -12    1    6    6    0    0  0.33432700765E+02 -0.42729229958E+02  0.22175063905E+02  0.58611142562E+02  0.00000000000E+00 0.  1.
</event>
<event>
12    1  0.1628146E-001  0.1788211E+03  0.7818608E-02  0.1169209E+00
         21   -1    0    0  503  502  0.00000000000E+00  0.00000000000E+00  0.45042193891E+03  0.45042193891E+03  0.00000000000E+00 0. -1.
         21   -1    0    0  501  503 -0.00000000000E+00 -0.00000000000E+00 -0.71462051456E+02  0.71462051456E+02  0.00000000000E+00 0. -1.
          6    2    1    2  501    0  0.61465156196E+01 -0.36409434713E+02  0.15980313914E+03  0.23902952034E+03  0.17388111376E+03 0.  0.
         24    2    3    3    0    0  0.42801224268E+02  0.80222196606E+00  0.16281612298E+03  0.18649911837E+03  0.80251123932E+02 0.  0.
         -6    2    1    2    0  502 -0.61465156196E+01  0.36409434713E+02  0.21915674831E+03  0.28285447002E+03  0.17496726634E+03 0.  0.
        -24    2    5    5    0    0  0.59717737165E+01  0.91379990102E+02  0.11699371177E+03  0.16611548369E+03  0.74302494265E+02 0.  0.
          5    1    3    3  501    0 -0.36654708649E+02 -0.37211656680E+02 -0.30129838425E+01  0.52530401965E+02  0.47000000000E+01 0. -1.
        -11    1    4    4    0    0  0.51316894234E+02 -0.11258582253E+02  0.16348552369E+03  0.17171981762E+03  0.00000000000E+00 0.  1.
         12    1    4    4    0    0 -0.85156699654E+01  0.12060804219E+02 -0.66940070835E+00  0.14779300751E+02  0.00000000000E+00 0. -1.
         -5    1    5    5    0  502 -0.12118289336E+02 -0.54970555389E+02  0.10216303654E+03  0.11673898634E+03  0.47000000000E+01 0.  1.
         11    1    6    6    0    0  0.27398647930E+02  0.37322071992E+02  0.14926360267E+02  0.48645854880E+02  0.00000000000E+00 0. -1.
        -12    1    6    6    0    0 -0.21426874213E+02  0.54057918110E+02  0.10206735150E+03  0.11746962881E+03  0.00000000000E+00 0.  1.
</event>
<event>
12    1  0.1628146E-001  0.1977429E+03  0.7818608E-02  0.1152229E+00
         21   -1    0    0  501  502  0.00000000000E+00  0.00000000000E+00  0.94017648749E+02  0.94017648749E+02  0.00000000000E+00 0.  1.
         21   -1    0    0  502  503 -0.00000000000E+00 -0.00000000000E+00 -0.42014976342E+03  0.42014976342E+03  0.00000000000E+00 0. -1.
         -6    2    1    2    0  503  0.58456815936E+02 -0.80104073880E+02 -0.12486785114E+03  0.23386801776E+03  0.17108012012E+03 0.  0.
        -24    2    3    3    0    0  0.24151722185E+02 -0.10104247044E+03 -0.13873552083E+03  0.19109351402E+03  0.80475461137E+02 0.  0.
          6    2    1    2  501    0 -0.58456815936E+02  0.80104073880E+02 -0.20126426353E+03  0.28029939440E+03  0.16800769253E+03 0.  0.
         24    2    5    5    0    0 -0.24359511457E+01  0.99352836756E+02 -0.17167392356E+03  0.21391769223E+03  0.80074484004E+02 0.  0.
          5    1    5    5  501    0 -0.56020864791E+02 -0.19248762875E+02 -0.29590339968E+02  0.66381702174E+02  0.47000000000E+01 0. -1.
        -11    1    6    6    0    0  0.51532187141E+01  0.59538107359E+02 -0.30605388038E+02  0.67141877155E+02  0.00000000000E+00 0.  1.
         12    1    6    6    0    0 -0.75891698598E+01  0.39814729397E+02 -0.14106853552E+03  0.14677581507E+03  0.00000000000E+00 0. -1.
         -5    1    3    3    0  503  0.34305093752E+02  0.20938396556E+02  0.13867669689E+02  0.42774503740E+02  0.47000000000E+01 0.  1.
         11    1    4    4    0    0 -0.16974790808E+02 -0.17775297726E+02 -0.73768626638E+02  0.77755482175E+02  0.00000000000E+00 0. -1.
        -12    1    4    4    0    0  0.41126512993E+02 -0.83267172710E+02 -0.64966894190E+02  0.11333803185E+03  0.00000000000E+00 0.  1.
</event>
<event>
12    1  0.1628146E-001  0.2167620E+03  0.7818608E-02  0.1136343E+00
         21   -1    0    0  501  502  0.00000000000E+00  0.00000000000E+00  0.26891346741E+03  0.26891346741E+03  0.00000000000E+00 0. -1.
         21   -1    0    0  502  503 -0.00000000000E+00 -0.00000000000E+00 -0.18415025394E+03  0.18415025394E+03  0.00000000000E+00 0. -1.
         -6    2    1    2    0  503 -0.97125833289E+02  0.88578659267E+02 -0.91166719551E+01  0.21695365397E+03  0.17235477334E+03 0.  0.
        -24    2    3    3    0    0 -0.14010089861E+02 -0.98032825456E+01 -0.28223768760E+02  0.86667797373E+02  0.80139497203E+02 0.  0.
          6    2    1    2  501    0  0.97125833289E+02 -0.88578659267E+02  0.93879885426E+02  0.23611006739E+03  0.17220605292E+03 0.  0.
         24    2    5    5    0    0  0.14050074052E+02  0.77640494737E+01  0.74773991533E+02  0.10738312972E+03  0.75381043326E+02 0.  0.
          5    1    5    5  501    0  0.83075759237E+02 -0.96342708740E+02  0.19105893894E+02  0.12872693767E+03  0.47000000000E+01 0. -1.
        -13    1    6    6    0    0 -0.91652557734E+01 -0.23803035597E+01 -0.12967663250E+02  0.16057024898E+02  0.00000000000E+00 0.  1.
         14    1    6    6    0    0  0.23215329825E+02  0.10144353033E+02  0.87741654782E+02  0.91326104818E+02  0.00000000000E+00 0. -1.
         -5    1    3    3    0  503 -0.83115743428E+02  0.98381941812E+02  0.19107096805E+02  0.13028585660E+03  0.47000000000E+01 0.  1.
         13    1    4    4    0    0 -0.21071967261E+02  0.32501234613E+02 -0.17214620499E+02  0.42387512484E+02  0.00000000000E+00 0. -1.
        -14    1    4    4    0    0  0.70618774003E+01 -0.42304517159E+02 -0.11009148261E+02  0.44280284889E+02  0.00000000000E+00 0.  1.
</event>
<event>
12    1  0.1628146E-001  0.2983389E+03  0.7818608E-02  0.1086198E+00
         21   -1    0    0  501  502  0.00000000000E+00  0.00000000000E+00  0.25765603702E+03  0.25765603702E+03  0.00000000000E+00 0. -1.
         21   -1    0    0  502  503 -0.00000000000E+00 -0.00000000000E+00 -0.38855324720E+03  0.38855324720E+03  0.00000000000E+00 0. -1.
         -6    2    1    2    0  503 -0.17935096518E+03  0.16443874375E+03 -0.17457622542E+03  0.34566306593E+03  0.17262452754E+03 0.  0.
        -24    2    3    3    0    0 -0.69503998663E+02  0.75311117893E+02 -0.12652076734E+02  0.13060119188E+03  0.79962653566E+02 0.  0.
          6    2    1    2  501    0  0.17935096518E+03 -0.16443874375E+03  0.43679015232E+02  0.30054621829E+03  0.17091899777E+03 0.  0.
         24    2    5    5    0    0  0.16399270527E+03 -0.95565362180E+02 -0.18074851091E+02  0.20665772676E+03  0.79714302083E+02 0.  0.
          5    1    5    5  501    0  0.15358259914E+02 -0.68873381571E+02  0.61753866323E+02  0.93888491534E+02  0.47000000000E+01 0. -1.
        -13    1    6    6    0    0  0.14661563589E+03 -0.70028022730E+02  0.12799801752E+02  0.16298436606E+03  0.00000000000E+00 0.  1.
         14    1    6    6    0    0  0.17377069376E+02 -0.25537339450E+02 -0.30874652843E+02  0.43673360696E+02  0.00000000000E+00 0. -1.
         -5    1    3    3    0  503 -0.10984696652E+03  0.89127625858E+02 -0.16192414868E+03  0.21506187405E+03  0.47000000000E+01 0.  1.
         13    1    4    4    0    0 -0.54428588144E+01  0.67005440232E+01  0.27264401046E+02  0.28598418954E+02  0.00000000000E+00 0. -1.
        -14    1    4    4    0    0 -0.64061139848E+02  0.68610573870E+02 -0.39916477780E+02  0.10200277292E+03  0.00000000000E+00 0.  1.
</event>
<event>
12    1  0.1628146E-001  0.2540137E+03  0.7818608E-02  0.1110871E+00
         21   -1    0    0  503  502  0.00000000000E+00  0.00000000000E+00  0.46947852598E+02  0.46947852598E+02  0.00000000000E+00 0. -1.
         21   -1    0    0  501  503 -0.00000000000E+00 -0.00000000000E+00 -0.13996274755E+04  0.13996274755E+04  0.00000000000E+00 0. -1.
          6    2    1    2  501    0 -0.18651892170E+03  0.50500069148E+01 -0.77920196039E+03  0.81956002229E+03  0.17236044889E+03 0.  0.
         24    2    3    3    0    0 -0.17950792271E+03 -0.11815597843E+02 -0.47570585772E+03  0.51547849199E+03  0.84019699914E+02 0.  0.
         -6    2    1    2    0  502  0.18651892170E+03 -0.50500069148E+01 -0.57347766251E+03  0.62701530581E+03  0.17162969905E+03 0.  0.
        -24    2    5    5    0    0  0.18732105131E+03  0.59418723700E+01 -0.36515345943E+03  0.41834684051E+03  0.80947809808E+02 0.  0.
          5    1    3    3  501    0 -0.70109989856E+01  0.16865604758E+02 -0.30349610268E+03  0.30408153030E+03  0.47000000000E+01 0. -1.
        -11    1    4    4    0    0 -0.11492634862E+01 -0.17550948999E+02 -0.71532795935E+02  0.73663406870E+02  0.00000000000E+00 0.  1.
         12    1    4    4    0    0 -0.17835865922E+03  0.57353511565E+01 -0.40417306178E+03  0.44181508512E+03  0.00000000000E+00 0. -1.
         -5    1    5    5    0  502 -0.80212961913E+00 -0.10991879285E+02 -0.20832420308E+03  0.20866846530E+03  0.47000000000E+01 0.  1.
         13    1    6    6    0    0  0.16382917155E+03  0.34081430110E+02 -0.30564658869E+03  0.34845570523E+03  0.00000000000E+00 0. -1.
        -14    1    6    6    0    0  0.23491879765E+02 -0.28139557740E+02 -0.59506870744E+02  0.69891135278E+02  0.00000000000E+00 0.  1.
</event>
<event>
12    1  0.1628146E-001  0.1782559E+03  0.7818608E-02  0.1169516E+00
         21   -1    0    0  503  502  0.00000000000E+00  0.00000000000E+00  0.34094536460E+03  0.34094536460E+03  0.00000000000E+00 0.  1.
         21   -1    0    0  501  503 -0.00000000000E+00 -0.00000000000E+00 -0.10339632719E+03  0.10339632719E+03  0.00000000000E+00 0.  1.
          6    2    1    2  501    0 -0.31965366944E+02 -0.37325475724E+02  0.48910331361E+02  0.18484423698E+03  0.17134817072E+03 0.  0.
         24    2    3    3    0    0  0.24600713172E+02 -0.47001070419E+02 -0.16707064507E+02  0.97545490185E+02  0.80135516108E+02 0.  0.
         -6    2    1    2    0  502  0.31965366944E+02  0.37325475724E+02  0.18863870605E+03  0.25949745481E+03  0.17128745375E+03 0.  0.
        -24    2    5    5    0    0  0.79979720762E+02  0.17533934890E+02  0.16782845325E+03  0.20335264310E+03  0.80509087228E+02 0.  0.
          5    1    3    3  501    0 -0.56566080116E+02  0.96755946948E+01  0.65617395867E+02  0.87298746800E+02  0.47000000000E+01 0. -1.
        -11    1    4    4    0    0  0.40128596719E+02 -0.49025108556E+01  0.14434715747E+02  0.42926680585E+02  0.00000000000E+00 0.  1.
         12    1    4    4    0    0 -0.15527883547E+02 -0.42098559563E+02 -0.31141780254E+02  0.54618809600E+02  0.00000000000E+00 0. -1.
         -5    1    5    5    0  502 -0.48014353818E+02  0.19791540834E+02  0.20810252794E+02  0.56144811715E+02  0.47000000000E+01 0.  1.
         11    1    6    6    0    0  0.49641260135E+02  0.38497645843E+02  0.51227179111E+02  0.81058912667E+02  0.00000000000E+00 0. -1.
        -12    1    6    6    0    0  0.30338460627E+02 -0.20963710953E+02  0.11660127414E+03  0.12229373043E+03  0.00000000000E+00 0.  1.
</event>
<event>
12    1  0.1628146E-001  0.1980914E+03  0.7818608E-02  0.1151783E+00
         21   -1    0    0  501  502  0.00000000000E+00  0.00000000000E+00  0.22990928313E+03  0.22990928313E+03  0.00000000000E+00 0.  1.
         21   -1    0    0  502  503 -0.00000000000E+00 -0.00000000000E+00 -0.17080904809E+03  0.17080904809E+03  0.00000000000E+00 0.  1.
         -6    2    1    2    0  503 -0.79876042989E+02 -0.54512924907E+02  0.89611194910E+01  0.19829401295E+03  0.17288254013E+03 0.  0.
        -24    2    3    3    0    0 -0.40460204129E+00 -0.66995818818E+02  0.40984952250E+02  0.11158098953E+03  0.79258737503E+02 0.  0.
          6    2    1    2  501    0  0.79876042989E+02  0.54512924907E+02  0.50139115555E+02  0.20242431827E+03  0.17061603821E+03 0.  0.
         24    2    5    5    0    0  0.93844435714E+02  0.17930012049E+00  0.48769983584E+01  0.13018853745E+03  0.90102496677E+02 0.  0.
          5    1    5    5  501    0 -0.13968392724E+02  0.54333624786E+02  0.45262117196E+02  0.72235780821E+02  0.47000000000E+01 0. -1.
        -11    1    6    6    0    0  0.58702675394E+02  0.41197692386E+02 -0.13809687839E+02  0.73033974523E+02  0.00000000000E+00 0.  1.
         12    1    6    6    0    0  0.35141760319E+02 -0.41018392265E+02  0.18686686197E+02  0.57154562927E+02  0.00000000000E+00 0. -1.
         -5    1    3    3    0  503 -0.79471440948E+02  0.12482893911E+02 -0.32023832759E+02  0.86713023424E+02  0.47000000000E+01 0.  1.
         11    1    4    4    0    0  0.91914237349E+01 -0.18261825081E+02 -0.22874372465E+02  0.30679202096E+02  0.00000000000E+00 0. -1.
        -12    1    4    4    0    0 -0.95960257762E+01 -0.48733993737E+02  0.63859324715E+02  0.80901787430E+02  0.00000000000E+00 0.  1.
</event>
<event>
12    1  0.1628146E-001  0.2193599E+03  0.7818608E-02  0.1134441E+00
         21   -1    0    0  501  502  0.00000000000E+00  0.00000000000E+00  0.15146648940E+04  0.15146648940E+04  0.00000000000E+00 0.  1.
         21   -1    0    0  502  503 -0.00000000000E+00 -0.00000000000E+00 -0.77675768350E+02  0.77675768350E+02  0.00000000000E+00 0.  1.
         -6    2    1    2    0  503  0.78757052593E+02 -0.11170346352E+03  0.10572690055E+03  0.24312685806E+03  0.17103261243E+03 0.  0.
        -24    2    3    3    0    0 -0.13901140734E+02 -0.11341904233E+02  0.39288946699E+02  0.91159509313E+02  0.80277981415E+02 0.  0.
          6    2    1    2  501    0 -0.78757052593E+02  0.11170346352E+03  0.13312622251E+04  0.13492138042E+04  0.17157634050E+03 0.  0.
         24    2    5    5    0    0 -0.32152183061E+02  0.10451591531E+03  0.12300178823E+04  0.12374274828E+04  0.79532666862E+02 0.  0.
          5    1    5    5  501    0 -0.46604869532E+02  0.71875482099E+01  0.10124434280E+03  0.11178632144E+03  0.47000000000E+01 0. -1.
        -11    1    6    6    0    0 -0.10426206193E+01  0.99438596719E+02  0.78118832205E+03  0.78749242288E+03  0.00000000000E+00 0.  1.
         12    1    6    6    0    0 -0.31109562442E+02  0.50773185886E+01  0.44882956020E+03  0.44993505993E+03  0.00000000000E+00 0. -1.
         -5    1    3    3    0  503  0.92658193327E+02 -0.10036155928E+03  0.66437953852E+02  0.15196734875E+03  0.47000000000E+01 0.  1.
         13    1    4    4    0    0 -0.10221419970E+01 -0.23438489924E+02  0.59711104748E+02  0.64154685054E+02  0.00000000000E+00 0. -1.
        -14    1    4    4    0    0 -0.12878998737E+02  0.12096585691E+02 -0.20422158049E+02  0.27004824258E+02  0.00000000000E+00 0.  1.
</event>
<event>
12    1  0.1628146E-001  0.1843782E+03  0.7818608E-02  0.1165270E+00
         21   -1    0    0  501  502  0.00000000000E+00  0.00000000000E+00  0.49817068071E+02  0.49817068071E+02  0.00000000000E+00 0.  1.
         21   -1    0    0  502  503 -0.00000000000E+00 -0.00000000000E+00 -0.71822148547E+03  0.71822148547E+03  0.00000000000E+00 0.  1.
         -6    2    1    2    0  503  0.46326154138E+02  0.50726399489E+02 -0.45181557602E+03  0.48798835776E+03  0.17110243249E+03 0.  0.
        -24    2    3    3    0    0  0.20836327922E+02  0.52796322555E+02 -0.11621303573E+03  0.15138002322E+03  0.78669164999E+02 0.  0.
          6    2    1    2  501    0 -0.46326154138E+02 -0.50726399489E+02 -0.21658884137E+03  0.28005019579E+03  0.16370126997E+03 0.  0.
         24    2    5    5    0    0 -0.79925272996E+02  0.43859789603E+01 -0.14347472506E+03  0.18240779183E+03  0.79248468209E+02 0.  0.
          5    1    5    5  501    0  0.33599118858E+02 -0.55112378450E+02 -0.73114116312E+02  0.97642403957E+02  0.47000000000E+01 0. -1.
        -11    1    6    6    0    0  0.49321890809E+01 -0.18486216869E+02 -0.75994433205E+01  0.20586846335E+02  0.00000000000E+00 0.  1.
         12    1    6    6    0    0 -0.84857462076E+02  0.22872195829E+02 -0.13587528174E+03  0.16182094549E+03  0.00000000000E+00 0. -1.
         -5    1    3    3    0  503  0.25489826216E+02 -0.20699230660E+01 -0.33560254030E+03  0.33660833453E+03  0.47000000000E+01 0.  1.
         11    1    4    4    0    0 -0.15492450450E+02  0.55196317487E+02 -0.89244121561E+02  0.10607149814E+03  0.00000000000E+00 0. -1.
        -12    1    4    4    0    0  0.36328778372E+02 -0.23999949320E+01 -0.26968914167E+02  0.45308525081E+02  0.00000000000E+00 0.  1.
</event>
<event>
12    1  0.1628146E-001  0.1994951E+03  0.7818608E-02  0.1150189E+00
         21   -1    0    0  503  502  0.00000000000E+00  0.00000000000E+00  0.15318722827E+03  0.15318722827E+03  0.00000000000E+00 0. -1.
         21   -1    0    0  501  503 -0.00000000000E+00 -0.00000000000E+00 -0.37168493485E+03  0.37168493485E+03  0.00000000000E+00 0. -1.
          6    2    1    2  501    0 -0.20989748037E+01 -0.10108814837E+03 -0.25334632209E+03  0.32246341303E+03  0.17197405151E+03 0.  0.
         24    2    3    3    0    0  0.62237938763E+02 -0.35560432701E+02 -0.13976184868E+03  0.17632429244E+03  0.80117266314E+02 0.  0.
         -6    2    1    2    0  502  0.20989748037E+01  0.10108814837E+03  0.34848615505E+02  0.20240875008E+03  0.17184777180E+03 0.  0.
        -24    2    5    5    0    0  0.13633113391E+02  0.13895111618E+03  0.19558473952E+02  0.15971777783E+03  0.75059710787E+02 0.  0.
          5    1    3    3  501    0 -0.64336913567E+02 -0.65527715674E+02 -0.11358447341E+03  0.14613912059E+03  0.47000000000E+01 0. -1.
        -11    1    4    4    0    0  0.13830972856E+02 -0.48452444474E+02 -0.38721412188E+02  0.63547485768E+02  0.00000000000E+00 0.  1.
         12    1    4    4    0    0  0.48406965907E+02  0.12892011773E+02 -0.10104043649E+03  0.11277680667E+03  0.00000000000E+00 0. -1.
         -5    1    5    5    0  502 -0.11534138587E+02 -0.37862967801E+02  0.15290141553E+02  0.42690972258E+02  0.47000000000E+01 0.  1.
         13    1    6    6    0    0 -0.51504741320E+01  0.14406425678E+01  0.20233818866E+02  0.20928694672E+02  0.00000000000E+00 0. -1.
        -14    1    6    6    0    0  0.18783587523E+02  0.13751047361E+03 -0.67534491360E+00  0.13878908315E+03  0.00000000000E+00 0.  1.
</event>
<event>
12    1  0.1628146E-001  0.2607774E+03  0.7818608E-02  0.1106990E+00
         21   -1    0    0  503  502  0.00000000000E+00  0.00000000000E+00  0.26170914107E+03  0.26170914107E+03  0.00000000000E+00 0.  1.
         21   -1    0    0  501  503 -0.00000000000E+00 -0.00000000000E+00 -0.36053530018E+03  0.36053530018E+03  0.00000000000E+00 0.  1.
          6    2    1    2  501    0 -0.19382074306E+03  0.85258976226E+01 -0.21565045640E+03  0.33839324210E+03  0.17425755531E+03 0.  0.
         24    2    3    3    0    0 -0.21042601271E+03 -0.13015691712E+02 -0.16073659688E+03  0.27693270990E+03  0.80043470556E+02 0.  0.
         -6    2    1    2    0  502  0.19382074306E+03 -0.85258976226E+01  0.11682429729E+03  0.28385119915E+03  0.17112689868E+03 0.  0.
        -24    2    5    5    0    0  0.17631183751E+02 -0.43906295507E+01  0.30095885894E+02  0.87372781519E+02  0.79988151211E+02 0.  0.
          5    1    3    3  501    0  0.16605269651E+02  0.21541589335E+02 -0.54913859518E+02  0.61460532201E+02  0.47000000000E+01 0. -1.
        -11    1    4    4    0    0 -0.96442717285E+02 -0.20471526039E+02 -0.12079914662E+03  0.15592535048E+03  0.00000000000E+00 0.  1.
         12    1    4    4    0    0 -0.11398329542E+03  0.74558343264E+01 -0.39937450257E+02  0.12100735942E+03  0.00000000000E+00 0. -1.
         -5    1    5    5    0  502  0.17618955931E+03 -0.41352680719E+01  0.86728411397E+02  0.19647841763E+03  0.47000000000E+01 0.  1.
         11    1    6    6    0    0 -0.18558590550E+01  0.24657037897E+02 -0.16041796866E+02  0.29474615814E+02  0.00000000000E+00 0. -1.
        -12    1    6    6    0    0  0.19487042806E+02 -0.29047667448E+02  0.46137682760E+02  0.57898165705E+02  0.00000000000E+00 0.  1.
</event>
<event>
12    1  0.1628146E-001  0.1870803E+03  0.7818608E-02  0.1161931E+00
         21   -1    0    0  501  502  0.00000000000E+00  0.00000000000E+00  0.33732629926E+03  0.33732629926E+03  0.00000000000E+00 0. -1.
         21   -1    0    0  502  503 -0.00000000000E+00 -0.00000000000E+00 -0.19613942826E+03  0.19613942826E+03  0.00000000000E+00 0. -1.
         -6    2    1    2    0  503  0.41097246175E+02  0.51216616730E+02 -0.11470289699E+03  0.21648210677E+03  0.17145151648E+03 0.  0.
        -24    2    3    3    0    0  0.32758439543E+02  0.16250228467E+02 -0.14884915365E+03  0.16668009026E+03  0.65490431813E+02 0.  0.
          6    2    1    2  501    0 -0.41097246175E+02 -0.51216616730E+02  0.25588976798E+03  0.31698362074E+03  0.17517681636E+03 0.  0.
         24    2    5    5    0    0 -0.32434011069E+02 -0.18474987303E+02  0.35765883632E+02  0.94219888504E+02  0.78771179551E+02 0.  0.
          5    1    5    5  501    0 -0.86632351064E+01 -0.32741629428E+02  0.22012388435E+03  0.22276373224E+03  0.47000000000E+01 0. -1.
        -11    1    6    6    0    0  0.51250644917E+01 -0.18918536904E+02 -0.19336302559E+02  0.27533069594E+02  0.00000000000E+00 0.  1.
         12    1    6    6    0    0 -0.37559075561E+02  0.44354960126E+00  0.55102186191E+02  0.66686818910E+02  0.00000000000E+00 0. -1.
         -5    1    3    3    0  503  0.83388066327E+01  0.34966388263E+02  0.34146256666E+02  0.49802016511E+02  0.47000000000E+01 0.  1.
         11    1    4    4    0    0  0.48636109451E+02  0.15795893121E+02 -0.72647598033E+02  0.88840615047E+02  0.00000000000E+00 0. -1.
        -12    1    4    4    0    0 -0.15877669908E+02  0.45433534611E+00 -0.76201555619E+02  0.77839475211E+02  0.00000000000E+00 0.  1.
</event>
<event>
12    1  0.1628146E-001  0.1823766E+03  0.7818608E-02  0.1165923E+00
         21   -1    0    0  501  502  0.00000000000E+00  0.00000000000E+00  0.10765506275E+04  0.10765506275E+04  0.00000000000E+00 0. -1.
         21   -1    0    0  502  503 -0.00000000000E+00 -0.00000000000E+00 -0.11994959528E+03  0.11994959528E+03  0.00000000000E+00 0. -1.
         -6    2    1    2    0  503 -0.11044901522E+02  0.53973071639E+02 -0.38557040222E+02  0.18476863665E+03  0.17209799949E+03 0.  0.
        -24    2    3    3    0    0 -0.45131932889E+02  0.23669457541E+02 -0.77987719369E+02  0.12429464891E+03  0.82279649912E+02 0.  0.
          6    2    1    2  501    0  0.11044901522E+02 -0.53973071639E+02  0.99515807247E+03  0.10117315862E+04  0.17385663896E+03 0.  0.
         24    2    5    5    0    0  0.41031075746E+02 -0.29896963398E+01  0.27511313335E+03  0.28924609872E+03  0.79269048322E+02 0.  0.
          5    1    5    5  501    0 -0.29986174224E+02 -0.50983375300E+02  0.72004493912E+03  0.72248548744E+03  0.47000000000E+01 0. -1.
        -11    1    6    6    0    0  0.22128101701E+02 -0.31101744698E+02  0.22825689849E+03  0.23142640972E+03  0.00000000000E+00 0.  1.
         12    1    6    6    0    0  0.18902974045E+02  0.28112048358E+02  0.46856234859E+02  0.57819688998E+02  0.00000000000E+00 0. -1.
         -5    1    3    3    0  503  0.34087031368E+02  0.30303614099E+02  0.39430679147E+02  0.60473987738E+02  0.47000000000E+01 0.  1.
         13    1    4    4    0    0 -0.15683021481E+02 -0.20838583315E+01 -0.83322632156E+02  0.84811323877E+02  0.00000000000E+00 0. -1.
        -14    1    4    4    0    0 -0.29448911409E+02  0.25753315872E+02  0.53349127869E+01  0.39483325037E+02  0.00000000000E+00 0.  1.
</event>
<event>
12    1  0.1628146E-001  0.1855120E+03  0.7818608E-02  0.1162723E+00
         21   -1    0    0  501  502  0.00000000000E+00  0.00000000000E+00  0.75350303163E+02  0.75350303163E+02  0.00000000000E+00 0. -1.
         21   -1    0    0  502  503 -0.00000000000E+00 -0.00000000000E+00 -0.13064622132E+04  0.13064622132E+04  0.00000000000E+00 0. -1.
         -6    2    1    2    0  503  0.15634727924E+02  0.63142767192E+02 -0.11729034529E+04  0.11873827822E+04  0.17304308110E+03 0.  0.
        -24    2    3    3    0    0 -0.37747856863E+02  0.67726859119E+02 -0.10029227911E+04  0.10090958515E+04  0.80053011118E+02 0.  0.
          6    2    1    2  501    0 -0.15634727924E+02 -0.63142767192E+02 -0.58208457101E+02  0.19442973411E+03  0.17373325318E+03 0.  0.
         24    2    5    5    0    0 -0.11687943903E+02 -0.60220265415E+00 -0.92392661181E+02  0.12289268689E+03  0.80182529078E+02 0.  0.
          5    1    5    5  501    0 -0.39467840211E+01 -0.62540564538E+02  0.34184204080E+02  0.71537047223E+02  0.47000000000E+01 0. -1.
        -13    1    6    6    0    0  0.16321513143E+02  0.27814037513E+02 -0.14466008874E+02  0.35345125361E+02  0.00000000000E+00 0.  1.
         14    1    6    6    0    0 -0.28009457046E+02 -0.28416240168E+02 -0.77926652307E+02  0.87547561525E+02  0.00000000000E+00 0. -1.
         -5    1    3    3    0  503  0.53382584787E+02 -0.45840919265E+01 -0.16998066188E+03  0.17828693073E+03  0.47000000000E+01 0.  1.
         11    1    4    4    0    0 -0.81500291991E+01  0.62842509004E+02 -0.36440454743E+03  0.36987332710E+03  0.00000000000E+00 0. -1.
        -12    1    4    4    0    0 -0.29597827664E+02  0.48843501144E+01 -0.63851824362E+03  0.63922252442E+03  0.00000000000E+00 0.  1.
</event>
<event>
12    1  0.1628146E-001  0.1845796E+03  0.7818608E-02  0.1163664E+00
         21   -1    0    0  503  502  0.00000000000E+00  0.00000000000E+00  0.18855897262E+03  0.18855897262E+03  0.00000000000E+00 0. -1.
         21   -1    0    0  501  503 -0.00000000000E+00 -0.00000000000E+00 -0.28665463054E+03  0.28665463054E+03  0.00000000000E+00 0. -1.
          6    2    1    2  501    0 -0.13400821690E+02  0.65571710104E+02 -0.19421927041E+03  0.26793793400E+03  0.17201854635E+03 0.  0.
         24    2    3    3    0    0  0.28820680446E+02  0.54605371961E+02 -0.19970713472E+03  0.22372116716E+03  0.79723539265E+02 0.  0.
         -6    2    1    2    0  502  0.13400821690E+02 -0.65571710104E+02  0.96123612493E+02  0.20727566916E+03  0.17100942360E+03 0.  0.
        -24    2    5    5    0    0  0.44473651721E+02 -0.14622606502E+02  0.11423887591E+03  0.14473300618E+03  0.75534071730E+02 0.  0.
          5    1    3    3  501    0 -0.42221502135E+02  0.10966338143E+02  0.54878643012E+01  0.44216766836E+02  0.47000000000E+01 0. -1.
        -13    1    4    4    0    0  0.44209717250E+02  0.45544100319E+02 -0.77309765815E+02  0.10002781645E+03  0.00000000000E+00 0.  1.
         14    1    4    4    0    0 -0.15389036805E+02  0.90612716422E+01 -0.12239736890E+03  0.12369335072E+03  0.00000000000E+00 0. -1.
         -5    1    5    5    0  502 -0.31072830031E+02 -0.50949103602E+02 -0.18115263413E+02  0.62542662979E+02  0.47000000000E+01 0.  1.
         13    1    6    6    0    0  0.40771970838E+02 -0.40373479056E+02  0.52647010959E+02  0.77872197735E+02  0.00000000000E+00 0. -1.
        -14    1    6    6    0    0  0.37016808826E+01  0.25750872554E+02  0.61591864948E+02  0.66860808449E+02  0.00000000000E+00 0.  1.
</event>
<event>
12    1  0.1628146E-001  0.1881063E+03  0.7818608E-02  0.1160193E+00
         21   -1    0    0  503  502  0.00000000000E+00  0.00000000000E+00  0.26238074023E+03  0.26238074023E+03  0.00000000000E+00 0. -1.
         21   -1    0    0  501  503 -0.00000000000E+00 -0.00000000000E+00 -0.20200922300E+03  0.20200922300E+03  0.00000000000E+00 0. -1.
          6    2    1    2  501    0  0.64412773707E+02  0.42579595228E+02 -0.10372383263E+03  0.21480834488E+03  0.17152831903E+03 0.  0.
         24    2    3    3    0    0  0.26701167853E+02 -0.32221927030E+02 -0.88624770887E+01  0.88166330829E+02  0.77094444972E+02 0.  0.
         -6    2    1    2    0  502 -0.64412773707E+02 -0.42579595228E+02  0.16409534986E+03  0.24958161834E+03  0.17146916055E+03 0.  0.
        -24    2    5    5    0    0 -0.10024732105E+03 -0.63858732572E+02  0.14445700003E+03  0.20327102287E+03  0.79522454542E+02 0.  0.
          5    1    3    3  501    0  0.37711605854E+02  0.74801522257E+02 -0.94861355543E+02  0.12664201405E+03  0.47000000000E+01 0. -1.
        -13    1    4    4    0    0  0.53813326241E+02 -0.24407092260E+02 -0.99886378264E+01  0.59927899340E+02  0.00000000000E+00 0.  1.
         14    1    4    4    0    0 -0.27112158388E+02 -0.78148347698E+01  0.11261607377E+01  0.28238431489E+02  0.00000000000E+00 0. -1.
         -5    1    5    5    0  502  0.35834547340E+02  0.21279137345E+02  0.19638349830E+02  0.46310595475E+02  0.47000000000E+01 0.  1.
         11    1    6    6    0    0 -0.22660919901E+02 -0.58088449843E+02  0.44492145374E+02  0.76598539777E+02  0.00000000000E+00 0. -1.
        -12    1    6    6    0    0 -0.77586401145E+02 -0.57702827291E+01  0.99964854658E+02  0.12667248309E+03  0.00000000000E+00 0.  1.
</event>
<event>
12    1  0.1628146E-001  0.1919193E+03  0.7818608E-02  0.1157056E+00
         21   -1    0    0  501  502  0.00000000000E+00  0.00000000000E+00  0.81875151876E+03  0.81875151876E+03  0.00000000000E+00 0.  1.
         21   -1    0    0  502  503 -0.00000000000E+00 -0.00000000000E+00 -0.44707495366E+02  0.44707495366E+02  0.00000000000E+00 0.  1.
         -6    2    1    2    0  503 -0.77381262414E+02  0.33054302162E+02  0.37109497855E+03  0.41713966206E+03  0.17091977033E+03 0.  0.
        -24    2    3    3    0    0  0.58862736944E+01  0.10178366520E+02  0.77042585988E+02  0.11063404943E+03  0.78524425967E+02 0.  0.
          6    2    1    2  501    0  0.77381262414E+02 -0.33054302162E+02  0.40294904484E+03  0.44631935207E+03  0.17248937541E+03 0.  0.
         24    2    5    5    0    0  0.10709290833E+03 -0.58139700329E+02  0.36778018876E+03  0.39367908666E+03  0.69798569214E+02 0.  0.
          5    1    5    5  501    0 -0.29711645912E+02  0.25085398167E+02  0.35168856082E+02  0.52640265407E+02  0.47000000000E+01 0. -1.
        -13    1    6    6    0    0  0.64628698499E+02 -0.20087261087E+01  0.12272844120E+03  0.13871976762E+03  0.00000000000E+00 0.  1.
         14    1    6    6    0    0  0.42464209827E+02 -0.56130974221E+02  0.24505174756E+03  0.25495931904E+03  0.00000000000E+00 0. -1.
         -5    1    3    3    0  503 -0.83267536109E+02  0.22875935642E+02  0.29405239257E+03  0.30650561263E+03  0.47000000000E+01 0.  1.
         13    1    4    4    0    0 -0.26101136430E+02 -0.18253385438E+02  0.14857682030E+02  0.35145499259E+02  0.00000000000E+00 0. -1.
        -14    1    4    4    0    0  0.31987410124E+02  0.28431751958E+02  0.62184903959E+02  0.75488550166E+02  0.00000000000E+00 0.  1.
</event>
<event>
12    1  0.1628146E-001  0.1832233E+03  0.7818608E-02  0.1164780E+00
         21   -1    0    0  501  502  0.00000000000E+00  0.00000000000E+00  0.11236465673E+04  0.11236465673E+04  0.00000000000E+00 0. -1.
         21   -1    0    0  502  503 -0.00000000000E+00 -0.00000000000E+00 -0.30409974467E+02  0.30409974467E+02  0.00000000000E+00 0. -1.
         -6    2    1    2    0  503 -0.12405352941E+02 -0.60710937379E+02  0.46765248224E+03  0.50226450618E+03  0.17242702607E+03 0.  0.
        -24    2    3    3    0    0 -0.33111747723E+02 -0.26196459798E+02  0.44843158399E+03  0.45741434590E+03  0.79714214356E+02 0.  0.
          6    2    1    2  501    0  0.12405352941E+02  0.60710937379E+02  0.62558411058E+03  0.65179203558E+03  0.17215593959E+03 0.  0.
         24    2    5    5    0    0 -0.22149085579E+02  0.77404927034E+02  0.58437974469E+03  0.59528904203E+03  0.79920290496E+02 0.  0.
          5    1    5    5  501    0  0.34554438519E+02 -0.16693989655E+02  0.41204365891E+02  0.56502993553E+02  0.47000000000E+01 0. -1.
        -11    1    6    6    0    0  0.14611673346E+02 -0.60255268870E+00  0.22531138536E+02  0.26861054920E+02  0.00000000000E+00 0.  1.
         12    1    6    6    0    0 -0.36760758925E+02  0.78007479723E+02  0.56184860615E+03  0.56842798711E+03  0.00000000000E+00 0. -1.
         -5    1    3    3    0  503  0.20706394782E+02 -0.34514477581E+02  0.19220898256E+02  0.44850160282E+02  0.47000000000E+01 0.  1.
         13    1    4    4    0    0 -0.38409682189E+02 -0.37714592584E+02  0.16214137579E+03  0.17084355394E+03  0.00000000000E+00 0. -1.
        -14    1    4    4    0    0  0.52979344661E+01  0.11518132786E+02  0.28629020820E+03  0.28657079196E+03  0.00000000000E+00 0.  1.
</event>
<event>
12    1  0.1628146E-001  0.2002389E+03  0.7818608E-02  0.1151956E+00
         21   -1    0    0  503  502  0.00000000000E+00  0.00000000000E+00  0.68309523754E+03  0.68309523754E+03  0.00000000000E+00 0.  1.
         21   -1    0    0  501  503 -0.00000000000E+00 -0.00000000000E+00 -0.55933231436E+02  0.55933231436E+02  0.00000000000E+00 0. -1.
          6    2    1    2  501    0  0.69380724880E+02  0.32854954580E+02  0.28914583208E+03  0.35171143595E+03  0.18493914930E+03 0.  0.
         24    2    3    3    0    0 -0.16885537066E+02  0.32358649518E+02  0.23219170567E+03  0.24823208157E+03  0.79837175402E+02 0.  0.
         -6    2    1    2    0  502 -0.69380724880E+02 -0.32854954580E+02  0.33801617403E+03  0.38731703303E+03  0.17281903004E+03 0.  0.
        -24    2    5    5    0    0 -0.60245765412E+02  0.36730028964E+02  0.12612789916E+03  0.16405877799E+03  0.77642697073E+02 0.  0.
          5    1    3    3  501    0  0.86266261946E+02  0.49630506155E+00  0.56954126405E+02  0.10347935438E+03  0.47000000000E+01 0. -1.
        -13    1    4    4    0    0  0.30546383352E+02  0.20231627238E+02  0.12747831331E+03  0.13263906152E+03  0.00000000000E+00 0.  1.
         14    1    4    4    0    0 -0.47431920417E+02  0.12127022280E+02  0.10471339236E+03  0.11559302005E+03  0.00000000000E+00 0. -1.
         -5    1    5    5    0  502 -0.91349594678E+01 -0.69584983544E+02  0.21188827487E+03  0.22325825504E+03  0.47000000000E+01 0.  1.
         11    1    6    6    0    0 -0.12986595476E+02  0.10221506286E+02 -0.87523895249E+01  0.18701207854E+02  0.00000000000E+00 0. -1.
        -12    1    6    6    0    0 -0.47259169936E+02  0.26508522677E+02  0.13488028869E+03  0.14535757013E+03  0.00000000000E+00 0.  1.
</event>
<event>
12    1  0.1628146E-001  0.1990935E+03  0.7818608E-02  0.1150610E+00
         21   -1    0    0  503  502  0.00000000000E+00  0.00000000000E+00  0.19131646329E+03  0.19131646329E+03  0.00000000000E+00 0.  1.
         21   -1    0    0  501  503 -0.00000000000E+00 -0.00000000000E+00 -0.49784540164E+03  0.49784540164E+03  0.00000000000E+00 0. -1.
          6    2    1    2  501    0  0.95003198241E+02 -0.28033344504E+02 -0.41670665484E+03  0.46161547947E+03  0.17214220464E+03 0.  0.
         24    2    3    3    0    0  0.34866450328E+02 -0.28284872027E+02 -0.88992153326E+02  0.12839576784E+03  0.80933098928E+02 0.  0.
         -6    2    1    2    0  502 -0.95003198241E+02  0.28033344504E+02  0.11017771650E+03  0.22754638546E+03  0.17270423342E+03 0.  0.
        -24    2    5    5    0    0 -0.97887312628E+02  0.49461922440E+02  0.22262078529E+02  0.13688905554E+03  0.78832770104E+02 0.  0.
          5    1    3    3  501    0  0.60136747914E+02  0.25152752246E+00 -0.32771450151E+03  0.33321971163E+03  0.47000000000E+01 0. -1.
        -13    1    4    4    0    0 -0.18734655979E+02 -0.15789332590E+02 -0.62865256791E+02  0.67470963159E+02  0.00000000000E+00 0.  1.
         14    1    4    4    0    0  0.53601106306E+02 -0.12495539437E+02 -0.26126896535E+02  0.60924804682E+02  0.00000000000E+00 0. -1.
         -5    1    5    5    0  502  0.28841143868E+01 -0.21428577935E+02  0.87915637966E+02  0.90657329914E+02  0.47000000000E+01 0.  1.
         11    1    6    6    0    0 -0.33214285678E+02 -0.21026922466E+02  0.88083895297E+01  0.40285331916E+02  0.00000000000E+00 0. -1.
        -12    1    6    6    0    0 -0.64673026950E+02  0.70488844906E+02  0.13453689000E+02  0.96603723628E+02  0.00000000000E+00 0.  1.
</event>
<event>
12    1  0.1628146E-001  0.1844189E+03  0.7818608E-02  0.1163622E+00
         21   -1    0    0  501  502  0.00000000000E+00  0.00000000000E+00  0.24875125811E+03  0.24875125811E+03  0.00000000000E+00 0.  1.
         21   -1    0    0  502  503 -0.00000000000E+00 -0.00000000000E+00 -0.14511828196E+03  0.14511828196E+03  0.00000000000E+00 0.  1.
         -6    2    1    2    0  503 -0.41502417163E+02  0.49658526784E+02  0.99449348651E+02  0.20952449061E+03  0.17269024091E+03 0.  0.
        -24    2    3    3    0    0 -0.50531638605E+02 -0.19814797727E+02  0.10795887967E+02  0.96433395689E+02  0.78973260652E+02 0.  0.
          6    2    1    2  501    0  0.41502417163E+02 -0.49658526784E+02  0.41836275010E+01  0.18434504946E+03  0.17256064038E+03 0.  0.
         24    2    5    5    0    0  0.82667422333E+02 -0.23184937588E+02 -0.33003468842E+02  0.12269783777E+03  0.81203980142E+02 0.  0.
          5    1    5    5  501    0 -0.41165005169E+02 -0.26473589197E+02  0.37187096343E+02  0.61647211697E+02  0.47000000000E+01 0. -1.
        -11    1    6    6    0    0  0.22085141782E+01 -0.33203284937E+02  0.41056142457E+01  0.33528968577E+02  0.00000000000E+00 0.  1.
         12    1    6    6    0    0  0.80458908154E+02  0.10018347349E+02 -0.37109083088E+02  0.89168869190E+02  0.00000000000E+00 0. -1.
         -5    1    3    3    0  503  0.90292214415E+01  0.69473324511E+02  0.88653460684E+02  0.11309109492E+03  0.47000000000E+01 0.  1.
         11    1    4    4    0    0 -0.18924449923E+02  0.16180800070E+02 -0.26022615817E+02  0.36015685884E+02  0.00000000000E+00 0. -1.
        -12    1    4    4    0    0 -0.31607188682E+02 -0.35995597797E+02  0.36818503784E+02  0.60417709804E+02  0.00000000000E+00 0.  1.
</event>
<event>
12    1  0.1628146E-001  0.2051085E+03  0.7818608E-02  0.1145608E+00
         21   -1    0    0  503  502  0.00000000000E+00  0.00000000000E+00  0.53883875715E+03  0.53883875715E+03  0.00000000000E+00 0. -1.
         21   -1    0    0  501  503 -0.00000000000E+00 -0.00000000000E+00 -0.82631579248E+02  0.82631579248E+02  0.00000000000E+00 0.  1.
          6    2    1    2  501    0 -0.10099120347E+02  0.11037949829E+03  0.15324565389E+03  0.25560806971E+03  0.17194658761E+03 0.  0.
         24    2    3    3    0    0 -0.61855744739E+01  0.17662309194E+02  0.74924974799E+01  0.82755920174E+02  0.80263231356E+02 0.  0.
         -6    2    1    2    0  502  0.10099120347E+02 -0.11037949829E+03  0.30296152401E+03  0.36586226669E+03  0.17258008946E+03 0.  0.
        -24    2    5    5    0    0  0.47554376891E+02 -0.66243645991E+02  0.28156743966E+03  0.30396988794E+03  0.80422822031E+02 0.  0.
          5    1    3    3  501    0 -0.39135458729E+01  0.92717189101E+02  0.14575315641E+03  0.17285214954E+03  0.47000000000E+01 0. -1.
        -11    1    4    4    0    0  0.12639728167E+02  0.33612966014E+02 -0.23668290420E+02  0.43009094199E+02  0.00000000000E+00 0.  1.
         12    1    4    4    0    0 -0.18825302641E+02 -0.15950656820E+02  0.31160787900E+02  0.39746825975E+02  0.00000000000E+00 0. -1.
         -5    1    5    5    0  502 -0.37455256544E+02 -0.44135852303E+02  0.21394084350E+02  0.61892378743E+02  0.47000000000E+01 0.  1.
         11    1    6    6    0    0  0.35240454457E+02 -0.67271234527E+02  0.12053474240E+03  0.14246379452E+03  0.00000000000E+00 0. -1.
        -12    1    6    6    0    0  0.12313922434E+02  0.10275885361E+01  0.16103269726E+03  0.16150609342E+03  0.00000000000E+00 0.  1.
</event>
<event>
12    1  0.1628146E-001  0.3043895E+03  0.7818608E-02  0.1083697E+00
         21   -1    0    0  501  502  0.00000000000E+00  0.00000000000E+00  0.32028968614E+03  0.32028968614E+03  0.00000000000E+00 0.  1.
         21   -1    0    0  502  503 -0.00000000000E+00 -0.00000000000E+00 -0.66872679029E+03  0.66872679029E+03  0.00000000000E+00 0. -1.
         -6    2    1    2    0  503 -0.13607765929E+03 -0.20388049173E+03 -0.54844417148E+03  0.62479701210E+03  0.17174374177E+03 0.  0.
        -24    2    3    3    0    0 -0.14923458060E+03 -0.19416595220E+03 -0.54941837708E+03  0.60775248415E+03  0.86782209407E+02 0.  0.
          6    2    1    2  501    0  0.13607765929E+03  0.20388049173E+03  0.20000706733E+03  0.36421946432E+03  0.18046774489E+03 0.  0.
         24    2    5    5    0    0  0.75066807842E+02  0.19826841230E+03  0.20084701834E+03  0.30276529484E+03  0.79886857661E+02 0.  0.
          5    1    5    5  501    0  0.61010851446E+02  0.56120794319E+01 -0.83995100654E+00  0.61454169488E+02  0.47000000000E+01 0. -1.
        -11    1    6    6    0    0  0.15854185686E+02  0.22462331697E+02  0.71526915302E+02  0.76629049072E+02  0.00000000000E+00 0.  1.
         12    1    6    6    0    0  0.59212622156E+02  0.17580608060E+03  0.12932010304E+03  0.22613624576E+03  0.00000000000E+00 0. -1.
         -5    1    3    3    0  503  0.13156921315E+02 -0.97145395271E+01  0.97420560135E+00  0.17044527956E+02  0.47000000000E+01 0.  1.
         11    1    4    4    0    0 -0.28956723227E+02 -0.42939136065E+02 -0.21847344344E+03  0.22452818690E+03  0.00000000000E+00 0. -1.
        -12    1    4    4    0    0 -0.12027785738E+03 -0.15122681614E+03 -0.33094493364E+03  0.38322429724E+03  0.00000000000E+00 0.  1.
</event>
<event>
12    1  0.1628146E-001  0.1772932E+03  0.7818608E-02  0.1170568E+00
         21   -1    0    0  501  502  0.00000000000E+00  0.00000000000E+00  0.18341750841E+03  0.18341750841E+03  0.00000000000E+00 0.  1.
         21   -1    0    0  502  503 -0.00000000000E+00 -0.00000000000E+00 -0.17117877995E+03  0.17117877995E+03  0.00000000000E+00 0.  1.
         -6    2    1    2    0  503  0.28820493881E+02  0.30824500341E+02 -0.95993460525E+00  0.17681243430E+03  0.17170015947E+03 0.  0.
        -24    2    3    3    0    0  0.72832727577E+02  0.97292009056E+01  0.37332314764E+02  0.11459929474E+03  0.79624324623E+02 0.  0.
          6    2    1    2  501    0 -0.28820493881E+02 -0.30824500341E+02  0.13198663074E+02  0.17778385406E+03  0.17219791917E+03 0.  0.
         24    2    5    5    0    0  0.23920022453E+02 -0.70607697457E+02  0.30281578827E+02  0.10938662570E+03  0.74100239214E+02 0.  0.
          5    1    5    5  501    0 -0.52740516335E+02  0.39783197116E+02 -0.17082915752E+02  0.68397228355E+02  0.47000000000E+01 0. -1.
        -11    1    6    6    0    0 -0.13322732008E+02 -0.14504278466E+02 -0.17877398408E+02  0.26598320545E+02  0.00000000000E+00 0.  1.
         12    1    6    6    0    0  0.37242754461E+02 -0.56103418991E+02  0.48158977235E+02  0.82788305156E+02  0.00000000000E+00 0. -1.
         -5    1    3    3    0  503 -0.44012233696E+02  0.21095299436E+02 -0.38292249369E+02  0.62213139568E+02  0.47000000000E+01 0.  1.
         13    1    4    4    0    0  0.13827463564E+02  0.10490594321E+02 -0.23915065425E+02  0.29549647580E+02  0.00000000000E+00 0. -1.
        -14    1    4    4    0    0  0.59005264014E+02 -0.76139341517E+00  0.61247380189E+02  0.85049647156E+02  0.00000000000E+00 0.  1.
</event>
<event>
12    1  0.1628146E-001  0.1808238E+03  0.7818608E-02  0.1167028E+00
         21   -1    0    0  501  502  0.00000000000E+00  0.00000000000E+00  0.53013707163E+03  0.53013707163E+03  0.00000000000E+00 0. -1.
         21   -1    0    0  502  503 -0.00000000000E+00 -0.00000000000E+00 -0.79052223032E+02  0.79052223032E+02  0.00000000000E+00 0. -1.
         -6    2    1    2    0  503 -0.38664010497E+02  0.40988224050E+02  0.82667065412E+02  0.19882423792E+03  0.17182052748E+03 0.  0.
        -24    2    3    3    0    0 -0.25750854517E+02  0.75919131937E+02  0.10575035002E+03  0.15475785673E+03  0.79624346694E+02 0.  0.
          6    2    1    2  501    0  0.38664010497E+02 -0.40988224050E+02  0.36841778319E+03  0.41036505674E+03  0.17173490213E+03 0.  0.
         24    2    5    5    0    0  0.81684938293E+01 -0.28561950891E+02  0.69785079432E+02  0.10988548913E+03  0.79513232104E+02 0.  0.
          5    1    5    5  501    0  0.30495516667E+02 -0.12426273159E+02  0.29863270375E+03  0.30047956761E+03  0.47000000000E+01 0. -1.
        -13    1    6    6    0    0 -0.26503431346E+02 -0.30864310221E+02  0.11926518483E+02  0.42394331716E+02  0.00000000000E+00 0.  1.
         14    1    6    6    0    0  0.34671925175E+02  0.23023593294E+01  0.57858560949E+02  0.67491157413E+02  0.00000000000E+00 0. -1.
         -5    1    3    3    0  503 -0.12913155980E+02 -0.34930907887E+02 -0.23083284610E+02  0.44066381194E+02  0.47000000000E+01 0.  1.
         11    1    4    4    0    0 -0.39891022447E+02  0.42327131401E+02  0.19868792139E+02  0.61462579067E+02  0.00000000000E+00 0. -1.
        -12    1    4    4    0    0  0.14140167930E+02  0.33592000536E+02  0.85881557883E+02  0.93295277659E+02  0.00000000000E+00 0.  1.
</event>
<event>
12    1  0.1628146E-001  0.1780228E+03  0.7818608E-02  0.1169770E+00
         21   -1    0    0  501  502  0.00000000000E+00  0.00000000000E+00  0.22832343071E+03  0.22832343071E+03  0.00000000000E+00 0.  1.
         21   -1    0    0  502  503 -0.00000000000E+00 -0.00000000000E+00 -0.15181545404E+03  0.15181545404E+03  0.00000000000E+00 0.  1.
         -6    2    1    2    0  503  0.47543808396E+01  0.45005810232E+02 -0.17644817618E+02  0.17889508765E+03  0.17217428874E+03 0.  0.
        -24    2    3    3    0    0  0.25234991872E+02  0.23975215365E+02 -0.74454786351E+02  0.11477641723E+03  0.80115510203E+02 0.  0.
          6    2    1    2  501    0 -0.47543808396E+01 -0.45005810232E+02  0.94152794289E+02  0.20124379710E+03  0.17200636647E+03 0.  0.
         24    2    5    5    0    0 -0.12225260026E+02  0.20864798645E+02  0.10661971908E+03  0.13362526884E+03  0.76831967117E+02 0.  0.
          5    1    5    5  501    0  0.74708791863E+01 -0.65870608876E+02 -0.12466924791E+02  0.67618528254E+02  0.47000000000E+01 0. -1.
        -11    1    6    6    0    0 -0.36554619782E+02 -0.93171807472E+01  0.73590570544E+02  0.82695962159E+02  0.00000000000E+00 0.  1.
         12    1    6    6    0    0  0.24329359756E+02  0.30181979392E+02  0.33029148536E+02  0.50929306683E+02  0.00000000000E+00 0. -1.
         -5    1    3    3    0  503 -0.20480611033E+02  0.21030594866E+02  0.56809968733E+02  0.64118670418E+02  0.47000000000E+01 0.  1.
         13    1    4    4    0    0 -0.27843858977E+01  0.15794494598E+02  0.14211805096E+02  0.21428818645E+02  0.00000000000E+00 0. -1.
        -14    1    4    4    0    0  0.28019377770E+02  0.81807207669E+01 -0.88666591447E+02  0.93347598585E+02  0.00000000000E+00 0.  1.
</event>
<event>
12    1  0.1628146E-001  0.2844842E+03  0.7818608E-02  0.1093433E+00
         21   -1    0    0  503  502  0.00000000000E+00  0.00000000000E+00  0.27465481489E+03  0.27465481489E+03  0.00000000000E+00 0.  1.
         21   -1    0    0  501  503 -0.00000000000E+00 -0.00000000000E+00 -0.76525225192E+03  0.76525225192E+03  0.00000000000E+00 0. -1.
          6    2    1    2  501    0 -0.19972199681E+03 -0.10660193157E+03 -0.65380953134E+03  0.71302045836E+03  0.17227426664E+03 0.  0.
         24    2    3    3    0    0 -0.10792704145E+03 -0.98800938571E+02 -0.26059552629E+03  0.30913122468E+03  0.79007683219E+02 0.  0.
         -6    2    1    2    0  502  0.19972199681E+03  0.10660193157E+03  0.16321209432E+03  0.32688660844E+03  0.17018760009E+03 0.  0.
        -24    2    5    5    0    0  0.22087926223E+03  0.87673172186E+02  0.12650468467E+03  0.28024487032E+03  0.77842909083E+02 0.  0.
          5    1    3    3  501    0 -0.91794955357E+02 -0.78009930019E+01 -0.39321400505E+03  0.40388923369E+03  0.47000000000E+01 0. -1.
        -13    1    4    4    0    0 -0.17557434166E+01 -0.97284965244E+01  0.38203238171E+01  0.10598167466E+02  0.00000000000E+00 0.  1.
         14    1    4    4    0    0 -0.10617129803E+03 -0.89072442047E+02 -0.26441585011E+03  0.29853305721E+03  0.00000000000E+00 0. -1.
         -5    1    5    5    0  502 -0.21157265420E+02  0.18928759387E+02  0.36707409647E+02  0.46641738122E+02  0.47000000000E+01 0.  1.
         11    1    6    6    0    0  0.12780795030E+03  0.79515444284E+02  0.47356764142E+02  0.15779810249E+03  0.00000000000E+00 0. -1.
        -12    1    6    6    0    0  0.93071311930E+02  0.81577279027E+01  0.79147920527E+02  0.12244676783E+03  0.00000000000E+00 0.  1.
</event>
<event>
12    1  0.1628146E-001  0.1782730E+03  0.7818608E-02  0.1169752E+00
         21   -1    0    0  503  502  0.00000000000E+00  0.00000000000E+00  0.11658307873E+03  0.11658307873E+03  0.00000000000E+00 0.  1.
         21   -1    0    0  501  503 -0.00000000000E+00 -0.00000000000E+00 -0.42449674705E+03  0.42449674705E+03  0.00000000000E+00 0.  1.
          6    2    1    2  501    0 -0.35304221799E+02  0.30121141960E+02 -0.31636733489E+03  0.36260647019E+03  0.17100143381E+03 0.  0.
         24    2    3    3    0    0 -0.53786804015E+02  0.65905407347E+02 -0.13819552502E+03  0.17987879487E+03  0.77600481334E+02 0.  0.
         -6    2    1    2    0  502  0.35304221799E+02 -0.30121141960E+02  0.84536665707E+01  0.17847335560E+03  0.17212670597E+03 0.  0.
        -24    2    5    5    0    0  0.36338646590E+02 -0.80826015721E+02 -0.19935570363E+02  0.12016303891E+03  0.78666300931E+02 0.  0.
          5    1    3    3  501    0  0.18482582216E+02 -0.35784265387E+02 -0.17817180987E+03  0.18272767532E+03  0.47000000000E+01 0. -1.
        -11    1    4    4    0    0 -0.37971936911E+02 -0.48398832762E+01 -0.25901069120E+02  0.46218587651E+02  0.00000000000E+00 0.  1.
         12    1    4    4    0    0 -0.15814867104E+02  0.70745290623E+02 -0.11229445590E+03  0.13366020722E+03  0.00000000000E+00 0. -1.
         -5    1    5    5    0  502 -0.10344247910E+01  0.50704873761E+02  0.28389236933E+02  0.58310316681E+02  0.47000000000E+01 0.  1.
         11    1    6    6    0    0 -0.15953845901E+02 -0.23400809139E+02 -0.30682898195E+02  0.41755997283E+02  0.00000000000E+00 0. -1.
        -12    1    6    6    0    0  0.52292492492E+02 -0.57425206582E+02  0.10747327832E+02  0.78407041632E+02  0.00000000000E+00 0.  1.
</event>
<event>
12    1  0.1628146E-001  0.2042482E+03  0.7818608E-02  0.1146391E+00
         21   -1    0    0  501  502  0.00000000000E+00  0.00000000000E+00  0.50322060355E+03  0.50322060355E+03  0.00000000000E+00 0.  1.
         21   -1    0    0  502  503 -0.00000000000E+00 -0.00000000000E+00 -0.10447425270E+03  0.10447425270E+03  0.00000000000E+00 0. -1.
         -6    2    1    2    0  503 -0.10684528303E+03  0.21303344927E+02  0.59766924288E+02  0.21193685838E+03  0.17168401117E+03 0.  0.
        -24    2    3    3    0    0 -0.12750145435E+03  0.63881297569E+02  0.35050805526E+02  0.15834081383E+03  0.59209908924E+02 0.  0.
          6    2    1    2  501    0  0.10684528303E+03 -0.21303344927E+02  0.33897942656E+03  0.39575799787E+03  0.17276456302E+03 0.  0.
         24    2    5    5    0    0  0.11502217896E+03 -0.34208713035E+01  0.14631218190E+03  0.20203293069E+03  0.78538184965E+02 0.  0.
          5    1    5    5  501    0 -0.81768959322E+01 -0.17882473623E+02  0.19266724465E+03  0.19372506718E+03  0.47000000000E+01 0. -1.
        -11    1    6    6    0    0  0.37520247270E+02 -0.12400777836E+02  0.10822218852E+03  0.11521106862E+03  0.00000000000E+00 0.  1.
         12    1    6    6    0    0  0.77501931687E+02  0.89799065320E+01  0.38089993387E+02  0.86821862067E+02  0.00000000000E+00 0. -1.
         -5    1    3    3    0  503  0.20656171327E+02 -0.42577952642E+02  0.24716118763E+02  0.53596044553E+02  0.47000000000E+01 0.  1.
         13    1    4    4    0    0 -0.30308528704E+02  0.69403276871E+01  0.33472156930E+02  0.45685450092E+02  0.00000000000E+00 0. -1.
        -14    1    4    4    0    0 -0.97192925648E+02  0.56940969882E+02  0.15786485959E+01  0.11265536374E+03  0.00000000000E+00 0.  1.
</event>
<event>
12    1  0.1628146E-001  0.2025001E+03  0.7818608E-02  0.1147653E+00
         21   -1    0    0  501  502  0.00000000000E+00  0.00000000000E+00  0.52929222059E+03  0.52929222059E+03  0.00000000000E+00 0. -1.
         21   -1    0    0  502  503 -0.00000000000E+00 -0.00000000000E+00 -0.31841079463E+03  0.31841079463E+03  0.00000000000E+00 0.  1.
         -6    2    1    2    0  503 -0.10051690675E+03 -0.37503961620E+02 -0.26326903242E+03  0.33212087462E+03  0.17170758937E+03 0.  0.
        -24    2    3    3    0    0 -0.62767701586E+02  0.40303944718E+02 -0.10172143163E+03  0.14882114713E+03  0.78970196002E+02 0.  0.
          6    2    1    2  501    0  0.10051690675E+03  0.37503961620E+02  0.47415045838E+03  0.51558214060E+03  0.17174425999E+03 0.  0.
         24    2    5    5    0    0  0.12412280777E+03  0.35974733870E+02  0.25234242551E+03  0.29246676563E+03  0.71829356117E+02 0.  0.
          5    1    5    5  501    0 -0.23605901014E+02  0.15292277501E+01  0.22180803288E+03  0.22311537497E+03  0.47000000000E+01 0. -1.
        -13    1    6    6    0    0  0.70246563287E+02  0.65417288357E+01  0.19900732778E+03  0.21114281987E+03  0.00000000000E+00 0.  1.
         14    1    6    6    0    0  0.53876244482E+02  0.29433005035E+02  0.53335097723E+02  0.81323945760E+02  0.00000000000E+00 0. -1.
         -5    1    3    3    0  503 -0.37749205168E+02 -0.77807906339E+02 -0.16154760079E+03  0.18329972750E+03  0.47000000000E+01 0.  1.
         11    1    4    4    0    0 -0.39030684219E+02  0.62277221608E+02 -0.85131514220E+02  0.11246875724E+03  0.00000000000E+00 0. -1.
        -12    1    4    4    0    0 -0.23737017367E+02 -0.21973276889E+02 -0.16589917412E+02  0.36352389887E+02  0.00000000000E+00 0.  1.
</event>
<event>
12    1  0.1628146E-001  0.1763324E+03  0.7818608E-02  0.1171496E+00
         21   -1    0    0  503  502  0.00000000000E+00  0.00000000000E+00  0.44215064496E+03  0.44215064496E+03  0.00000000000E+00 0.  1.
         21   -1    0    0  501  503 -0.00000000000E+00 -0.00000000000E+00 -0.14654246799E+03  0.14654246799E+03  0.00000000000E+00 0.  1.
          6    2    1    2  501    0 -0.19147294818E+02 -0.32828289545E+02 -0.64765957629E+02  0.18749162670E+03  0.17179687227E+03 0.  0.
         24    2    3    3    0    0  0.14580349202E+01 -0.61131140645E+02 -0.97338316851E+02  0.13944290581E+03  0.78933097179E+02 0.  0.
         -6    2    1    2    0  502  0.19147294818E+02  0.32828289545E+02  0.36037413459E+03  0.40120148625E+03  0.17218826961E+03 0.  0.
        -24    2    5    5    0    0  0.63109560217E+02 -0.24433977688E+02  0.21938867603E+03  0.24273812280E+03  0.78807164880E+02 0.  0.
          5    1    3    3  501    0 -0.20605329738E+02  0.28302851099E+02  0.32572359222E+02  0.48048720891E+02  0.47000000000E+01 0. -1.
        -11    1    4    4    0    0 -0.26112111912E+02 -0.64646287754E+00 -0.65627330321E+01  0.26931946970E+02  0.00000000000E+00 0.  1.
         12    1    4    4    0    0  0.27570146832E+02 -0.60484677767E+02 -0.90775583819E+02  0.11251095884E+03  0.00000000000E+00 0. -1.
         -5    1    5    5    0  502 -0.43962265399E+02  0.57262267234E+02  0.14098545856E+03  0.15846336345E+03  0.47000000000E+01 0.  1.
         11    1    6    6    0    0 -0.67674275769E+01 -0.30515475814E+02  0.45172275004E+02  0.54932019525E+02  0.00000000000E+00 0. -1.
        -12    1    6    6    0    0  0.69876987794E+02  0.60814981252E+01  0.17421640103E+03  0.18780610328E+03  0.00000000000E+00 0.  1.
</event>
<event>
12    1  0.1628146E-001  0.1751619E+03  0.7818608E-02  0.1173436E+00
         21   -1    0    0  503  502  0.00000000000E+00  0.00000000000E+00  0.48086876655E+02  0.48086876655E+02  0.00000000000E+00 0.  1.
         21   -1    0    0  501  503 -0.00000000000E+00 -0.00000000000E+00 -0.88640071956E+03  0.88640071956E+03  0.00000000000E+00 0.  1.
          6    2    1    2  501    0  0.24179722346E+02  0.12170301954E+02 -0.67548825298E+03  0.69782953965E+03  0.17305753747E+03 0.  0.
         24    2    3    3    0    0  0.25614118722E+02  0.62123741227E+02 -0.28925152164E+03  0.30834487214E+03  0.83034180333E+02 0.  0.
         -6    2    1    2    0  502 -0.24179722346E+02 -0.12170301954E+02 -0.16282558993E+03  0.23665805657E+03  0.16959389075E+03 0.  0.
        -24    2    5    5    0    0  0.10119252057E+02 -0.63790657264E+02 -0.68214500207E+02  0.12345722165E+03  0.80105058036E+02 0.  0.
          5    1    3    3  501    0 -0.14343963758E+01 -0.49953439273E+02 -0.38623673134E+03  0.38948466751E+03  0.47000000000E+01 0. -1.
        -11    1    4    4    0    0 -0.65353930432E+01  0.24693428857E+01 -0.17760057507E+03  0.17773793428E+03  0.00000000000E+00 0.  1.
         12    1    4    4    0    0  0.32149511765E+02  0.59654398341E+02 -0.11165094657E+03  0.13060693786E+03  0.00000000000E+00 0. -1.
         -5    1    5    5    0  502 -0.34298974403E+02  0.51620355310E+02 -0.94611089724E+02  0.11320083492E+03  0.47000000000E+01 0.  1.
         13    1    6    6    0    0  0.42692846134E+02 -0.27926142381E+02 -0.50743264648E+02  0.71954342791E+02  0.00000000000E+00 0. -1.
        -14    1    6    6    0    0 -0.32573594077E+02 -0.35864514883E+02 -0.17471235559E+02  0.51502878860E+02  0.00000000000E+00 0.  1.
</event>
<event>
12    1  0.1628146E-001  0.2341827E+03  0.7818608E-02  0.1124629E+00
         21   -1    0    0  501  502  0.00000000000E+00  0.00000000000E+00  0.43553553343E+02  0.43553553343E+02  0.00000000000E+00 0.  1.
         21   -1    0    0  502  503 -0.00000000000E+00 -0.00000000000E+00 -0.12547343333E+04  0.12547343333E+04  0.00000000000E+00 0.  1.
         -6    2    1    2    0  503  0.15279959157E+03  0.14399626446E+02 -0.51069337116E+03  0.55969182346E+03  0.16997692043E+03 0.  0.
        -24    2    3    3    0    0  0.13675989564E+03  0.48895322674E+02 -0.27455503710E+03  0.32046258671E+03  0.78878257149E+02 0.  0.
          6    2    1    2  501    0 -0.15279959157E+03 -0.14399626446E+02 -0.70048740885E+03  0.73859606323E+03  0.17687981863E+03 0.  0.
         24    2    5    5    0    0 -0.92797462621E+02 -0.18975653841E+02 -0.64329594030E+03  0.65544469776E+03  0.82502366696E+02 0.  0.
          5    1    5    5  501    0 -0.60002128946E+02  0.45760273947E+01 -0.57191468554E+02  0.83151365474E+02  0.47000000000E+01 0. -1.
        -13    1    6    6    0    0 -0.90689197568E+02 -0.28750186036E+02 -0.37227052167E+03  0.38423488267E+03  0.00000000000E+00 0.  1.
         14    1    6    6    0    0 -0.21082650530E+01  0.97745321950E+01 -0.27102541862E+03  0.27120981509E+03  0.00000000000E+00 0. -1.
         -5    1    3    3    0  503  0.16039695928E+02 -0.34495696228E+02 -0.23613833406E+03  0.23922923675E+03  0.47000000000E+01 0.  1.
         11    1    4    4    0    0  0.86240219403E+02  0.47184751583E+02 -0.10634127973E+03  0.14481796850E+03  0.00000000000E+00 0. -1.
        -12    1    4    4    0    0  0.50519676236E+02  0.17105710919E+01 -0.16821375736E+03  0.17564461821E+03  0.00000000000E+00 0.  1.
</event>
<event>
12    1  0.1628146E-001  0.1941423E+03  0.7818608E-02  0.1154791E+00
         21   -1    0    0  503  502  0.00000000000E+00  0.00000000000E+00  0.26342182225E+03  0.26342182225E+03  0.00000000000E+00 0.  1.
         21   -1    0    0  501  503 -0.00000000000E+00 -0.00000000000E+00 -0.16261300812E+03  0.16261300812E+03  0.00000000000E+00 0.  1.
          6    2    1    2  501    0  0.79450403746E+02  0.42976179306E+02 -0.23513907640E+02  0.19549771900E+03  0.17177641177E+03 0.  0.
         24    2    3    3    0    0  0.75805041566E+02  0.78306106597E+02 -0.49737620373E+02  0.15109878278E+03  0.92080185824E+02 0.  0.
         -6    2    1    2    0  502 -0.79450403746E+02 -0.42976179306E+02  0.12432272177E+03  0.23053711137E+03  0.17184848537E+03 0.  0.
        -24    2    5    5    0    0  0.22005244667E+02 -0.55376987774E+01  0.74110305206E+02  0.11121290931E+03  0.79756359986E+02 0.  0.
          5    1    3    3  501    0  0.36453621799E+01 -0.35329927290E+02  0.26223712733E+02  0.44398936218E+02  0.47000000000E+01 0. -1.
        -11    1    4    4    0    0  0.52728698896E+02  0.57038468755E+02 -0.77113613799E+02  0.10945415496E+03  0.00000000000E+00 0.  1.
         12    1    4    4    0    0  0.23076342670E+02  0.21267637842E+02  0.27375993427E+02  0.41644627822E+02  0.00000000000E+00 0. -1.
         -5    1    5    5    0  502 -0.10145564841E+03 -0.37438480529E+02  0.50212416569E+02  0.11932420206E+03  0.47000000000E+01 0.  1.
         11    1    6    6    0    0  0.34825418434E+02 -0.26617505416E+02  0.13644462502E+02  0.45907218611E+02  0.00000000000E+00 0. -1.
        -12    1    6    6    0    0 -0.12820173767E+02  0.21079806638E+02  0.60465842704E+02  0.65305690695E+02  0.00000000000E+00 0.  1.
</event>
<event>
12    1  0.1628146E-001  0.1708969E+03  0.7818608E-02  0.1177763E+00
         21   -1    0    0  503  502  0.00000000000E+00  0.00000000000E+00  0.30292839345E+02  0.30292839345E+02  0.00000000000E+00 0. -1.
         21   -1    0    0  501  503 -0.00000000000E+00 -0.00000000000E+00 -0.96837328403E+03  0.96837328403E+03  0.00000000000E+00 0. -1.
          6    2    1    2  501    0 -0.53301726367E+00  0.10299279598E+02 -0.54067024383E+03  0.56606861081E+03  0.16734097021E+03 0.  0.
         24    2    3    3    0    0 -0.23321327437E+02 -0.49866946212E+02 -0.39640824458E+03  0.40804046067E+03  0.79541967130E+02 0.  0.
         -6    2    1    2    0  502  0.53301726367E+00 -0.10299279598E+02 -0.39741020086E+03  0.43259751257E+03  0.17058540637E+03 0.  0.
        -24    2    5    5    0    0 -0.62314271487E+02 -0.27158405448E+02 -0.25341592911E+03  0.27451382548E+03  0.80731405506E+02 0.  0.
          5    1    3    3  501    0  0.22788310174E+02  0.60166225810E+02 -0.14426199925E+03  0.15802815014E+03  0.47000000000E+01 0. -1.
        -13    1    4    4    0    0 -0.33433471206E+02 -0.13356332579E+02 -0.32691334888E+03  0.32888983914E+03  0.00000000000E+00 0.  1.
         14    1    4    4    0    0  0.10112143768E+02 -0.36510613633E+02 -0.69494895698E+02  0.79150621524E+02  0.00000000000E+00 0. -1.
         -5    1    5    5    0  502  0.62847288750E+02  0.16859125850E+02 -0.14399427175E+03  0.15808368709E+03  0.47000000000E+01 0.  1.
         11    1    6    6    0    0 -0.38684614598E+02  0.21701483434E+02 -0.66954311823E+02  0.80313969280E+02  0.00000000000E+00 0. -1.
        -12    1    6    6    0    0 -0.23629656889E+02 -0.48859888883E+02 -0.18646161729E+03  0.19419985620E+03  0.00000000000E+00 0.  1.
</event>
<event>
12    1  0.1628146E-001  0.2620681E+03  0.7818608E-02  0.1106345E+00
         21   -1    0    0  503  502  0.00000000000E+00  0.00000000000E+00  0.66620006369E+03  0.66620006369E+03  0.00000000000E+00 0. -1.
         21   -1    0    0  501  503 -0.00000000000E+00 -0.00000000000E+00 -0.10508641008E+03  0.10508641008E+03  0.00000000000E+00 0.  1.
          6    2    1    2  501    0 -0.18964625069E+03 -0.39614882057E+02  0.21234016253E+03  0.33502667522E+03  0.17210313537E+03 0.  0.
         24    2    3    3    0    0 -0.42549522923E+02  0.37563818475E+02  0.91951964235E+02  0.12982090672E+03  0.71949994689E+02 0.  0.
         -6    2    1    2    0  502  0.18964625069E+03  0.39614882057E+02  0.34877349108E+03  0.43625979855E+03  0.17647839662E+03 0.  0.
        -24    2    5    5    0    0  0.12859190767E+02 -0.47161844349E+01  0.97389939908E+02  0.12572044869E+03  0.78314938814E+02 0.  0.
          5    1    3    3  501    0 -0.14709672777E+03 -0.77178700532E+02  0.12038819830E+03  0.20520576850E+03  0.47000000000E+01 0. -1.
        -11    1    4    4    0    0  0.12457628298E+02 -0.10546728830E+02  0.69957572200E+01  0.17758564438E+02  0.00000000000E+00 0.  1.
         12    1    4    4    0    0 -0.55007151222E+02  0.48110547304E+02  0.84956207015E+02  0.11206234228E+03  0.00000000000E+00 0. -1.
         -5    1    5    5    0  502  0.17678705992E+03  0.44331066492E+02  0.25138355117E+03  0.31053934986E+03  0.47000000000E+01 0.  1.
         11    1    6    6    0    0  0.37527364105E+02 -0.25840935690E+02  0.44724523614E+02  0.63846221709E+02  0.00000000000E+00 0. -1.
        -12    1    6    6    0    0 -0.24668173338E+02  0.21124751255E+02  0.52665416295E+02  0.61874226984E+02  0.00000000000E+00 0.  1.
</event>
<event>
12    1  0.1628146E-001  0.1978387E+03  0.7818608E-02  0.1152708E+00
         21   -1    0    0  501  502  0.00000000000E+00  0.00000000000E+00  0.10437569208E+03  0.10437569208E+03  0.00000000000E+00 0.  1.
         21   -1    0    0  502  503 -0.00000000000E+00 -0.00000000000E+00 -0.43361641452E+03  0.43361641452E+03  0.00000000000E+00 0. -1.
         -6    2    1    2    0  503 -0.87338091426E+02  0.30544412697E+02 -0.26963777777E+03  0.33137005841E+03  0.16893987406E+03 0.  0.
        -24    2    3    3    0    0 -0.43145752153E+02  0.83725628247E+02 -0.17372737921E+03  0.21303959281E+03  0.79580959165E+02 0.  0.
          6    2    1    2  501    0  0.87338091426E+02 -0.30544412697E+02 -0.59602944663E+02  0.20662204819E+03  0.17486925523E+03 0.  0.
         24    2    5    5    0    0  0.10490840659E+03  0.13635278566E+02 -0.79654597093E+02  0.15480776580E+03  0.80180389853E+02 0.  0.
          5    1    5    5  501    0 -0.17570315168E+02 -0.44179691264E+02  0.20051652429E+02  0.51814282398E+02  0.47000000000E+01 0. -1.
        -11    1    6    6    0    0  0.47196973785E+00  0.21389934395E+02  0.27216684715E+01  0.21567557306E+02  0.00000000000E+00 0.  1.
         12    1    6    6    0    0  0.10443643686E+03 -0.77546558291E+01 -0.82376265564E+02  0.13324020849E+03  0.00000000000E+00 0. -1.
         -5    1    3    3    0  503 -0.44192339273E+02 -0.53181215549E+02 -0.95910398562E+02  0.11833046560E+03  0.47000000000E+01 0.  1.
         13    1    4    4    0    0 -0.60825978792E+02  0.68248716998E+02 -0.99224712350E+02  0.13491934853E+03  0.00000000000E+00 0. -1.
        -14    1    4    4    0    0  0.17680226639E+02  0.15476911249E+02 -0.74502666861E+02  0.78120244273E+02  0.00000000000E+00 0.  1.
</event>
<event>
12    1  0.1628146E-001  0.2291146E+03  0.7818608E-02  0.1127342E+00
         21   -1    0    0  503  502  0.00000000000E+00  0.00000000000E+00  0.40481027127E+03  0.40481027127E+03  0.00000000000E+00 0. -1.
         21   -1    0    0  501  503 -0.00000000000E+00 -0.00000000000E+00 -0.14734481280E+03  0.14734481280E+03  0.00000000000E+00 0. -1.
          6    2    1    2  501    0 -0.11432981059E+03 -0.98677527984E+02  0.32565223654E+02  0.23141734070E+03  0.17229315619E+03 0.  0.
         24    2    3    3    0    0 -0.57853010593E+02 -0.46761641769E+02  0.84825816618E+02  0.13847570442E+03  0.80289971807E+02 0.  0.
         -6    2    1    2    0  502  0.11432981059E+03  0.98677527984E+02  0.22490023481E+03  0.32073774337E+03  0.17170912697E+03 0.  0.
        -24    2    5    5    0    0  0.13589817309E+03  0.36816964862E+02  0.14554165439E+03  0.21772416262E+03  0.79985220363E+02 0.  0.
          5    1    3    3  501    0 -0.56476799994E+02 -0.51915886215E+02 -0.52260592964E+02  0.92941636289E+02  0.47000000000E+01 0. -1.
        -11    1    4    4    0    0 -0.55936009081E+02 -0.66657464384E+02  0.56293804397E+02  0.10363902298E+03  0.00000000000E+00 0.  1.
         12    1    4    4    0    0 -0.19170015126E+01  0.19895822615E+02  0.28532012220E+02  0.34836681439E+02  0.00000000000E+00 0. -1.
         -5    1    5    5    0  502 -0.21568362503E+02  0.61860563122E+02  0.79358580426E+02  0.10301358075E+03  0.47000000000E+01 0.  1.
         13    1    6    6    0    0  0.25947647627E+02  0.44540622738E+02  0.50957632306E+02  0.72483293119E+02  0.00000000000E+00 0. -1.
        -14    1    6    6    0    0  0.10995052546E+03 -0.77236578753E+01  0.94584022079E+02  0.14524086950E+03  0.00000000000E+00 0.  1.
</event>
<event>
12    1  0.1628146E-001  0.1987965E+03  0.7818608E-02  0.1151149E+00
         21   -1    0    0  501  502  0.00000000000E+00  0.00000000000E+00  0.56281373113E+03  0.56281373113E+03  0.00000000000E+00 0. -1.
         21   -1    0    0  502  503 -0.00000000000E+00 -0.00000000000E+00 -0.22054141621E+03  0.22054141621E+03  0.00000000000E+00 0. -1.
         -6    2    1    2    0  503  0.89531615827E+02 -0.34645015469E+02 -0.15317123902E+03  0.24951586179E+03  0.17198996917E+03 0.  0.
        -24    2    3    3    0    0  0.40620505853E+02 -0.79800794560E+02 -0.13560306843E+03  0.18050809642E+03  0.78592546690E+02 0.  0.
          6    2    1    2  501    0 -0.89531615827E+02  0.34645015469E+02  0.49544355394E+03  0.53383928555E+03  0.17408009746E+03 0.  0.
         24    2    5    5    0    0  0.21136956493E+02 -0.25012414016E+01  0.20212062804E+03  0.21810552721E+03  0.79146987197E+02 0.  0.
          5    1    5    5  501    0 -0.11066857232E+03  0.37146256871E+02  0.29332292590E+03  0.31573375834E+03  0.47000000000E+01 0. -1.
        -13    1    6    6    0    0  0.42523856544E+02  0.22257528428E+02  0.10100781529E+03  0.11183136723E+03  0.00000000000E+00 0.  1.
         14    1    6    6    0    0 -0.21386900051E+02 -0.24758769830E+02  0.10111281275E+03  0.10627415998E+03  0.00000000000E+00 0. -1.
         -5    1    3    3    0  503  0.48911109974E+02  0.45155779091E+02 -0.17568170583E+02  0.69007765374E+02  0.47000000000E+01 0.  1.
         13    1    4    4    0    0  0.43268195660E+02 -0.14090140551E+02 -0.25237721316E+02  0.52034713353E+02  0.00000000000E+00 0. -1.
        -14    1    4    4    0    0 -0.26476898077E+01 -0.65710654009E+02 -0.11036534712E+03  0.12847338306E+03  0.00000000000E+00 0.  1.
</event>
<event>
12    1  0.1628146E-001  0.1842383E+03  0.7818608E-02  0.1164391E+00
         21   -1    0    0  503  502  0.00000000000E+00  0.00000000000E+00  0.73091605695E+03  0.73091605695E+03  0.00000000000E+00 0.  1.
         21   -1    0    0  501  503 -0.00000000000E+00 -0.00000000000E+00 -0.16510749483E+03  0.16510749483E+03  0.00000000000E+00 0.  1.
          6    2    1    2  501    0  0.47626373162E+02  0.29670911808E+02 -0.97404365397E+02  0.20840189880E+03  0.17548534582E+03 0.  0.
         24    2    3    3    0    0  0.42124481696E+02  0.58476881190E+02 -0.12411528742E+03  0.16845671089E+03  0.88198873465E+02 0.  0.
         -6    2    1    2    0  502 -0.47626373162E+02 -0.29670911808E+02  0.66321292752E+03  0.68762165298E+03  0.17269486385E+03 0.  0.
        -24    2    5    5    0    0 -0.89498552819E+02 -0.19822547794E+02  0.39621723640E+03  0.41714233996E+03  0.92826230146E+02 0.  0.
          5    1    3    3  501    0  0.55018914656E+01 -0.28805969383E+02  0.26710922025E+02  0.39945187910E+02  0.47000000000E+01 0. -1.
        -13    1    4    4    0    0  0.41044499752E+02 -0.43068768005E+01 -0.17719419114E+02  0.44913004368E+02  0.00000000000E+00 0.  1.
         14    1    4    4    0    0  0.10799819445E+01  0.62783757991E+02 -0.10639586831E+03  0.12354370652E+03  0.00000000000E+00 0. -1.
         -5    1    5    5    0  502  0.41872179657E+02 -0.98483640143E+01  0.26699569111E+03  0.27047931303E+03  0.47000000000E+01 0.  1.
         13    1    6    6    0    0 -0.30786222554E+02  0.30190073749E+02  0.22861784090E+03  0.23264855304E+03  0.00000000000E+00 0. -1.
        -14    1    6    6    0    0 -0.58712330265E+02 -0.50012621543E+02  0.16759939550E+03  0.18449378691E+03  0.00000000000E+00 0.  1.
</event>
<event>
12    1  0.1628146E-001  0.2428234E+03  0.7818608E-02  0.1118141E+00
         21   -1    0    0  501  502  0.00000000000E+00  0.00000000000E+00  0.13443129967E+03  0.13443129967E+03  0.00000000000E+00 0.  1.
         21   -1    0    0  502  503 -0.00000000000E+00 -0.00000000000E+00 -0.71107309118E+03  0.71107309118E+03  0.00000000000E+00 0. -1.
         -6    2    1    2    0  503 -0.11857200683E+03  0.12069528305E+03 -0.55065853185E+03  0.60129480572E+03  0.17234834647E+03 0.  0.
        -24    2    3    3    0    0 -0.43491150897E+02  0.71328209630E+02 -0.45666883130E+03  0.47117794795E+03  0.80517348807E+02 0.  0.
          6    2    1    2  501    0  0.11857200683E+03 -0.12069528305E+03 -0.25983259657E+02  0.24420958513E+03  0.17417381988E+03 0.  0.
         24    2    5    5    0    0  0.28810147536E+02 -0.97027247599E+02  0.34175006085E+02  0.13349159100E+03  0.80048500607E+02 0.  0.
          5    1    5    5  501    0  0.89761859294E+02 -0.23668035456E+02 -0.60158265742E+02  0.11071799413E+03  0.47000000000E+01 0. -1.
        -13    1    6    6    0    0  0.31974083895E+02 -0.36725739186E+02 -0.19737207810E+02  0.52542167179E+02  0.00000000000E+00 0.  1.
         14    1    6    6    0    0 -0.31639363595E+01 -0.60301508413E+02  0.53912213895E+02  0.80949423823E+02  0.00000000000E+00 0. -1.
         -5    1    3    3    0  503 -0.75080855933E+02  0.49367073425E+02 -0.93989700545E+02  0.13011685777E+03  0.47000000000E+01 0.  1.
         11    1    4    4    0    0 -0.20252821992E+02  0.78071651591E+02 -0.24061569816E+03  0.25377406050E+03  0.00000000000E+00 0. -1.
        -12    1    4    4    0    0 -0.23238328905E+02 -0.67434419610E+01 -0.21605313314E+03  0.21740388746E+03  0.00000000000E+00 0.  1.
</event>
<event>
12    1  0.1628146E-001  0.2025181E+03  0.7818608E-02  0.1147751E+00
         21   -1    0    0  503  502  0.00000000000E+00  0.00000000000E+00  0.10424640471E+03  0.10424640471E+03  0.00000000000E+00 0.  1.
         21   -1    0    0  501  503 -0.00000000000E+00 -0.00000000000E+00 -0.76776905054E+03  0.76776905054E+03  0.00000000000E+00 0.  1.
          6    2    1    2  501    0 -0.28209654419E+02  0.10413002862E+03 -0.63689978541E+03  0.66832245249E+03  0.17139053759E+03 0.  0.
         24    2    3    3    0    0 -0.23791556556E+01  0.46175605933E+02 -0.56357352031E+03  0.57124124458E+03  0.81016046212E+02 0.  0.
         -6    2    1    2    0  502  0.28209654419E+02 -0.10413002862E+03 -0.26622860411E+02  0.20369300277E+03  0.17071384015E+03 0.  0.
        -24    2    5    5    0    0  0.26569016036E+01 -0.77441026082E+02 -0.80597171034E+02  0.13811433062E+03  0.81089411754E+02 0.  0.
          5    1    3    3  501    0 -0.25830498764E+02  0.57954422688E+02 -0.73326265103E+02  0.97081207910E+02  0.47000000000E+01 0. -1.
        -13    1    4    4    0    0 -0.79952937013E+00  0.41944709263E+02 -0.11128251048E+03  0.11892768821E+03  0.00000000000E+00 0.  1.
         14    1    4    4    0    0 -0.15796262855E+01  0.42308966704E+01 -0.45229100983E+03  0.45231355637E+03  0.00000000000E+00 0. -1.
         -5    1    5    5    0  502  0.25552752816E+02 -0.26689002539E+02  0.53974310622E+02  0.65578672144E+02  0.47000000000E+01 0.  1.
         11    1    6    6    0    0  0.17923675706E+02 -0.86444836663E+02 -0.46726697040E+02  0.99886696575E+02  0.00000000000E+00 0. -1.
        -12    1    6    6    0    0 -0.15266774103E+02  0.90038105807E+01 -0.33870473994E+02  0.38227634050E+02  0.00000000000E+00 0.  1.
</event>
<event>
12    1  0.1628146E-001  0.2353529E+03  0.7818608E-02  0.1123024E+00
         21   -1    0    0  503  502  0.00000000000E+00  0.00000000000E+00  0.16516163226E+03  0.16516163226E+03  0.00000000000E+00 0. -1.
         21   -1    0    0  501  503 -0.00000000000E+00 -0.00000000000E+00 -0.33692074440E+03  0.33692074440E+03  0.00000000000E+00 0. -1.
          6    2    1    2  501    0  0.78556875715E+02 -0.13693367640E+03 -0.64843418159E+02  0.24358295029E+03  0.17379864885E+03 0.  0.
         24    2    3    3    0    0 -0.22984355098E+02 -0.49417876316E+02  0.64780133282E+01  0.91666942550E+02  0.73419729099E+02 0.  0.
         -6    2    1    2    0  502 -0.78556875715E+02  0.13693367640E+03 -0.10691569398E+03  0.25849942636E+03  0.17455364034E+03 0.  0.
        -24    2    5    5    0    0 -0.10701514222E+03  0.75905539163E+02 -0.11441405493E+03  0.19058314051E+03  0.77572327165E+02 0.  0.
          5    1    3    3  501    0  0.10154123081E+03 -0.87515800087E+02 -0.71321431487E+02  0.15191600774E+03  0.47000000000E+01 0. -1.
        -13    1    4    4    0    0 -0.14268316457E+02 -0.62154333166E+02 -0.14718100185E+02  0.65447448070E+02  0.00000000000E+00 0.  1.
         14    1    4    4    0    0 -0.87160386410E+01  0.12736456850E+02  0.21196113513E+02  0.26219494480E+02  0.00000000000E+00 0. -1.
         -5    1    5    5    0  502  0.28458266502E+02  0.61028137239E+02  0.74983609455E+01  0.67916285853E+02  0.47000000000E+01 0.  1.
         13    1    6    6    0    0 -0.85290279092E+02  0.56048152131E+02 -0.38353901804E+02  0.10902682628E+03  0.00000000000E+00 0. -1.
        -14    1    6    6    0    0 -0.21724863125E+02  0.19857387032E+02 -0.76060153123E+02  0.81556314229E+02  0.00000000000E+00 0.  1.
</event>
<event>
12    1  0.1628146E-001  0.2654254E+03  0.7818608E-02  0.1104050E+00
         21   -1    0    0  501  502  0.00000000000E+00  0.00000000000E+00  0.93042469352E+02  0.93042469352E+02  0.00000000000E+00 0.  1.
         21   -1    0    0  502  503 -0.00000000000E+00 -0.00000000000E+00 -0.80965127416E+03  0.80965127416E+03  0.00000000000E+00 0.  1.
         -6    2    1    2    0  503 -0.19807812778E+03 -0.33067645605E+02 -0.24028119780E+03  0.35740608413E+03  0.17226619247E+03 0.  0.
        -24    2    3    3    0    0 -0.10753265101E+03 -0.71202138327E+02 -0.20169695718E+03  0.25174835122E+03  0.77862406036E+02 0.  0.
          6    2    1    2  501    0  0.19807812778E+03  0.33067645605E+02 -0.47632760701E+03  0.54528765938E+03  0.17355756503E+03 0.  0.
         24    2    5    5    0    0  0.17881283648E+03 -0.35655896388E+01 -0.26337085660E+03  0.32829500301E+03  0.80166432966E+02 0.  0.
          5    1    5    5  501    0  0.19265291300E+02  0.36633235244E+02 -0.21295675041E+03  0.21699265637E+03  0.47000000000E+01 0. -1.
        -11    1    6    6    0    0  0.64868756650E+02  0.30661515326E+02 -0.13750288917E+03  0.15509715872E+03  0.00000000000E+00 0.  1.
         12    1    6    6    0    0  0.11394407983E+03 -0.34227104965E+02 -0.12586796743E+03  0.17319784429E+03  0.00000000000E+00 0. -1.
         -5    1    3    3    0  503 -0.90545476773E+02  0.38134492722E+02 -0.38584240622E+02  0.10565773291E+03  0.47000000000E+01 0.  1.
         11    1    4    4    0    0 -0.49648609705E+02 -0.38636970230E+02 -0.34292633765E+02  0.71650433667E+02  0.00000000000E+00 0. -1.
        -12    1    4    4    0    0 -0.57884041303E+02 -0.32565168098E+02 -0.16740432341E+03  0.18009791756E+03  0.00000000000E+00 0.  1.
</event>
<event>
12    1  0.1628146E-001  0.2074746E+03  0.7818608E-02  0.1143842E+00
         21   -1    0    0  503  502  0.00000000000E+00  0.00000000000E+00  0.82291649722E+02  0.82291649722E+02  0.00000000000E+00 0. -1.
         21   -1    0    0  501  503 -0.00000000000E+00 -0.00000000000E+00 -0.59074933331E+03  0.59074933331E+03  0.00000000000E+00 0. -1.
          6    2    1    2  501    0  0.54463733024E+02 -0.10092367059E+03 -0.37151904572E+03  0.42552566723E+03  0.17289825518E+03 0.  0.
         24    2    3    3    0    0  0.92300432022E+02 -0.69767697448E+02 -0.33833252486E+03  0.36614767788E+03  0.78792913883E+02 0.  0.
         -6    2    1    2    0  502 -0.54463733024E+02  0.10092367059E+03 -0.13693863787E+03  0.24751531580E+03  0.17134688650E+03 0.  0.
        -24    2    5    5    0    0 -0.52600385080E+02  0.74899576696E+02 -0.16761085299E+03  0.20697397506E+03  0.79800258214E+02 0.  0.
          5    1    3    3  501    0 -0.37836698999E+02 -0.31155973142E+02 -0.33186520859E+02  0.59377989358E+02  0.47000000000E+01 0. -1.
        -11    1    4    4    0    0  0.45786883745E+02  0.50338071725E+01 -0.70602991026E+02  0.84300416841E+02  0.00000000000E+00 0.  1.
         12    1    4    4    0    0  0.46513548277E+02 -0.74801504620E+02 -0.26772953383E+03  0.28184726103E+03  0.00000000000E+00 0. -1.
         -5    1    5    5    0  502 -0.18633479433E+01  0.26024093893E+02  0.30672215121E+02  0.40541340739E+02  0.47000000000E+01 0.  1.
         11    1    6    6    0    0  0.12833675424E+01  0.35076530065E+02 -0.11244656223E+02  0.36857187728E+02  0.00000000000E+00 0. -1.
        -12    1    6    6    0    0 -0.53883752623E+02  0.39823046632E+02 -0.15636619677E+03  0.17011678733E+03  0.00000000000E+00 0.  1.
</event>
<event>
12    1  0.1628146E-001  0.1904312E+03  0.7818608E-02  0.1158229E+00
         21   -1    0    0  501  502  0.00000000000E+00  0.00000000000E+00  0.57464737173E+02  0.57464737173E+02  0.00000000000E+00 0.  1.
         21   -1    0    0  502  503 -0.00000000000E+00 -0.00000000000E+00 -0.64062122229E+03  0.64062122229E+03  0.00000000000E+00 0.  1.
         -6    2    1    2    0  503 -0.69295322648E+02 -0.43267467684E+02 -0.24463910553E+03  0.31001988394E+03  0.17201779263E+03 0.  0.
        -24    2    3    3    0    0 -0.87410534657E+02  0.16223378014E+02 -0.15855684930E+03  0.20372046500E+03  0.91967134558E+02 0.  0.
          6    2    1    2  501    0  0.69295322648E+02  0.43267467684E+02 -0.33851737959E+03  0.38806607552E+03  0.17125229105E+03 0.  0.
         24    2    5    5    0    0 -0.24186205318E+02 -0.92315913837E+01 -0.17597552424E+03  0.19329212446E+03  0.75658875480E+02 0.  0.
          5    1    5    5  501    0  0.93481527966E+02  0.52499059068E+02 -0.16254185534E+03  0.19477395106E+03  0.47000000000E+01 0. -1.
        -11    1    6    6    0    0  0.19284186279E+02  0.14265367282E+02 -0.25949615648E+02  0.35337842272E+02  0.00000000000E+00 0.  1.
         12    1    6    6    0    0 -0.43470391597E+02 -0.23496958666E+02 -0.15002590859E+03  0.15795428219E+03  0.00000000000E+00 0. -1.
         -5    1    3    3    0  503  0.18115212008E+02 -0.59490845698E+02 -0.86082256231E+02  0.10629941893E+03  0.47000000000E+01 0.  1.
         13    1    4    4    0    0  0.45720292686E-01 -0.26809102850E+02 -0.16633147651E+02  0.31549828633E+02  0.00000000000E+00 0. -1.
        -14    1    4    4    0    0 -0.87456254949E+02  0.43032480865E+02 -0.14192370165E+03  0.17217063637E+03  0.00000000000E+00 0.  1.
</event>
<event>
12    1  0.1628146E-001  0.2851740E+03  0.7818608E-02  0.1092906E+00
         21   -1    0    0  503  502  0.00000000000E+00  0.00000000000E+00  0.30317232614E+03  0.30317232614E+03  0.00000000000E+00 0.  1.
         21   -1    0    0  501  503 -0.00000000000E+00 -0.00000000000E+00 -0.27329362764E+03  0.27329362764E+03  0.00000000000E+00 0. -1.
          6    2    1    2  501    0 -0.22132806335E+03  0.51155055601E+02  0.54381248006E+02  0.29031282090E+03  0.17239855713E+03 0.  0.
         24    2    3    3    0    0 -0.15063200208E+03  0.95534431311E+02  0.66863564697E+02  0.20578258785E+03  0.77838997701E+02 0.  0.
         -6    2    1    2    0  502  0.22132806335E+03 -0.51155055601E+02 -0.24502549502E+02  0.28615313289E+03  0.17227968304E+03 0.  0.
        -24    2    5    5    0    0  0.21003709140E+03  0.66118703003E+01 -0.75351350363E+01  0.22471627970E+03  0.79254851658E+02 0.  0.
          5    1    3    3  501    0 -0.70696061274E+02 -0.44379375710E+02 -0.12482316690E+02  0.84530233041E+02  0.47000000000E+01 0. -1.
        -13    1    4    4    0    0 -0.61271123573E+01 -0.91211582809E+01  0.17489751480E+02  0.20654985864E+02  0.00000000000E+00 0.  1.
         14    1    4    4    0    0 -0.14450488972E+03  0.10465558959E+03  0.49373813217E+02  0.18512760199E+03  0.00000000000E+00 0. -1.
         -5    1    5    5    0  502  0.11290971956E+02 -0.57766925901E+02 -0.16967414466E+02  0.61436853187E+02  0.47000000000E+01 0.  1.
         11    1    6    6    0    0  0.13507507878E+03  0.80747436484E+00 -0.42764806007E+02  0.14168541758E+03  0.00000000000E+00 0. -1.
        -12    1    6    6    0    0  0.74962012615E+02  0.58043959354E+01  0.35229670970E+02  0.83030862118E+02  0.00000000000E+00 0.  1.
</event>
<event>
12    1  0.1628146E-001  0.2659825E+03  0.7818608E-02  0.1103746E+00
         21   -1    0    0  501  502  0.00000000000E+00  0.00000000000E+00  0.15941076080E+04  0.15941076080E+04  0.00000000000E+00 0.  1.
         21   -1    0    0  502  503 -0.00000000000E+00 -0.00000000000E+00 -0.44812616329E+02  0.44812616329E+02  0.00000000000E+00 0. -1.
         -6    2    1    2    0  503 -0.20196585718E+03  0.74564262836E+01  0.67862846600E+03  0.72853189945E+03  0.17139523881E+03 0.  0.
        -24    2    3    3    0    0 -0.10038663242E+03  0.65805656693E+02  0.41295045115E+03  0.43813584374E+03  0.83827692611E+02 0.  0.
          6    2    1    2  501    0  0.20196585718E+03 -0.74564262836E+01  0.87066652567E+03  0.91038832488E+03  0.17291875953E+03 0.  0.
         24    2    5    5    0    0  0.49405601771E+02 -0.39514652399E+02  0.46554116314E+03  0.47627887928E+03  0.78170806781E+02 0.  0.
          5    1    5    5  501    0  0.15256025541E+03  0.32058226115E+02  0.40512536253E+03  0.43410944560E+03  0.47000000000E+01 0. -1.
        -11    1    6    6    0    0  0.41091033068E+02  0.16164877320E+02  0.19363525072E+03  0.19860610912E+03  0.00000000000E+00 0.  1.
         12    1    6    6    0    0  0.83145687021E+01 -0.55679529719E+02  0.27190591241E+03  0.27767277016E+03  0.00000000000E+00 0. -1.
         -5    1    3    3    0  503 -0.10157922476E+03 -0.58349230410E+02  0.26567801485E+03  0.29039605570E+03  0.47000000000E+01 0.  1.
         11    1    4    4    0    0 -0.13713792250E+02  0.25468324124E+02  0.23930738265E+02  0.37541761619E+02  0.00000000000E+00 0. -1.
        -12    1    4    4    0    0 -0.86672840170E+02  0.40337332570E+02  0.38901971288E+03  0.40059408213E+03  0.00000000000E+00 0.  1.
</event>
<event>
12    1  0.1628146E-001  0.1753361E+03  0.7818608E-02  0.1172620E+00
         21   -1    0    0  503  502  0.00000000000E+00  0.00000000000E+00  0.62273715617E+02  0.62273715617E+02  0.00000000000E+00 0.  1.
         21   -1    0    0  501  503 -0.00000000000E+00 -0.00000000000E+00 -0.51068398984E+03  0.51068398984E+03  0.00000000000E+00 0.  1.
          6    2    1    2  501    0  0.22176345631E+02  0.32142161892E+02 -0.27968279555E+03  0.32962316739E+03  0.17001193335E+03 0.  0.
         24    2    3    3    0    0  0.65341826542E+02  0.67240257031E+02 -0.18725244855E+03  0.22163893674E+03  0.72591544473E+02 0.  0.
         -6    2    1    2    0  502 -0.22176345631E+02 -0.32142161892E+02 -0.16872747868E+03  0.24333453807E+03  0.17093222773E+03 0.  0.
        -24    2    5    5    0    0 -0.28732313999E+02 -0.74175510626E+02 -0.15679082267E+03  0.19890080219E+03  0.93008681285E+02 0.  0.
          5    1    3    3  501    0 -0.43165480910E+02 -0.35098095138E+02 -0.92430346995E+02  0.10798423066E+03  0.47000000000E+01 0. -1.
        -13    1    4    4    0    0  0.40283815005E+02  0.78298458414E+02 -0.11851601221E+03  0.14764646793E+03  0.00000000000E+00 0.  1.
         14    1    4    4    0    0  0.25058011536E+02 -0.11058201383E+02 -0.68736436336E+02  0.73992468807E+02  0.00000000000E+00 0. -1.
         -5    1    5    5    0  502  0.65559683681E+01  0.42033348733E+02 -0.11936656007E+02  0.44433735873E+02  0.47000000000E+01 0.  1.
         11    1    6    6    0    0  0.18050804702E+01  0.17803277228E+02 -0.57213292463E+02  0.59946441345E+02  0.00000000000E+00 0. -1.
        -12    1    6    6    0    0 -0.30537394469E+02 -0.91978787853E+02 -0.99577530212E+02  0.13895436085E+03  0.00000000000E+00 0.  1.
</event>
<event>
12    1  0.1628146E-001  0.2141480E+03  0.7818608E-02  0.1138377E+00
         21   -1    0    0  503  502  0.00000000000E+00  0.00000000000E+00  0.10950143090E+03  0.10950143090E+03  0.00000000000E+00 0.  1.
         21   -1    0    0  501  503 -0.00000000000E+00 -0.00000000000E+00 -0.63476589039E+03  0.63476589039E+03  0.00000000000E+00 0.  1.
          6    2    1    2  501    0  0.59800356386E+02  0.11246273884E+03 -0.47985531926E+03  0.52535787554E+03  0.17180168719E+03 0.  0.
         24    2    3    3    0    0  0.57381971963E+02  0.12027784511E+03 -0.24313053160E+03  0.28844514991E+03  0.79553116747E+02 0.  0.
         -6    2    1    2    0  502 -0.59800356386E+02 -0.11246273884E+03 -0.45409140238E+02  0.21890944575E+03  0.17214936878E+03 0.  0.
        -24    2    5    5    0    0 -0.38811157377E+02  0.20592346060E+00 -0.55910813735E+02  0.10372633464E+03  0.78273782730E+02 0.  0.
          5    1    3    3  501    0  0.24183844230E+01 -0.78151062725E+01 -0.23672478766E+03  0.23691272562E+03  0.47000000000E+01 0. -1.
        -11    1    4    4    0    0  0.29613155665E+02  0.10078883870E+03 -0.22851713655E+03  0.25150628361E+03  0.00000000000E+00 0.  1.
         12    1    4    4    0    0  0.27768816298E+02  0.19489006410E+02 -0.14613395043E+02  0.36938866308E+02  0.00000000000E+00 0. -1.
         -5    1    5    5    0  502 -0.20989199010E+02 -0.11266866230E+03  0.10501673498E+02  0.11518311111E+03  0.47000000000E+01 0.  1.
         13    1    6    6    0    0 -0.22409619973E+02  0.29773992449E+02  0.12809699261E+01  0.37287029617E+02  0.00000000000E+00 0. -1.
        -14    1    6    6    0    0 -0.16401537404E+02 -0.29568068989E+02 -0.57191783662E+02  0.66439305018E+02  0.00000000000E+00 0.  1.
</event>
<event>
12    1  0.1628146E-001  0.1828001E+03  0.7818608E-02  0.1165286E+00
         21   -1    0    0  501  502  0.00000000000E+00  0.00000000000E+00  0.42659420930E+03  0.42659420930E+03  0.00000000000E+00 0. -1.
         21   -1    0    0  502  503 -0.00000000000E+00 -0.00000000000E+00 -0.18989791382E+03  0.18989791382E+03  0.00000000000E+00 0. -1.
         -6    2    1    2    0  503  0.19686108199E+02 -0.58656143374E+02 -0.11814255810E+03  0.21765459783E+03  0.17201097032E+03 0.  0.
        -24    2    3    3    0    0  0.63368486847E+02 -0.65905744871E+01 -0.20717510093E+02  0.98773549523E+02  0.72580975906E+02 0.  0.
          6    2    1    2  501    0 -0.19686108199E+02  0.58656143374E+02  0.35483885358E+03  0.39883752528E+03  0.17126784157E+03 0.  0.
         24    2    5    5    0    0 -0.64439312196E+02  0.24468532881E+02  0.10618603654E+03  0.14384349516E+03  0.68295993190E+02 0.  0.
          5    1    5    5  501    0  0.44753203997E+02  0.34187610494E+02  0.24865281704E+03  0.25499403013E+03  0.47000000000E+01 0. -1.
        -11    1    6    6    0    0 -0.74258592763E+02  0.33995266214E+02  0.80136271020E+02  0.11441957288E+03  0.00000000000E+00 0.  1.
         12    1    6    6    0    0  0.98192805674E+01 -0.95267333334E+01  0.26049765518E+02  0.29423922281E+02  0.00000000000E+00 0. -1.
         -5    1    3    3    0  503 -0.43682378648E+02 -0.52065568887E+02 -0.97425048005E+02  0.11888104831E+03  0.47000000000E+01 0.  1.
         13    1    4    4    0    0  0.75622729368E+02  0.24583417154E+01 -0.29476602788E+02  0.81201667181E+02  0.00000000000E+00 0. -1.
        -14    1    4    4    0    0 -0.12254242521E+02 -0.90489162025E+01  0.87590926945E+01  0.17571882342E+02  0.00000000000E+00 0.  1.
</event>
<event>
12    1  0.1628146E-001  0.1771791E+03  0.7818608E-02  0.1170690E+00
         21   -1    0    0  503  502  0.00000000000E+00  0.00000000000E+00  0.15993881825E+03  0.15993881825E+03  0.00000000000E+00 0.  1.
         21   -1    0    0  501  503 -0.00000000000E+00 -0.00000000000E+00 -0.19957349429E+03  0.19957349429E+03  0.00000000000E+00 0.  1.
          6    2    1    2  501    0 -0.29694110763E+02  0.30430372089E+02  0.51876625438E+01  0.17725505901E+03  0.17200202424E+03 0.  0.
         24    2    3    3    0    0 -0.18483948488E+02  0.80454393326E+02  0.31796479970E+02  0.11930517028E+03  0.80050869831E+02 0.  0.
         -6    2    1    2    0  502  0.29694110763E+02 -0.30430372089E+02 -0.44822338585E+02  0.18225725353E+03  0.17146695504E+03 0.  0.
        -24    2    5    5    0    0  0.24889022689E+02  0.44495143995E+02 -0.51890611375E+02  0.10669951196E+03  0.78056831946E+02 0.  0.
          5    1    3    3  501    0 -0.11210162275E+02 -0.50024021237E+02 -0.26608817426E+02  0.57949888729E+02  0.47000000000E+01 0. -1.
        -11    1    4    4    0    0 -0.39949713212E+01  0.29541065517E+02 -0.26979298935E+02  0.40205931388E+02  0.00000000000E+00 0.  1.
         12    1    4    4    0    0 -0.14488977167E+02  0.50913327809E+02  0.58775778905E+02  0.79099238896E+02  0.00000000000E+00 0. -1.
         -5    1    5    5    0  502  0.48050880737E+01 -0.74925516084E+02  0.70682727899E+01  0.75557741576E+02  0.47000000000E+01 0.  1.
         13    1    6    6    0    0 -0.12430413129E+02 -0.10558545984E+02  0.71092063479E+01  0.17791539528E+02  0.00000000000E+00 0. -1.
        -14    1    6    6    0    0  0.37319435818E+02  0.55053689979E+02 -0.58999817723E+02  0.88907972429E+02  0.00000000000E+00 0.  1.
</event>
<event>
12    1  0.1628146E-001  0.1816524E+03  0.7818608E-02  0.1166865E+00
         21   -1    0    0  501  502  0.00000000000E+00  0.00000000000E+00  0.13948233116E+03  0.13948233116E+03  0.00000000000E+00 0. -1.
         21   -1    0    0  502  503 -0.00000000000E+00 -0.00000000000E+00 -0.25488528621E+03  0.25488528621E+03  0.00000000000E+00 0. -1.
         -6    2    1    2    0  503  0.54262399138E+02  0.16479596489E+02 -0.11579255749E+03  0.21541937012E+03  0.17257347303E+03 0.  0.
        -24    2    3    3    0    0  0.45720026265E+02  0.74680689537E+02 -0.97471425094E+02  0.15362864866E+03  0.80209455734E+02 0.  0.
          6    2    1    2  501    0 -0.54262399138E+02 -0.16479596489E+02  0.38960243724E+00  0.17894824725E+03  0.16972430098E+03 0.  0.
         24    2    5    5    0    0 -0.31760701138E+02  0.55818421428E+02 -0.84089755907E+01  0.10257524951E+03  0.79539503612E+02 0.  0.
          5    1    5    5  501    0 -0.22501698000E+02 -0.72298017917E+02  0.87985780280E+01  0.76372997735E+02  0.47000000000E+01 0. -1.
        -13    1    6    6    0    0 -0.42957813885E+02  0.20883539438E+01 -0.18416921000E+02  0.46785873670E+02  0.00000000000E+00 0.  1.
         14    1    6    6    0    0  0.11197112746E+02  0.53730067484E+02  0.10007945410E+02  0.55789375844E+02  0.00000000000E+00 0. -1.
         -5    1    3    3    0  503  0.85423728733E+01 -0.58201093048E+02 -0.18321132391E+02  0.61790721458E+02  0.47000000000E+01 0.  1.
         11    1    4    4    0    0  0.93080923836E+01  0.81176685113E+02 -0.69198450741E+02  0.10707343450E+03  0.00000000000E+00 0. -1.
        -12    1    4    4    0    0  0.36411933881E+02 -0.64959955762E+01 -0.28272974353E+02  0.46555214168E+02  0.00000000000E+00 0.  1.
</event>
<event>
12    1  0.1628146E-001  0.1961643E+03  0.7818608E-02  0.1153317E+00
         21   -1    0    0  501  502  0.00000000000E+00  0.00000000000E+00  0.68040909637E+02  0.68040909637E+02  0.00000000000E+00 0.  1.
         21   -1    0    0  502  503 -0.00000000000E+00 -0.00000000000E+00 -0.71906062305E+03  0.71906062305E+03  0.00000000000E+00 0. -1.
         -6    2    1    2    0  503 -0.71132678764E+02  0.63404883811E+02 -0.50879360741E+03  0.54480278416E+03  0.16987966745E+03 0.  0.
        -24    2    3    3    0    0 -0.79620590223E+02  0.66637308550E+01 -0.42988947296E+03  0.44713213600E+03  0.93479112026E+02 0.  0.
          6    2    1    2  501    0  0.71132678764E+02 -0.63404883811E+02 -0.14222610600E+03  0.24229874852E+03  0.17146539309E+03 0.  0.
         24    2    5    5    0    0  0.77505156921E+02 -0.50075324143E+02 -0.25909198863E+02  0.12495311151E+03  0.80171104854E+02 0.  0.
          5    1    5    5  501    0 -0.63724781572E+01 -0.13329559668E+02 -0.11631690714E+03  0.11734563701E+03  0.47000000000E+01 0. -1.
        -13    1    6    6    0    0  0.46602993536E+02 -0.68999498102E+02 -0.29963849779E+02  0.88490688993E+02  0.00000000000E+00 0.  1.
         14    1    6    6    0    0  0.30902163385E+02  0.18924173960E+02  0.40546509154E+01  0.36462422519E+02  0.00000000000E+00 0. -1.
         -5    1    3    3    0  503  0.84879114593E+01  0.56741152956E+02 -0.78904134453E+02  0.97670648168E+02  0.47000000000E+01 0.  1.
         11    1    4    4    0    0 -0.74025161655E+02 -0.20540139764E+02 -0.18005400231E+03  0.19575767073E+03  0.00000000000E+00 0. -1.
        -12    1    4    4    0    0 -0.55954285684E+01  0.27203870619E+02 -0.24983547065E+03  0.25137446527E+03  0.00000000000E+00 0.  1.
</event>
<event>
12    1  0.1628146E-001  0.1832150E+03  0.7818608E-02  0.1164931E+00
         21   -1    0    0  501  502  0.00000000000E+00  0.00000000000E+00  0.37113590291E+03  0.37113590291E+03  0.00000000000E+00 0.  1.
         21   -1    0    0  502  503 -0.00000000000E+00 -0.00000000000E+00 -0.17319175553E+03  0.17319175553E+03  0.00000000000E+00 0.  1.
         -6    2    1    2    0  503  0.13032305679E+02 -0.57863297785E+02  0.28769610324E+03  0.34108179667E+03  0.17334861402E+03 0.  0.
        -24    2    3    3    0    0  0.27340149573E+02 -0.44054383809E+01  0.26849468975E+03  0.28231750982E+03  0.82745913875E+02 0.  0.
          6    2    1    2  501    0 -0.13032305679E+02  0.57863297785E+02 -0.89751955858E+02  0.20324586177E+03  0.17243974172E+03 0.  0.
         24    2    5    5    0    0 -0.36029066919E+02 -0.26437861245E+02 -0.60694595934E+02  0.11103980662E+03  0.81541097046E+02 0.  0.
          5    1    5    5  501    0  0.22996761240E+02  0.84301159030E+02 -0.29057359924E+02  0.92206055154E+02  0.47000000000E+01 0. -1.
        -13    1    6    6    0    0 -0.41650570495E+01  0.28154727280E+02 -0.10547210042E+02  0.30352594750E+02  0.00000000000E+00 0.  1.
         14    1    6    6    0    0 -0.31864009870E+02 -0.54592588525E+02 -0.50147385892E+02  0.80687211866E+02  0.00000000000E+00 0. -1.
         -5    1    3    3    0  503 -0.14307843894E+02 -0.53457859404E+02  0.19201413488E+02  0.58764286849E+02  0.47000000000E+01 0.  1.
         11    1    4    4    0    0  0.54387209029E+02 -0.30332729276E+01  0.12597359769E+03  0.13724618962E+03  0.00000000000E+00 0. -1.
        -12    1    4    4    0    0 -0.27047059456E+02 -0.13721654533E+01  0.14252109206E+03  0.14507132020E+03  0.00000000000E+00 0.  1.
</event>
<event>
12    1  0.1628146E-001  0.1790931E+03  0.7818608E-02  0.1169011E+00
         21   -1    0    0  501  502  0.00000000000E+00  0.00000000000E+00  0.39887403956E+03  0.39887403956E+03  0.00000000000E+00 0. -1.
         21   -1    0    0  502  503 -0.00000000000E+00 -0.00000000000E+00 -0.10940839845E+03  0.10940839845E+03  0.00000000000E+00 0. -1.
         -6    2    1    2    0  503  0.25950349992E+02  0.30773975906E+02  0.12949213468E+02  0.17956068020E+03  0.17451045094E+03 0.  0.
        -24    2    3    3    0    0 -0.44962137579E+02  0.46166811000E+02  0.22833952107E+02  0.10617595206E+03  0.81234076435E+02 0.  0.
          6    2    1    2  501    0 -0.25950349992E+02 -0.30773975906E+02  0.27651642764E+03  0.32872175780E+03  0.17313636545E+03 0.  0.
         24    2    5    5    0    0 -0.55179337537E+02 -0.49822596495E+01  0.27220513460E+03  0.28922209213E+03  0.80524537083E+02 0.  0.
          5    1    5    5  501    0  0.29228987546E+02 -0.25791716256E+02  0.43112930388E+01  0.39499665670E+02  0.47000000000E+01 0. -1.
        -13    1    6    6    0    0 -0.50088847776E+02 -0.30884625249E+02  0.10875839071E+03  0.12365735036E+03  0.00000000000E+00 0.  1.
         14    1    6    6    0    0 -0.50904897610E+01  0.25902365599E+02  0.16344674389E+03  0.16556474178E+03  0.00000000000E+00 0. -1.
         -5    1    3    3    0  503  0.70912487570E+02 -0.15392835094E+02 -0.98847386386E+01  0.73384728136E+02  0.47000000000E+01 0.  1.
         13    1    4    4    0    0 -0.33968172962E+02 -0.17758169970E+02  0.34853182576E+01  0.38488138671E+02  0.00000000000E+00 0. -1.
        -14    1    4    4    0    0 -0.10993964617E+02  0.63924980970E+02  0.19348633849E+02  0.67687813392E+02  0.00000000000E+00 0.  1.
</event>
<event>
12    1  0.1628146E-001  0.1811218E+03  0.7818608E-02  0.1166933E+00
         21   -1    0    0  501  502  0.00000000000E+00  0.00000000000E+00  0.75086123935E+03  0.75086123935E+03  0.00000000000E+00 0. -1.
         21   -1    0    0  502  503 -0.00000000000E+00 -0.00000000000E+00 -0.92704036374E+02  0.92704036374E+02  0.00000000000E+00 0. -1.
         -6    2    1    2    0  503 -0.46934095400E+02  0.33400009073E+02  0.22103173842E+02  0.18246546937E+03  0.17171699771E+03 0.  0.
        -24    2    3    3    0    0  0.20868807155E+02 -0.72302226474E+01 -0.26308518554E+02  0.89654741086E+02  0.82813351696E+02 0.  0.
          6    2    1    2  501    0  0.46934095400E+02 -0.33400009073E+02  0.63605402914E+03  0.66109980635E+03  0.17079185011E+03 0.  0.
         24    2    5    5    0    0 -0.34463164425E+02  0.18293196347E+01  0.34694140218E+03  0.35865176028E+03  0.84093355815E+02 0.  0.
          5    1    5    5  501    0  0.81397259825E+02 -0.35229328708E+02  0.28911262696E+03  0.30244804607E+03  0.47000000000E+01 0. -1.
        -13    1    6    6    0    0 -0.40248576755E+02 -0.34326249634E+02  0.17338222869E+03  0.18127227193E+03  0.00000000000E+00 0.  1.
         14    1    6    6    0    0  0.57854123301E+01  0.36155569268E+02  0.17355917349E+03  0.17737948835E+03  0.00000000000E+00 0. -1.
         -5    1    3    3    0  503 -0.67802902555E+02  0.40630231721E+02  0.48411692396E+02  0.92810728287E+02  0.47000000000E+01 0.  1.
         11    1    4    4    0    0 -0.50380506422E+01 -0.34251510404E+02 -0.37052461712E+02  0.50709297354E+02  0.00000000000E+00 0. -1.
        -12    1    4    4    0    0  0.25906857797E+02  0.27021287757E+02  0.10743943157E+02  0.38945443732E+02  0.00000000000E+00 0.  1.
</event>
<event>
12    1  0.1628146E-001  0.1761785E+03  0.7818608E-02  0.1171859E+00
         21   -1    0    0  501  502  0.00000000000E+00  0.00000000000E+00  0.22744315662E+03  0.22744315662E+03  0.00000000000E+00 0.  1.
         21   -1    0    0  502  503 -0.00000000000E+00 -0.00000000000E+00 -0.37513706292E+03  0.37513706292E+03  0.00000000000E+00 0.  1.
         -6    2    1    2    0  503 -0.87556207493E+00 -0.36575994196E+02 -0.31473286117E+03  0.36068772099E+03  0.17233771559E+03 0.  0.
        -24    2    3    3    0    0 -0.59501586084E+02 -0.16106907318E+02 -0.12088979579E+03  0.15708708689E+03  0.79133677615E+02 0.  0.
          6    2    1    2  501    0  0.87556207493E+00  0.36575994196E+02  0.16703895487E+03  0.24189249855E+03  0.17108886127E+03 0.  0.
         24    2    5    5    0    0 -0.42433705935E+01 -0.90906452795E+01  0.17736642583E+03  0.19455971827E+03  0.79334664158E+02 0.  0.
          5    1    5    5  501    0  0.51189326684E+01  0.45666639476E+02 -0.10327470954E+02  0.47332780279E+02  0.47000000000E+01 0. -1.
        -11    1    6    6    0    0  0.35503742979E+02 -0.16848935561E+02  0.81011184152E+02  0.90040070817E+02  0.00000000000E+00 0.  1.
         12    1    6    6    0    0 -0.39747113572E+02  0.77582902817E+01  0.96355241678E+02  0.10451964746E+03  0.00000000000E+00 0. -1.
         -5    1    3    3    0  503  0.58626024009E+02 -0.20469086879E+02 -0.19384306538E+03  0.20360063410E+03  0.47000000000E+01 0.  1.
         13    1    4    4    0    0  0.14361355836E+02  0.13930368121E+02 -0.17967280024E+02  0.26891017997E+02  0.00000000000E+00 0. -1.
        -14    1    4    4    0    0 -0.73862941919E+02 -0.30037275438E+02 -0.10292251576E+03  0.13019606889E+03  0.00000000000E+00 0.  1.
</event>
<event>
12    1  0.1628146E-001  0.2531454E+03  0.7818608E-02  0.1111384E+00
         21   -1    0    0  503  502  0.00000000000E+00  0.00000000000E+00  0.33491754216E+03  0.33491754216E+03  0.00000000000E+00 0. -1.
         21   -1    0    0  501  503 -0.00000000000E+00 -0.00000000000E+00 -0.22463782529E+03  0.22463782529E+03  0.00000000000E+00 0.  1.
          6    2    1    2  501    0  0.11295700760E+03  0.14683434647E+03 -0.52948954020E+02  0.25862364222E+03  0.17251952271E+03 0.  0.
         24    2    3    3    0    0  0.69426283194E+02  0.15348555231E+03  0.34020018679E+01  0.18695298759E+03  0.81006310776E+02 0.  0.
         -6    2    1    2    0  502 -0.11295700760E+03 -0.14683434647E+03  0.16322867089E+03  0.30093172523E+03  0.17203689541E+03 0.  0.
        -24    2    5    5    0    0 -0.67403433678E+02 -0.16608715453E+03  0.15581470784E+03  0.25070368961E+03  0.80286680287E+02 0.  0.
          5    1    3    3  501    0  0.43530724401E+02 -0.66512058393E+01 -0.56350955888E+02  0.71670654633E+02  0.47000000000E+01 0. -1.
        -11    1    4    4    0    0  0.30825368675E+02  0.66145626354E+02 -0.38690094889E+02  0.82597643322E+02  0.00000000000E+00 0.  1.
         12    1    4    4    0    0  0.38600914519E+02  0.87339925958E+02  0.42092096757E+02  0.10435534427E+03  0.00000000000E+00 0. -1.
         -5    1    5    5    0  502 -0.45553573917E+02  0.19252808057E+02  0.74139630480E+01  0.50228035626E+02  0.47000000000E+01 0.  1.
         11    1    6    6    0    0 -0.35201837834E+02 -0.81487456575E+02  0.12844971227E+03  0.15613681035E+03  0.00000000000E+00 0. -1.
        -12    1    6    6    0    0 -0.32201595844E+02 -0.84599697955E+02  0.27364995574E+02  0.94566879253E+02  0.00000000000E+00 0.  1.
</event>
<event>
12    1  0.1628146E-001  0.1893760E+03  0.7818608E-02  0.1159393E+00
         21   -1    0    0  501  502  0.00000000000E+00  0.00000000000E+00  0.73000161468E+02  0.73000161468E+02  0.00000000000E+00 0.  1.
         21   -1    0    0  502  503 -0.00000000000E+00 -0.00000000000E+00 -0.10955505929E+04  0.10955505929E+04  0.00000000000E+00 0.  1.
         -6    2    1    2    0  503  0.72730567806E+02  0.30871533932E+02 -0.94767425600E+03  0.96641077190E+03  0.17210606457E+03 0.  0.
        -24    2    3    3    0    0  0.87161453557E+02 -0.33167315885E+02 -0.60782016750E+03  0.62024301457E+03  0.80986735136E+02 0.  0.
          6    2    1    2  501    0 -0.72730567806E+02 -0.30871533932E+02 -0.74876175440E+02  0.20213998247E+03  0.17032716685E+03 0.  0.
         24    2    5    5    0    0 -0.21712664857E+02  0.37180549027E+02 -0.72031425070E+02  0.11691032202E+03  0.81398182758E+02 0.  0.
          5    1    5    5  501    0 -0.51017902949E+02 -0.68052082959E+02 -0.28447503701E+01  0.85229660453E+02  0.47000000000E+01 0. -1.
        -13    1    6    6    0    0  0.23986662715E+02 -0.95876023158E+01 -0.27902015024E+02  0.38023736649E+02  0.00000000000E+00 0.  1.
         14    1    6    6    0    0 -0.45699327572E+02  0.46768151343E+02 -0.44129410046E+02  0.78886585372E+02  0.00000000000E+00 0. -1.
         -5    1    3    3    0  503 -0.14430885751E+02  0.64038849816E+02 -0.33985408849E+03  0.34616775733E+03  0.47000000000E+01 0.  1.
         13    1    4    4    0    0  0.50566289588E+02  0.12795515312E+02 -0.15306381842E+03  0.16170716547E+03  0.00000000000E+00 0. -1.
        -14    1    4    4    0    0  0.36595163969E+02 -0.45962831196E+02 -0.45475634908E+03  0.45853584910E+03  0.00000000000E+00 0.  1.
</event>
<event>
12    1  0.1628146E-001  0.1774142E+03  0.7818608E-02  0.1170521E+00
         21   -1    0    0  501  502  0.00000000000E+00  0.00000000000E+00  0.21630802889E+03  0.21630802889E+03  0.00000000000E+00 0. -1.
         21   -1    0    0  502  503 -0.00000000000E+00 -0.00000000000E+00 -0.16401720645E+03  0.16401720645E+03  0.00000000000E+00 0. -1.
         -6    2    1    2    0  503  0.26490726712E+02 -0.35448075394E+02 -0.38764393669E+02  0.18159977936E+03  0.17180651034E+03 0.  0.
        -24    2    3    3    0    0 -0.30549070452E+02  0.29229321418E+02 -0.27164966029E+02  0.94460001759E+02  0.79982233133E+02 0.  0.
          6    2    1    2  501    0 -0.26490726712E+02  0.35448075394E+02  0.91055216103E+02  0.19872545598E+03  0.17100418072E+03 0.  0.
         24    2    5    5    0    0 -0.70951407542E+02  0.12024541645E+02  0.10043369241E+03  0.14738872555E+03  0.80360550116E+02 0.  0.
          5    1    5    5  501    0  0.44460680830E+02  0.23423533749E+02 -0.93784763062E+01  0.51336730428E+02  0.47000000000E+01 0. -1.
        -13    1    6    6    0    0 -0.67010807500E+02 -0.24340282930E+02  0.66591184859E+02  0.97556566134E+02  0.00000000000E+00 0.  1.
         14    1    6    6    0    0 -0.39406000424E+01  0.36364824575E+02  0.33842507551E+02  0.49832159419E+02  0.00000000000E+00 0. -1.
         -5    1    3    3    0  503  0.57039797164E+02 -0.64677396812E+02 -0.11599427641E+02  0.87139777601E+02  0.47000000000E+01 0.  1.
         13    1    4    4    0    0 -0.46739040660E+02 -0.15168915440E+00  0.61972005477E+01  0.47148342771E+02  0.00000000000E+00 0. -1.
        -14    1    4    4    0    0  0.16189970208E+02  0.29381010572E+02 -0.33362166576E+02  0.47311658988E+02  0.00000000000E+00 0.  1.
</event>
<event>
12    1  0.1628146E-001  0.1834444E+03  0.7818608E-02  0.1165549E+00
         21   -1    0    0  501  502  0.00000000000E+00  0.00000000000E+00  0.17143621107E+03  0.17143621107E+03  0.00000000000E+00 0.  1.
         21   -1    0    0  502  503 -0.00000000000E+00 -0.00000000000E+00 -0.22185419171E+03  0.22185419171E+03  0.00000000000E+00 0.  1.
         -6    2    1    2    0  503 -0.49623542026E+02  0.67684361575E+01 -0.97471874077E+02  0.20390739886E+03  0.17195683592E+03 0.  0.
        -24    2    3    3    0    0  0.20929308313E+02 -0.30960204419E+02 -0.83320966029E+02  0.12252255254E+03  0.81687344782E+02 0.  0.
          6    2    1    2  501    0  0.49623542026E+02 -0.67684361575E+01  0.47053893437E+02  0.18938300392E+03  0.17647534002E+03 0.  0.
         24    2    5    5    0    0 -0.20941104724E+01  0.50742153617E+02  0.57981897125E+02  0.11112896389E+03  0.80053699279E+02 0.  0.
          5    1    5    5  501    0  0.51717652499E+02 -0.57510589775E+02 -0.10928003688E+02  0.78254040029E+02  0.47000000000E+01 0. -1.
        -11    1    6    6    0    0  0.25974852904E+02 -0.82382794456E+01  0.28608024453E+02  0.39509255811E+02  0.00000000000E+00 0.  1.
         12    1    6    6    0    0 -0.28068963377E+02  0.58980433063E+02  0.29373872671E+02  0.71619708077E+02  0.00000000000E+00 0. -1.
         -5    1    3    3    0  503 -0.70552850340E+02  0.37728640576E+02 -0.14150908048E+02  0.81384846313E+02  0.47000000000E+01 0.  1.
         13    1    4    4    0    0  0.50958188981E+02 -0.24334143318E+02 -0.39200037801E+02  0.68742494273E+02  0.00000000000E+00 0. -1.
        -14    1    4    4    0    0 -0.30028880668E+02 -0.66260611002E+01 -0.44120928227E+02  0.53780058270E+02  0.00000000000E+00 0.  1.
</event>
<event>
12    1  0.1628146E-001  0.3642231E+03  0.7818608E-02  0.1057082E+00
         21   -1    0    0  503  502  0.00000000000E+00  0.00000000000E+00  0.17562672689E+03  0.17562672689E+03  0.00000000000E+00 0. -1.
         21   -1    0    0  501  503 -0.00000000000E+00 -0.00000000000E+00 -0.13353093109E+04  0.13353093109E+04  0.00000000000E+00 0.  1.
          6    2    1    2  501    0  0.60289037566E+01  0.31918030548E+03 -0.10798837225E+04  0.11396522682E+04  0.17534543960E+03 0.  0.
         24    2    3    3    0    0  0.55372550307E+02  0.13255063660E+03 -0.60771506245E+03  0.62952408597E+03  0.79669235596E+02 0.  0.
         -6    2    1    2    0  502 -0.60289037566E+01 -0.31918030548E+03 -0.79798861466E+02  0.37128376955E+03  0.17196326396E+03 0.  0.
        -24    2    5    5    0    0  0.12215204554E+02 -0.21453682438E+03  0.10289111444E+02  0.23192438347E+03  0.86647525044E+02 0.  0.
          5    1    3    3  501    0 -0.49343646550E+02  0.18662966888E+03 -0.47216866008E+03  0.51012818225E+03  0.47000000000E+01 0. -1.
        -11    1    4    4    0    0 -0.12471604474E+02  0.71230766621E+02 -0.29297783101E+03  0.30177039698E+03  0.00000000000E+00 0.  1.
         12    1    4    4    0    0  0.67844154781E+02  0.61319869974E+02 -0.31473723144E+03  0.32775368899E+03  0.00000000000E+00 0. -1.
         -5    1    5    5    0  502 -0.18244108311E+02 -0.10464348110E+03 -0.90087972911E+02  0.13935938607E+03  0.47000000000E+01 0.  1.
         11    1    6    6    0    0 -0.22760054446E+02 -0.29151163567E+02 -0.18046883406E+02  0.41152161746E+02  0.00000000000E+00 0. -1.
        -12    1    6    6    0    0  0.34975259000E+02 -0.18538566082E+03  0.28335994851E+02  0.19077222173E+03  0.00000000000E+00 0.  1.
</event>
<event>
12    1  0.1628146E-001  0.1864735E+03  0.7818608E-02  0.1161765E+00
         21   -1    0    0  503  502  0.00000000000E+00  0.00000000000E+00  0.24183215483E+03  0.24183215483E+03  0.00000000000E+00 0.  1.
         21   -1    0    0  501  503 -0.00000000000E+00 -0.00000000000E+00 -0.15637407366E+03  0.15637407366E+03  0.00000000000E+00 0.  1.
          6    2    1    2  501    0 -0.72830185629E+02  0.99438479133E+01 -0.14347496711E+02  0.18702463585E+03  0.17137458301E+03 0.  0.
         24    2    3    3    0    0 -0.26613846002E+02 -0.10402742365E+02 -0.70541090349E+02  0.11132956500E+03  0.81250924721E+02 0.  0.
         -6    2    1    2    0  502  0.72830185629E+02 -0.99438479133E+01  0.99805577881E+02  0.21118159264E+03  0.17097776359E+03 0.  0.
        -24    2    5    5    0    0  0.10411607642E+03 -0.37782587715E+02  0.78485439413E+02  0.16395405088E+03  0.91941749472E+02 0.  0.
          5    1    3    3  501    0 -0.46216339627E+02  0.20346590278E+02  0.56193593638E+02  0.75695070846E+02  0.47000000000E+01 0. -1.
        -11    1    4    4    0    0 -0.15416983718E+02 -0.97755342039E+01 -0.88387062638E+02  0.90252519620E+02  0.00000000000E+00 0.  1.
         12    1    4    4    0    0 -0.11196862284E+02 -0.62720816074E+00  0.17845972289E+02  0.21077045382E+02  0.00000000000E+00 0. -1.
         -5    1    5    5    0  502 -0.31285890791E+02  0.27838739802E+02  0.21320138468E+02  0.47227541759E+02  0.47000000000E+01 0.  1.
         13    1    6    6    0    0  0.90665385406E+00 -0.35320838997E+02  0.18512421014E+01  0.35380938173E+02  0.00000000000E+00 0. -1.
        -14    1    6    6    0    0  0.10320942257E+03 -0.24617487177E+01  0.76634197311E+02  0.12857311270E+03  0.00000000000E+00 0.  1.
</event>
<event>
12    1  0.1628146E-001  0.1899590E+03  0.7818608E-02  0.1159178E+00
         21   -1    0    0  503  502  0.00000000000E+00  0.00000000000E+00  0.19443422209E+03  0.19443422209E+03  0.00000000000E+00 0. -1.
         21   -1    0    0  501  503 -0.00000000000E+00 -0.00000000000E+00 -0.18269726291E+03  0.18269726291E+03  0.00000000000E+00 0. -1.
          6    2    1    2  501    0  0.36089545609E+02 -0.71244736970E+02  0.39328180466E+01  0.18701228899E+03  0.16905579353E+03 0.  0.
         24    2    3    3    0    0  0.73921095642E+02 -0.93109189650E+02  0.41895352436E+01  0.14306417899E+03  0.79474257003E+02 0.  0.
         -6    2    1    2    0  502 -0.36089545609E+02  0.71244736970E+02  0.78041411238E+01  0.19011919601E+03  0.17235468147E+03 0.  0.
        -24    2    5    5    0    0  0.13319792217E+02  0.98610758217E+02  0.26046290710E+02  0.13057889197E+03  0.80442148581E+02 0.  0.
          5    1    3    3  501    0 -0.37831550033E+02  0.21864452680E+02 -0.25671719693E+00  0.43948110001E+02  0.47000000000E+01 0. -1.
        -11    1    4    4    0    0  0.13170359676E+01  0.13574098344E+02 -0.24151116599E+01  0.13850035882E+02  0.00000000000E+00 0.  1.
         12    1    4    4    0    0  0.72604059674E+02 -0.10668328799E+03  0.66046469035E+01  0.12921414311E+03  0.00000000000E+00 0. -1.
         -5    1    5    5    0  502 -0.49409337826E+02 -0.27366021247E+02 -0.18242149586E+02  0.59540304037E+02  0.47000000000E+01 0.  1.
         13    1    6    6    0    0 -0.39539639637E+01  0.80678894290E+02 -0.15398259970E+02  0.82230312081E+02  0.00000000000E+00 0. -1.
        -14    1    6    6    0    0  0.17273756181E+02  0.17931863927E+02  0.41444550680E+02  0.48348579892E+02  0.00000000000E+00 0.  1.
</event>
<event>
12    1  0.1628146E-001  0.1907512E+03  0.7818608E-02  0.1158930E+00
         21   -1    0    0  503  502  0.00000000000E+00  0.00000000000E+00  0.15096141066E+03  0.15096141066E+03  0.00000000000E+00 0.  1.
         21   -1    0    0  501  503 -0.00000000000E+00 -0.00000000000E+00 -0.90701511877E+03  0.90701511877E+03  0.00000000000E+00 0.  1.
          6    2    1    2  501    0  0.69053373229E+02  0.17336760243E+02 -0.83213778617E+03  0.85261148467E+03  0.17153459418E+03 0.  0.
         24    2    3    3    0    0  0.10911950215E+03  0.17923140381E+02 -0.53596647256E+03  0.55370485119E+03  0.84265638402E+02 0.  0.
         -6    2    1    2    0  502 -0.69053373229E+02 -0.17336760243E+02  0.76084078057E+02  0.20536504476E+03  0.17696633314E+03 0.  0.
        -24    2    5    5    0    0 -0.38506750294E+02  0.11605298572E+02  0.11673333149E+03  0.14666929751E+03  0.79169181983E+02 0.  0.
          5    1    3    3  501    0 -0.40066128917E+02 -0.58638013895E+00 -0.29617131361E+03  0.29890663348E+03  0.47000000000E+01 0. -1.
        -13    1    4    4    0    0  0.38836910470E+02 -0.22496323442E+02 -0.31792793671E+03  0.32108030635E+03  0.00000000000E+00 0.  1.
         14    1    4    4    0    0  0.70282591677E+02  0.40419463824E+02 -0.21803853585E+03  0.23262454484E+03  0.00000000000E+00 0. -1.
         -5    1    5    5    0  502 -0.30546622935E+02 -0.28942058814E+02 -0.40649253437E+02  0.58695747258E+02  0.47000000000E+01 0.  1.
         13    1    6    6    0    0 -0.35288315394E+02  0.40175848513E+02  0.46815529585E+02  0.71070794405E+02  0.00000000000E+00 0. -1.
        -14    1    6    6    0    0 -0.32184349004E+01 -0.28570549941E+02  0.69917801909E+02  0.75598503100E+02  0.00000000000E+00 0.  1.
</event>
<event>
12    1  0.1628146E-001  0.1783886E+03  0.7818608E-02  0.1169874E+00
         21   -1    0    0  503  502  0.00000000000E+00  0.00000000000E+00  0.25098529564E+03  0.25098529564E+03  0.00000000000E+00 0.  1.
         21   -1    0    0  501  503 -0.00000000000E+00 -0.00000000000E+00 -0.16506648429E+03  0.16506648429E+03  0.00000000000E+00 0.  1.
          6    2    1    2  501    0 -0.10937682142E+01  0.41712342235E+02 -0.58898311936E+02  0.18786033183E+03  0.17343983770E+03 0.  0.
         24    2    3    3    0    0 -0.16210759889E+02  0.93022496274E+02 -0.38434463384E+02  0.13039630445E+03  0.81301996840E+02 0.  0.
         -6    2    1    2    0  502  0.10937682142E+01 -0.41712342235E+02  0.14481712329E+03  0.22819144809E+03  0.17134241145E+03 0.  0.
        -24    2    5    5    0    0  0.42302175004E+01  0.38682048290E+02  0.44983840721E+02  0.99887630339E+02  0.80248346828E+02 0.  0.
          5    1    3    3  501    0  0.15116991675E+02 -0.51310154039E+02 -0.20463848552E+02  0.57464027377E+02  0.47000000000E+01 0. -1.
        -11    1    4    4    0    0  0.26900146423E+02  0.41686336533E+02  0.59946906839E+01  0.49973041207E+02  0.00000000000E+00 0.  1.
         12    1    4    4    0    0 -0.43110906312E+02  0.51336159741E+02 -0.44429154067E+02  0.80423263246E+02  0.00000000000E+00 0. -1.
         -5    1    5    5    0  502 -0.31364492862E+01 -0.80394390526E+02  0.99833282569E+02  0.12830381776E+03  0.47000000000E+01 0.  1.
         11    1    6    6    0    0  0.30174058284E+02 -0.44728045883E+01  0.38499009563E+02  0.49118769442E+02  0.00000000000E+00 0. -1.
        -12    1    6    6    0    0 -0.25943840783E+02  0.43154852879E+02  0.64848311585E+01  0.50768860896E+02  0.00000000000E+00 0.  1.
</event>
<event>
12    1  0.1628146E-001  0.2440487E+03  0.7818608E-02  0.1117601E+00
         21   -1    0    0  501  502  0.00000000000E+00  0.00000000000E+00  0.91095038385E+03  0.91095038385E+03  0.00000000000E+00 0. -1.
         21   -1    0    0  502  503 -0.00000000000E+00 -0.00000000000E+00 -0.64979876300E+02  0.64979876300E+02  0.00000000000E+00 0.  1.
         -6    2    1    2    0  503  0.16706111071E+03  0.46076299125E+02  0.45745691174E+03  0.51712467149E+03  0.16768619418E+03 0.  0.
        -24    2    3    3    0    0  0.43350814574E+01  0.40177198531E+02  0.12585023138E+03  0.14766609405E+03  0.65833079696E+02 0.  0.
          6    2    1    2  501    0 -0.16706111071E+03 -0.46076299125E+02  0.38851359581E+03  0.45880558866E+03  0.17183513610E+03 0.  0.
         24    2    5    5    0    0 -0.54667750665E+02 -0.70869000766E+02  0.22926631684E+03  0.26226365599E+03  0.90599133456E+02 0.  0.
          5    1    5    5  501    0 -0.11239336005E+03  0.24792701641E+02  0.15924727898E+03  0.19654193267E+03  0.47000000000E+01 0. -1.
        -13    1    6    6    0    0 -0.42993726111E+02 -0.64130058285E+02  0.23519087780E+03  0.24753964099E+03  0.00000000000E+00 0.  1.
         14    1    6    6    0    0 -0.11674024554E+02 -0.67389424811E+01 -0.59245609627E+01  0.14724014998E+02  0.00000000000E+00 0. -1.
         -5    1    3    3    0  503  0.16272602925E+03  0.58991005941E+01  0.33160668036E+03  0.36945857744E+03  0.47000000000E+01 0.  1.
         11    1    4    4    0    0  0.61810510545E+01 -0.89218595742E+01  0.79112445867E+02  0.79853516275E+02  0.00000000000E+00 0. -1.
        -12    1    4    4    0    0 -0.18459695971E+01  0.49099058105E+02  0.46737785510E+02  0.67812577779E+02  0.00000000000E+00 0.  1.
</event>
<event>
12    1  0.1628146E-001  0.1817591E+03  0.7818608E-02  0.1167242E+00
         21   -1    0    0  501  502  0.00000000000E+00  0.00000000000E+00  0.41721933619E+03  0.41721933619E+03  0.00000000000E+00 0.  1.
         21   -1    0    0  502  503 -0.00000000000E+00 -0.00000000000E+00 -0.20726390832E+03  0.20726390832E+03  0.00000000000E+00 0.  1.
         -6    2    1    2    0  503  0.11047977663E+02 -0.40540707111E+02 -0.14188993764E+03  0.23058434108E+03  0.17683545233E+03 0.  0.
        -24    2    3    3    0    0  0.71179845760E+02 -0.44447240430E+02 -0.59619672222E+02  0.12849815623E+03  0.76909968245E+02 0.  0.
          6    2    1    2  501    0 -0.11047977663E+02  0.40540707111E+02  0.35184536551E+03  0.39389890343E+03  0.17203365411E+03 0.  0.
         24    2    5    5    0    0 -0.68969086778E+02  0.11497665722E+02  0.26390235069E+03  0.28456264691E+03  0.80265298030E+02 0.  0.
          5    1    5    5  501    0  0.57921109115E+02  0.29043041389E+02  0.87943014823E+02  0.10933625652E+03  0.47000000000E+01 0. -1.
        -11    1    6    6    0    0 -0.49097615488E+02 -0.29453805791E+02  0.18284111737E+03  0.19159586823E+03  0.00000000000E+00 0.  1.
         12    1    6    6    0    0 -0.19871471291E+02  0.40951471513E+02  0.81061233324E+02  0.92966778681E+02  0.00000000000E+00 0. -1.
         -5    1    3    3    0  503 -0.60131868097E+02  0.39065333183E+01 -0.82270265423E+02  0.10208618484E+03  0.47000000000E+01 0.  1.
         13    1    4    4    0    0 -0.48079002662E+01  0.50463186492E+01 -0.33370581429E+02  0.34090716358E+02  0.00000000000E+00 0. -1.
        -14    1    4    4    0    0  0.75987746026E+02 -0.49493559079E+02 -0.26249090792E+02  0.94407439875E+02  0.00000000000E+00 0.  1.
</event>
<event>
12    1  0.1628146E-001  0.1825617E+03  0.7818608E-02  0.1166814E+00
         21   -1    0    0  501  502  0.00000000000E+00  0.00000000000E+00  0.41081809617E+03  0.41081809617E+03  0.00000000000E+00 0.  1.
         21   -1    0    0  502  503 -0.00000000000E+00 -0.00000000000E+00 -0.10069067283E+03  0.10069067283E+03  0.00000000000E+00 0. -1.
         -6    2    1    2    0  503 -0.18741484289E+02  0.56418157932E+02  0.32846184735E+02  0.17952436283E+03  0.16618024317E+03 0.  0.
        -24    2    3    3    0    0 -0.40114225936E+02  0.93914804544E+02  0.96028640597E+01  0.13027870770E+03  0.80319269470E+02 0.  0.
          6    2    1    2  501    0  0.18741484289E+02 -0.56418157932E+02  0.27728123860E+03  0.33198440618E+03  0.17261085970E+03 0.  0.
         24    2    5    5    0    0  0.16645095858E+02 -0.90111913230E+02  0.27138536729E+03  0.29739372406E+03  0.79973704489E+02 0.  0.
          5    1    5    5  501    0  0.20963884314E+01  0.33693755298E+02  0.58958713108E+01  0.34590682113E+02  0.47000000000E+01 0. -1.
        -11    1    6    6    0    0 -0.32034399357E+02 -0.27076960895E+02  0.97188564254E+02  0.10585358556E+03  0.00000000000E+00 0.  1.
         12    1    6    6    0    0  0.48679495215E+02 -0.63034952335E+02  0.17419680304E+03  0.19154013851E+03  0.00000000000E+00 0. -1.
         -5    1    3    3    0  503  0.21372741647E+02 -0.37496646612E+02  0.23243320676E+02  0.49245655125E+02  0.47000000000E+01 0.  1.
         13    1    4    4    0    0  0.22650838257E+01  0.66891140444E+02  0.33247751951E+02  0.74732645372E+02  0.00000000000E+00 0. -1.
        -14    1    4    4    0    0 -0.42379309762E+02  0.27023664100E+02 -0.23644887891E+02  0.55546062332E+02  0.00000000000E+00 0.  1.
</event>
<event>
12    1  0.1628146E-001  0.2018845E+03  0.7818608E-02  0.1148661E+00
         21   -1    0    0  503  502  0.00000000000E+00  0.00000000000E+00  0.13493558953E+03  0.13493558953E+03  0.00000000000E+00 0.  1.
         21   -1    0    0  501  503 -0.00000000000E+00 -0.00000000000E+00 -0.43340465437E+03  0.43340465437E+03  0.00000000000E+00 0.  1.
          6    2    1    2  501    0 -0.10440343622E+03 -0.23480415301E+02 -0.30717584546E+03  0.36626805099E+03  0.16835640096E+03 0.  0.
         24    2    3    3    0    0 -0.99267448299E+01 -0.32591911807E+02 -0.71279736516E+02  0.11194949327E+03  0.79316550783E+02 0.  0.
         -6    2    1    2    0  502  0.10440343622E+03  0.23480415301E+02  0.87067806205E+01  0.20207219290E+03  0.17118982364E+03 0.  0.
        -24    2    5    5    0    0  0.29741127658E+01  0.20593819424E+02  0.45019416290E+02  0.94197554545E+02  0.80084210017E+02 0.  0.
          5    1    3    3  501    0 -0.94476691386E+02  0.91114965065E+01 -0.23589610895E+03  0.25431855772E+03  0.47000000000E+01 0. -1.
        -13    1    4    4    0    0 -0.53381785072E+01 -0.29305450433E+02 -0.88736631666E+02  0.93602859861E+02  0.00000000000E+00 0.  1.
         14    1    4    4    0    0 -0.45885663227E+01 -0.32864613740E+01  0.17456895150E+02  0.18346633412E+02  0.00000000000E+00 0. -1.
         -5    1    5    5    0  502  0.10142932345E+03  0.28865958774E+01 -0.36312635669E+02  0.10787463836E+03  0.47000000000E+01 0.  1.
         11    1    6    6    0    0 -0.11692183423E+02  0.10926651675E+02 -0.20703681229E+02  0.26167561721E+02  0.00000000000E+00 0. -1.
        -12    1    6    6    0    0  0.14666296189E+02  0.96671677487E+01  0.65723097518E+02  0.68029992824E+02  0.00000000000E+00 0.  1.
</event>
<event>
12    1  0.1628146E-001  0.1761852E+03  0.7818608E-02  0.1171732E+00
         21   -1    0    0  501  502  0.00000000000E+00  0.00000000000E+00  0.48060470127E+02  0.48060470127E+02  0.00000000000E+00 0. -1.
         21   -1    0    0  502  503 -0.00000000000E+00 -0.00000000000E+00 -0.78269970810E+03  0.78269970810E+03  0.00000000000E+00 0. -1.
         -6    2    1    2    0  503  0.29327843644E+02 -0.14333618806E+02 -0.54206862039E+03  0.56975316056E+03  0.17237952230E+03 0.  0.
        -24    2    3    3    0    0  0.62105037599E+01  0.31111792290E+02 -0.48706127565E+03  0.49460267973E+03  0.79978813325E+02 0.  0.
          6    2    1    2  501    0 -0.29327843644E+02  0.14333618806E+02 -0.19257061758E+03  0.26100701767E+03  0.17313476103E+03 0.  0.
         24    2    5    5    0    0  0.41017783115E+02  0.18421266395E+01 -0.15923566651E+03  0.18202693446E+03  0.78050979613E+02 0.  0.
          5    1    5    5  501    0 -0.70345626759E+02  0.12491492166E+02 -0.33334951070E+02  0.78980083207E+02  0.47000000000E+01 0. -1.
        -11    1    6    6    0    0  0.98160768216E+01 -0.22000957141E+02 -0.13213772447E+03  0.13431595478E+03  0.00000000000E+00 0.  1.
         12    1    6    6    0    0  0.31201706293E+02  0.23843083781E+02 -0.27097942040E+02  0.47710979686E+02  0.00000000000E+00 0. -1.
         -5    1    3    3    0  503  0.23117339884E+02 -0.45445411096E+02 -0.55007344740E+02  0.75150480826E+02  0.47000000000E+01 0.  1.
         13    1    4    4    0    0 -0.71883378669E+01 -0.24897075642E+02 -0.21195839103E+03  0.21353663879E+03  0.00000000000E+00 0. -1.
        -14    1    4    4    0    0  0.13398841627E+02  0.56008867933E+02 -0.27510288462E+03  0.28106604094E+03  0.00000000000E+00 0.  1.
</event>
<event>
12    1  0.1628146E-001  0.3260147E+03  0.7818608E-02  0.1072964E+00
         21   -1    0    0  501  502  0.00000000000E+00  0.00000000000E+00  0.58394822315E+03  0.58394822315E+03  0.00000000000E+00 0.  1.
         21   -1    0    0  502  503 -0.00000000000E+00 -0.00000000000E+00 -0.27156159187E+03  0.27156159187E+03  0.00000000000E+00 0.  1.
         -6    2    1    2    0  503 -0.12971872999E+03 -0.24407052587E+03  0.40209825975E+03  0.51737709673E+03  0.17204266685E+03 0.  0.
        -24    2    3    3    0    0 -0.96158647361E+02 -0.13993678908E+03  0.11753714679E+03  0.21247181424E+03  0.50005005430E+02 0.  0.
          6    2    1    2  501    0  0.12971872999E+03  0.24407052587E+03 -0.89711628461E+02  0.33813271829E+03  0.17288200712E+03 0.  0.
         24    2    5    5    0    0  0.10867402005E+03  0.75707522090E+02 -0.21641702319E+02  0.15525410909E+03  0.78062818133E+02 0.  0.
          5    1    5    5  501    0  0.21044709947E+02  0.16836300378E+03 -0.68069926142E+02  0.18287860920E+03  0.47000000000E+01 0. -1.
        -11    1    6    6    0    0  0.52344602121E+02  0.60850367170E+02 -0.45541609145E+02  0.92286308407E+02  0.00000000000E+00 0.  1.
         12    1    6    6    0    0  0.56329417924E+02  0.14857154920E+02  0.23899906826E+02  0.62967800679E+02  0.00000000000E+00 0. -1.
         -5    1    3    3    0  503 -0.33560082631E+02 -0.10413373679E+03  0.28456111296E+03  0.30490528249E+03  0.47000000000E+01 0.  1.
         13    1    4    4    0    0 -0.91214219909E+02 -0.11140569047E+03  0.11328087963E+03  0.18320431074E+03  0.00000000000E+00 0. -1.
        -14    1    4    4    0    0 -0.49444274519E+01 -0.28531098613E+02  0.42562671580E+01  0.29267503498E+02  0.00000000000E+00 0.  1.
</event>
<event>
12    1  0.1628146E-001  0.1842958E+03  0.7818608E-02  0.1164117E+00
         21   -1    0    0  501  502  0.00000000000E+00  0.00000000000E+00  0.87494363329E+03  0.87494363329E+03  0.00000000000E+00 0.  1.
         21   -1    0    0  502  503 -0.00000000000E+00 -0.00000000000E+00 -0.87363186829E+02  0.87363186829E+02  0.00000000000E+00 0. -1.
         -6    2    1    2    0  503 -0.43539063783E+02  0.48653231203E+02  0.34606863761E+02  0.18751685437E+03  0.17234311321E+03 0.  0.
        -24    2    3    3    0    0 -0.11071892925E+02  0.53035230440E+02 -0.41617243954E+02  0.10441737364E+03  0.78966261417E+02 0.  0.
          6    2    1    2  501    0  0.43539063783E+02 -0.48653231203E+02  0.75297358270E+03  0.77478996575E+03  0.17049189952E+03 0.  0.
         24    2    5    5    0    0 -0.83819398400E+01 -0.36374762207E+01  0.62314914328E+03  0.62782505877E+03  0.75933928490E+02 0.  0.
          5    1    5    5  501    0  0.51921003623E+02 -0.45015754982E+02  0.12982443941E+03  0.14696490698E+03  0.47000000000E+01 0. -1.
        -11    1    6    6    0    0 -0.30768696312E+02  0.24966593645E+02  0.28789961669E+03  0.29061354538E+03  0.00000000000E+00 0.  1.
         12    1    6    6    0    0  0.22386756472E+02 -0.28604069866E+02  0.33524952660E+03  0.33721151339E+03  0.00000000000E+00 0. -1.
         -5    1    3    3    0  503 -0.32467170858E+02 -0.43819992365E+01  0.76224107715E+02  0.83099480731E+02  0.47000000000E+01 0.  1.
         11    1    4    4    0    0 -0.23831382247E+02  0.31742686590E+02 -0.61100460496E+02  0.72861507016E+02  0.00000000000E+00 0. -1.
        -12    1    4    4    0    0  0.12759489322E+02  0.21292543850E+02  0.19483216543E+02  0.31555866621E+02  0.00000000000E+00 0.  1.
</event>
<event>
12    1  0.1628146E-001  0.1888483E+03  0.7818608E-02  0.1159598E+00
         21   -1    0    0  501  502  0.00000000000E+00  0.00000000000E+00  0.25392590812E+03  0.25392590812E+03  0.00000000000E+00 0. -1.
         21   -1    0    0  502  503 -0.00000000000E+00 -0.00000000000E+00 -0.19874400836E+03  0.19874400836E+03  0.00000000000E+00 0. -1.
         -6    2    1    2    0  503  0.76555311267E+02  0.11707652164E+02 -0.95331216547E+02  0.21117896225E+03  0.17178686924E+03 0.  0.
        -24    2    3    3    0    0  0.60984226101E+02  0.72882964814E+00 -0.13407433515E+03  0.16774956579E+03  0.80276911064E+02 0.  0.
          6    2    1    2  501    0 -0.76555311267E+02 -0.11707652164E+02  0.15051311630E+03  0.24149095423E+03  0.17223791103E+03 0.  0.
         24    2    5    5    0    0  0.10804491742E+02 -0.90932758761E+01  0.11937979973E+03  0.14859346479E+03  0.87344470262E+02 0.  0.
          5    1    5    5  501    0 -0.87359803009E+02 -0.26143762877E+01  0.31133316569E+02  0.92897489448E+02  0.47000000000E+01 0. -1.
        -11    1    6    6    0    0  0.28015694048E+02  0.25265677688E+02  0.21458721687E+02  0.43401731745E+02  0.00000000000E+00 0.  1.
         12    1    6    6    0    0 -0.17211202307E+02 -0.34358953564E+02  0.97921078043E+02  0.10519173304E+03  0.00000000000E+00 0. -1.
         -5    1    3    3    0  503  0.15571085165E+02  0.10978822516E+02  0.38743118607E+02  0.43429396455E+02  0.47000000000E+01 0.  1.
         11    1    4    4    0    0  0.79271145038E+02  0.13002551927E+00 -0.12309498227E+03  0.14641142716E+03  0.00000000000E+00 0. -1.
        -12    1    4    4    0    0 -0.18286918936E+02  0.59880412888E+00 -0.10979352883E+02  0.21338138632E+02  0.00000000000E+00 0.  1.
</event>
<event>
12    1  0.1628146E-001  0.1940088E+03  0.7818608E-02  0.1155101E+00
         21   -1    0    0  501  502  0.00000000000E+00  0.00000000000E+00  0.25806702765E+03  0.25806702765E+03  0.00000000000E+00 0.  1.
         21   -1    0    0  502  503 -0.00000000000E+00 -0.00000000000E+00 -0.24554650290E+03  0.24554650290E+03  0.00000000000E+00 0.  1.
         -6    2    1    2    0  503 -0.32283904062E+02  0.83634005231E+02 -0.15474657283E+03  0.24816507212E+03  0.17205378207E+03 0.  0.
        -24    2    3    3    0    0 -0.80293023920E+02  0.88942364615E+02 -0.11828430476E+03  0.18746382615E+03  0.82424483318E+02 0.  0.
          6    2    1    2  501    0  0.32283904062E+02 -0.83634005231E+02  0.16726709758E+03  0.25544845843E+03  0.17099337908E+03 0.  0.
         24    2    5    5    0    0  0.77441429699E+02 -0.27005087513E+02  0.13128129351E+03  0.17443546850E+03  0.80414581136E+02 0.  0.
          5    1    5    5  501    0 -0.45157525636E+02 -0.56628917718E+02  0.35985804071E+02  0.81012989935E+02  0.47000000000E+01 0. -1.
        -11    1    6    6    0    0 -0.10992431646E+02  0.11516188981E+02  0.33462266080E+02  0.37056435519E+02  0.00000000000E+00 0.  1.
         12    1    6    6    0    0  0.88433861345E+02 -0.38521276494E+02  0.97819027431E+02  0.13737903298E+03  0.00000000000E+00 0. -1.
         -5    1    3    3    0  503  0.48009119858E+02 -0.53083593836E+01 -0.36462268075E+02  0.60701245968E+02  0.47000000000E+01 0.  1.
         13    1    4    4    0    0 -0.43187914893E+02  0.17648100782E+02 -0.91566852495E+02  0.10276740694E+03  0.00000000000E+00 0. -1.
        -14    1    4    4    0    0 -0.37105109027E+02  0.71294263833E+02 -0.26717452260E+02  0.84696419208E+02  0.00000000000E+00 0.  1.
</event>
<event>
12    1  0.1628146E-001  0.1964362E+03  0.7818608E-02  0.1153028E+00
         21   -1    0    0  503  502  0.00000000000E+00  0.00000000000E+00  0.19650338544E+04  0.19650338544E+04  0.00000000000E+00 0. -1.
         21   -1    0    0  501  503 -0.00000000000E+00 -0.00000000000E+00 -0.24411345205E+02  0.24411345205E+02  0.00000000000E+00 0. -1.
          6    2    1    2  501    0  0.78260837429E+01 -0.93418458795E+02  0.52744295793E+03  0.56283501552E+03  0.17262365073E+03 0.  0.
         24    2    3    3    0    0 -0.29644612436E+02 -0.11205212383E+03  0.33695388406E+03  0.36774671805E+03  0.90913404692E+02 0.  0.
         -6    2    1    2    0  502 -0.78260837429E+01  0.93418458795E+02  0.14131795513E+04  0.14266101841E+04  0.17132401233E+03 0.  0.
        -24    2    5    5    0    0 -0.81060528512E+01  0.25157296577E+01  0.32858733378E+03  0.33820504225E+03  0.79630256155E+02 0.  0.
          5    1    3    3  501    0  0.37470696179E+02  0.18633665032E+02  0.19048907387E+03  0.19508829747E+03  0.47000000000E+01 0. -1.
        -11    1    4    4    0    0  0.11441393601E+02 -0.82175550333E+02  0.27703085945E+03  0.28918821492E+03  0.00000000000E+00 0.  1.
         12    1    4    4    0    0 -0.41086006037E+02 -0.29876573494E+02  0.59923024607E+02  0.78558503129E+02  0.00000000000E+00 0. -1.
         -5    1    5    5    0  502  0.27996910821E+00  0.90902729138E+02  0.10845922175E+04  0.10884051419E+04  0.47000000000E+01 0.  1.
         11    1    6    6    0    0 -0.32063081628E+02 -0.14683556488E+02  0.27309694821E+03  0.27536446967E+03  0.00000000000E+00 0. -1.
        -12    1    6    6    0    0  0.23957028777E+02  0.17199286146E+02  0.55490385566E+02  0.62840572578E+02  0.00000000000E+00 0.  1.
</event>
<event>
12    1  0.1628146E-001  0.2493713E+03  0.7818608E-02  0.1113900E+00
         21   -1    0    0  501  502  0.00000000000E+00  0.00000000000E+00  0.62049952204E+02  0.62049952204E+02  0.00000000000E+00 0. -1.
         21   -1    0    0  502  503 -0.00000000000E+00 -0.00000000000E+00 -0.99727737663E+03  0.99727737663E+03  0.00000000000E+00 0. -1.
         -6    2    1    2    0  503  0.16213372845E+03  0.73317154745E+02 -0.47332538061E+03  0.53499809914E+03  0.17470918428E+03 0.  0.
        -24    2    3    3    0    0  0.18241006916E+03  0.95699769205E+02 -0.43566599431E+03  0.48649623527E+03  0.66647199325E+02 0.  0.
          6    2    1    2  501    0 -0.16213372845E+03 -0.73317154745E+02 -0.46190204382E+03  0.52432922969E+03  0.17293030951E+03 0.  0.
         24    2    5    5    0    0 -0.11777259137E+03  0.20934855923E+02 -0.28634095387E+03  0.32013535540E+03  0.78656547345E+02 0.  0.
          5    1    5    5  501    0 -0.44361137079E+02 -0.94252010668E+02 -0.17556108995E+03  0.20419387430E+03  0.47000000000E+01 0. -1.
        -13    1    6    6    0    0 -0.59636272462E+02  0.48311981037E+02 -0.18302219215E+03  0.19846323419E+03  0.00000000000E+00 0.  1.
         14    1    6    6    0    0 -0.58136318910E+02 -0.27377125115E+02 -0.10331876172E+03  0.12167212121E+03  0.00000000000E+00 0. -1.
         -5    1    3    3    0  503 -0.20276340706E+02 -0.22382614459E+02 -0.37659386299E+02  0.48501863870E+02  0.47000000000E+01 0.  1.
         13    1    4    4    0    0  0.99791913156E+02  0.81378179216E+02 -0.30709912841E+03  0.33300256554E+03  0.00000000000E+00 0. -1.
        -14    1    4    4    0    0  0.82618156001E+02  0.14321589988E+02 -0.12856686590E+03  0.15349366973E+03  0.00000000000E+00 0.  1.
</event>
<event>
12    1  0.1628146E-001  0.2531703E+03  0.7818608E-02  0.1111365E+00
         21   -1    0    0  503  502  0.00000000000E+00  0.00000000000E+00  0.63314806703E+03  0.63314806703E+03  0.00000000000E+00 0.  1.
         21   -1    0    0  501  503 -0.00000000000E+00 -0.00000000000E+00 -0.10961126918E+03  0.10961126918E+03  0.00000000000E+00 0. -1.
          6    2    1    2  501    0 -0.17347351131E+03 -0.64600826319E+02  0.15849254671E+03  0.29868893190E+03  0.17271034940E+03 0.  0.
         24    2    3    3    0    0 -0.18643719020E+03 -0.32393737851E+02  0.95287351832E+02  0.22642317115E+03  0.79872353619E+02 0.  0.
         -6    2    1    2    0  502  0.17347351131E+03  0.64600826319E+02  0.36504425113E+03  0.44407040431E+03  0.17226402064E+03 0.  0.
        -24    2    5    5    0    0  0.13047091469E+03  0.25162497498E+02  0.35115336236E+03  0.38390686147E+03  0.80124799668E+02 0.  0.
          5    1    3    3  501    0  0.12963678887E+02 -0.32207088469E+02  0.63205194880E+02  0.72265760756E+02  0.47000000000E+01 0. -1.
        -11    1    4    4    0    0 -0.21429642822E+01 -0.54234221530E+00  0.27351033138E+02  0.27440215829E+02  0.00000000000E+00 0.  1.
         12    1    4    4    0    0 -0.18429422592E+03 -0.31851395635E+02  0.67936318694E+02  0.19898295532E+03  0.00000000000E+00 0. -1.
         -5    1    5    5    0  502  0.43002596619E+02  0.39438328822E+02  0.13890888770E+02  0.60163542840E+02  0.47000000000E+01 0.  1.
         13    1    6    6    0    0  0.83768598976E+02 -0.16367133538E+02  0.14261410925E+03  0.16620422796E+03  0.00000000000E+00 0. -1.
        -14    1    6    6    0    0  0.46702315717E+02  0.41529631035E+02  0.20853925311E+03  0.21770263351E+03  0.00000000000E+00 0.  1.
</event>
<event>
12    1  0.1628146E-001  0.2004724E+03  0.7818608E-02  0.1149354E+00
         21   -1    0    0  501  502  0.00000000000E+00  0.00000000000E+00  0.71342856609E+03  0.71342856609E+03  0.00000000000E+00 0.  1.
         21   -1    0    0  502  503 -0.00000000000E+00 -0.00000000000E+00 -0.61368879499E+02  0.61368879499E+02  0.00000000000E+00 0. -1.
         -6    2    1    2    0  503 -0.55870458979E+02  0.86724821673E+02  0.21481544991E+03  0.29378631958E+03  0.17181973452E+03 0.  0.
        -24    2    3    3    0    0 -0.23180218617E+02  0.11037742083E+03  0.21117541529E+03  0.25300106350E+03  0.81816774228E+02 0.  0.
          6    2    1    2  501    0  0.55870458979E+02 -0.86724821673E+02  0.43724423668E+03  0.48101112601E+03  0.17189088968E+03 0.  0.
         24    2    5    5    0    0  0.55154406597E+02  0.43569958907E+01  0.30775002108E+03  0.32262156798E+03  0.79458219627E+02 0.  0.
          5    1    5    5  501    0  0.71605238156E+00 -0.91081817564E+02  0.12949421560E+03  0.15838955804E+03  0.47000000000E+01 0. -1.
        -13    1    6    6    0    0  0.17640818078E+02  0.30346095055E+02  0.22842074990E+03  0.23110197518E+03  0.00000000000E+00 0.  1.
         14    1    6    6    0    0  0.37513588519E+02 -0.25989099164E+02  0.79329271183E+02  0.91519592795E+02  0.00000000000E+00 0. -1.
         -5    1    3    3    0  503 -0.32690240362E+02 -0.23652599156E+02  0.36400346275E+01  0.40785256084E+02  0.47000000000E+01 0.  1.
         11    1    4    4    0    0  0.44128006277E+01  0.84459042497E+00 -0.64192102157E+01  0.78353303797E+01  0.00000000000E+00 0. -1.
        -12    1    4    4    0    0 -0.27593019245E+02  0.10953283040E+03  0.21759462550E+03  0.24516573312E+03  0.00000000000E+00 0.  1.
</event>
<event>
12    1  0.1628146E-001  0.2198640E+03  0.7818608E-02  0.1134073E+00
         21   -1    0    0  501  502  0.00000000000E+00  0.00000000000E+00  0.84207073765E+03  0.84207073765E+03  0.00000000000E+00 0.  1.
         21   -1    0    0  502  503 -0.00000000000E+00 -0.00000000000E+00 -0.90152709209E+02  0.90152709209E+02  0.00000000000E+00 0.  1.
         -6    2    1    2    0  503 -0.82173001889E+02 -0.10872331559E+03  0.65766823203E+03  0.69344622455E+03  0.17253116046E+03 0.  0.
        -24    2    3    3    0    0  0.15432948278E+02 -0.85710993839E+02  0.32154350708E+03  0.34264940418E+03  0.80211201718E+02 0.  0.
          6    2    1    2  501    0  0.82173001889E+02  0.10872331559E+03  0.94249796416E+02  0.23877722231E+03  0.17192549601E+03 0.  0.
         24    2    5    5    0    0 -0.76196074796E+01  0.46220686437E+02 -0.16270771457E+02  0.83193877218E+02  0.66798749464E+02 0.  0.
          5    1    5    5  501    0  0.89792609369E+02  0.62502629152E+02  0.11052056787E+03  0.15558334510E+03  0.47000000000E+01 0. -1.
        -11    1    6    6    0    0  0.23333371881E+02  0.44579136906E+02 -0.13366793041E+02  0.52061663889E+02  0.00000000000E+00 0.  1.
         12    1    6    6    0    0 -0.30952979361E+02  0.16415495309E+01 -0.29039784158E+01  0.31132213330E+02  0.00000000000E+00 0. -1.
         -5    1    3    3    0  503 -0.97605950167E+02 -0.23012321750E+02  0.33612472494E+03  0.35079682036E+03  0.47000000000E+01 0.  1.
         11    1    4    4    0    0  0.44755210392E+02 -0.26350265575E+02  0.13027431806E+03  0.14024536819E+03  0.00000000000E+00 0. -1.
        -12    1    4    4    0    0 -0.29322262114E+02 -0.59360728263E+02  0.19126918902E+03  0.20240403599E+03  0.00000000000E+00 0.  1.
</event>
<event>
12    1  0.1628146E-001  0.1783087E+03  0.7818608E-02  0.1169901E+00
         21   -1    0    0  503  502  0.00000000000E+00  0.00000000000E+00  0.26846624612E+02  0.26846624612E+02  0.00000000000E+00 0.  1.
         21   -1    0    0  501  503 -0.00000000000E+00 -0.00000000000E+00 -0.16173354465E+04  0.16173354465E+04  0.00000000000E+00 0.  1.
          6    2    1    2  501    0 -0.47152944767E+02 -0.32442797741E+01 -0.12295197314E+04  0.12423818850E+04  0.17193037207E+03 0.  0.
         24    2    3    3    0    0 -0.68558723054E+02 -0.14416756570E+02 -0.44807458060E+03  0.46054964902E+03  0.80168622642E+02 0.  0.
         -6    2    1    2    0  502  0.47152944767E+02  0.32442797741E+01 -0.36096909054E+03  0.40180018612E+03  0.17003170201E+03 0.  0.
        -24    2    5    5    0    0 -0.43735970978E+01  0.43222928509E+02 -0.29668692157E+03  0.31010741585E+03  0.79095701756E+02 0.  0.
          5    1    3    3  501    0  0.21405778288E+02  0.11172476796E+02 -0.78144515079E+03  0.78183223601E+03  0.47000000000E+01 0. -1.
        -13    1    4    4    0    0 -0.44500307412E+02 -0.27760182832E+02 -0.41126172049E+03  0.41459270116E+03  0.00000000000E+00 0.  1.
         14    1    4    4    0    0 -0.24058415642E+02  0.13343426261E+02 -0.36812860107E+02  0.45956947862E+02  0.00000000000E+00 0. -1.
         -5    1    5    5    0  502  0.51526541864E+02 -0.39978648735E+02 -0.64282168972E+02  0.91692770265E+02  0.47000000000E+01 0.  1.
         11    1    6    6    0    0 -0.35943450490E+02  0.58011226047E+01 -0.79050860055E+02  0.87032310851E+02  0.00000000000E+00 0. -1.
        -12    1    6    6    0    0  0.31569853392E+02  0.37421805904E+02 -0.21763606151E+03  0.22307510500E+03  0.00000000000E+00 0.  1.
</event>
<event>
12    1  0.1628146E-001  0.1944924E+03  0.7818608E-02  0.1154741E+00
         21   -1    0    0  501  502  0.00000000000E+00  0.00000000000E+00  0.23594433201E+04  0.23594433201E+04  0.00000000000E+00 0.  1.
         21   -1    0    0  502  503 -0.00000000000E+00 -0.00000000000E+00 -0.16194277737E+02  0.16194277737E+02  0.00000000000E+00 0.  1.
         -6    2    1    2    0  503  0.23050501619E+02 -0.87164949629E+02  0.10238504191E+04  0.10421597704E+04  0.17233180849E+03 0.  0.
        -24    2    3    3    0    0 -0.49247684412E+00 -0.34502476202E+02  0.91009937047E+03  0.91453140751E+03  0.83043168264E+02 0.  0.
          6    2    1    2  501    0 -0.23050501619E+02  0.87164949629E+02  0.13193986232E+04  0.13334778274E+04  0.17094249094E+03 0.  0.
         24    2    5    5    0    0  0.29363376129E+02  0.98687392382E+02  0.10666780752E+04  0.10750794013E+04  0.85977866711E+02 0.  0.
          5    1    5    5  501    0 -0.52413877749E+02 -0.11522442753E+02  0.25272054795E+03  0.25839842613E+03  0.47000000000E+01 0. -1.
        -13    1    6    6    0    0  0.10189154756E+02  0.37055417395E+02  0.79151262601E+03  0.79244505170E+03  0.00000000000E+00 0.  1.
         14    1    6    6    0    0  0.19174221374E+02  0.61631974987E+02  0.27516544924E+03  0.28263434957E+03  0.00000000000E+00 0. -1.
         -5    1    3    3    0  503  0.23542978464E+02 -0.52662473426E+02  0.11375104866E+03  0.12762836289E+03  0.47000000000E+01 0.  1.
         13    1    4    4    0    0 -0.18291077848E+02  0.10197539436E+02  0.62868722529E+03  0.62903591358E+03  0.00000000000E+00 0. -1.
        -14    1    4    4    0    0  0.17798601004E+02 -0.44700015638E+02  0.28141214519E+03  0.28549549393E+03  0.00000000000E+00 0.  1.
</event>
<event>
12    1  0.1628146E-001  0.2184260E+03  0.7818608E-02  0.1135514E+00
         21   -1    0    0  501  502  0.00000000000E+00  0.00000000000E+00  0.12192224442E+03  0.12192224442E+03  0.00000000000E+00 0. -1.
         21   -1    0    0  502  503 -0.00000000000E+00 -0.00000000000E+00 -0.50869948243E+03  0.50869948243E+03  0.00000000000E+00 0. -1.
         -6    2    1    2    0  503 -0.11323527659E+03  0.72583270233E+02 -0.34839366599E+03  0.41120319754E+03  0.17210277216E+03 0.  0.
        -24    2    3    3    0    0 -0.14771930846E+03  0.83338542785E+02 -0.28973672653E+03  0.34215574365E+03  0.66006631526E+02 0.  0.
          6    2    1    2  501    0  0.11323527659E+03 -0.72583270233E+02 -0.38383572025E+02  0.21941852931E+03  0.16905807706E+03 0.  0.
         24    2    5    5    0    0  0.27893383006E+02  0.23894110988E+02 -0.96386547829E+01  0.87359890232E+02  0.78675773907E+02 0.  0.
          5    1    5    5  501    0  0.85341893581E+02 -0.96477381221E+02 -0.28744917242E+02  0.13205863908E+03  0.47000000000E+01 0. -1.
        -13    1    6    6    0    0  0.35481492397E+02 -0.85677290129E+01  0.20975350126E+02  0.42098783784E+02  0.00000000000E+00 0.  1.
         14    1    6    6    0    0 -0.75881093909E+01  0.32461840001E+02 -0.30614004909E+02  0.45261106448E+02  0.00000000000E+00 0. -1.
         -5    1    3    3    0  503  0.34484031875E+02 -0.10755272552E+02 -0.58656939466E+02  0.69047453897E+02  0.47000000000E+01 0.  1.
         13    1    4    4    0    0 -0.92844251983E+02  0.82051384711E+02 -0.22840254246E+03  0.25984650519E+03  0.00000000000E+00 0. -1.
        -14    1    4    4    0    0 -0.54875056480E+02  0.12871580741E+01 -0.61334184070E+02  0.82309238455E+02  0.00000000000E+00 0.  1.
</event>
<event>
12    1  0.1628146E-001  0.3716593E+03  0.7818608E-02  0.1054103E+00
         21   -1    0    0  503  502  0.00000000000E+00  0.00000000000E+00  0.32675068893E+03  0.32675068893E+03  0.00000000000E+00 0. -1.
         21   -1    0    0  501  503 -0.00000000000E+00 -0.00000000000E+00 -0.42246740714E+03  0.42246740714E+03  0.00000000000E+00 0.  1.
          6    2    1    2  501    0 -0.12386829072E+03  0.30500220045E+03 -0.56656585881E+02  0.37551184029E+03  0.17155021934E+03 0.  0.
         24    2    3    3    0    0 -0.11085453231E+03  0.31316254784E+03 -0.75478328380E+02  0.35076720112E+03  0.83553232254E+02 0.  0.
         -6    2    1    2    0  502  0.12386829072E+03 -0.30500220045E+03 -0.39060132328E+02  0.37370625578E+03  0.17251369786E+03 0.  0.
        -24    2    5    5    0    0  0.19409998542E+02 -0.51968813140E+02  0.12780717436E+01  0.96963251164E+02  0.79515614984E+02 0.  0.
          5    1    3    3  501    0 -0.13013758403E+02 -0.81603473922E+01  0.18821742499E+02  0.24744639178E+02  0.47000000000E+01 0. -1.
        -11    1    4    4    0    0 -0.30040162469E+02  0.20223282511E+03 -0.32997366951E+02  0.20709744841E+03  0.00000000000E+00 0.  1.
         12    1    4    4    0    0 -0.80814369844E+02  0.11092972273E+03 -0.42480961429E+02  0.14366975271E+03  0.00000000000E+00 0. -1.
         -5    1    5    5    0  502  0.10445829217E+03 -0.25303338731E+03 -0.40338204072E+02  0.27674300462E+03  0.47000000000E+01 0.  1.
         13    1    6    6    0    0  0.32077607029E+02 -0.14379844726E+02 -0.30184576866E+02  0.46334236669E+02  0.00000000000E+00 0. -1.
        -14    1    6    6    0    0 -0.12667608488E+02 -0.37588968415E+02  0.31462648610E+02  0.50629014496E+02  0.00000000000E+00 0.  1.
</event>
<event>
12    1  0.1628146E-001  0.1733448E+03  0.7818608E-02  0.1174418E+00
         21   -1    0    0  503  502  0.00000000000E+00  0.00000000000E+00  0.22123961901E+02  0.22123961901E+02  0.00000000000E+00 0.  1.
         21   -1    0    0  501  503 -0.00000000000E+00 -0.00000000000E+00 -0.22522775604E+04  0.22522775604E+04  0.00000000000E+00 0.  1.
          6    2    1    2  501    0 -0.15709926993E+02  0.20513085760E+02 -0.18316449020E+04  0.18398240436E+04  0.17135307409E+03 0.  0.
         24    2    3    3    0    0 -0.20630448159E+02  0.68009043521E+02 -0.15795509780E+04  0.15832046483E+04  0.80652470295E+02 0.  0.
         -6    2    1    2    0  502  0.15709926993E+02 -0.20513085760E+02 -0.39850869649E+03  0.43457747866E+03  0.17140832911E+03 0.  0.
        -24    2    5    5    0    0 -0.44208506575E+01 -0.53040013127E+02 -0.13136637195E+03  0.16466941881E+03  0.83821876016E+02 0.  0.
          5    1    3    3  501    0  0.49205211652E+01 -0.47495957761E+02 -0.25209392402E+03  0.25661939533E+03  0.47000000000E+01 0. -1.
        -11    1    4    4    0    0  0.15952202742E+02 -0.78265740357E+01 -0.52388255159E+03  0.52418379973E+03  0.00000000000E+00 0.  1.
         12    1    4    4    0    0 -0.36582650900E+02  0.75835617557E+02 -0.10556684264E+04  0.10590208485E+04  0.00000000000E+00 0. -1.
         -5    1    5    5    0  502  0.20130777651E+02  0.32526927366E+02 -0.26714232454E+03  0.26990805985E+03  0.47000000000E+01 0.  1.
         13    1    6    6    0    0 -0.27580994800E+02  0.11873295746E+02 -0.46332024702E+02  0.55211800722E+02  0.00000000000E+00 0. -1.
        -14    1    6    6    0    0  0.23160144143E+02 -0.64913308872E+02 -0.85034347248E+02  0.10945761809E+03  0.00000000000E+00 0.  1.
</event>
<event>
12    1  0.1628146E-001  0.2037597E+03  0.7818608E-02  0.1146786E+00
         21   -1    0    0  501  502  0.00000000000E+00  0.00000000000E+00  0.35831629171E+03  0.35831629171E+03  0.00000000000E+00 0. -1.
         21   -1    0    0  502  503 -0.00000000000E+00 -0.00000000000E+00 -0.14289411023E+03  0.14289411023E+03  0.00000000000E+00 0. -1.
         -6    2    1    2    0  503  0.23108306906E+02  0.10547402166E+03 -0.20843488907E+01  0.20377035003E+03  0.17279828688E+03 0.  0.
        -24    2    3    3    0    0  0.55485812448E+02  0.52503554916E+01 -0.12980098005E+02  0.97780286937E+02  0.79285937930E+02 0.  0.
          6    2    1    2  501    0 -0.23108306906E+02 -0.10547402166E+03  0.21750653037E+03  0.29744005192E+03  0.17176358938E+03 0.  0.
         24    2    5    5    0    0  0.21700473846E+02 -0.38974034735E+02  0.33467491186E+02  0.96635338233E+02  0.78920400914E+02 0.  0.
          5    1    5    5  501    0 -0.44808780752E+02 -0.66499986924E+02  0.18403903918E+03  0.20080471368E+03  0.47000000000E+01 0. -1.
        -13    1    6    6    0    0 -0.90977507917E+01  0.21104329765E+02  0.11032818649E+02  0.25492840008E+02  0.00000000000E+00 0.  1.
         14    1    6    6    0    0  0.30798224638E+02 -0.60078364501E+02  0.22434672538E+02  0.71142498226E+02  0.00000000000E+00 0. -1.
         -5    1    3    3    0  503 -0.32377505542E+02  0.10022366617E+03  0.10895749114E+02  0.10599006309E+03  0.47000000000E+01 0.  1.
         13    1    4    4    0    0  0.72997461131E+02  0.10459971901E+02 -0.22605015595E+02  0.77129936301E+02  0.00000000000E+00 0. -1.
        -14    1    4    4    0    0 -0.17511648683E+02 -0.52096164096E+01  0.96249175902E+01  0.20650350635E+02  0.00000000000E+00 0.  1.
</event>
<event>
12    1  0.1628146E-001  0.1781522E+03  0.7818608E-02  0.1169751E+00
         21   -1    0    0  501  502  0.00000000000E+00  0.00000000000E+00  0.35713174080E+03  0.35713174080E+03  0.00000000000E+00 0.  1.
         21   -1    0    0  502  503 -0.00000000000E+00 -0.00000000000E+00 -0.34209154273E+03  0.34209154273E+03  0.00000000000E+00 0.  1.
         -6    2    1    2    0  503 -0.12578820037E+02  0.42588029054E+02 -0.29344542637E+03  0.34329060075E+03  0.17252898705E+03 0.  0.
        -24    2    3    3    0    0  0.23114088994E+02  0.56930913054E+02 -0.88254803388E+02  0.13447253679E+03  0.80737617368E+02 0.  0.
          6    2    1    2  501    0  0.12578820037E+02 -0.42588029054E+02  0.30848562444E+03  0.35593268278E+03  0.17190906683E+03 0.  0.
         24    2    5    5    0    0 -0.40019496770E+02  0.24320658979E+02  0.13525480700E+03  0.16286699040E+03  0.77709324865E+02 0.  0.
          5    1    5    5  501    0  0.52598316807E+02 -0.66908688033E+02  0.17323081743E+03  0.19306569238E+03  0.47000000000E+01 0. -1.
        -13    1    6    6    0    0  0.10515310691E+02  0.37134382384E+02  0.57217136656E+02  0.69016917064E+02  0.00000000000E+00 0.  1.
         14    1    6    6    0    0 -0.50534807462E+02 -0.12813723405E+02  0.78037670347E+02  0.93850073340E+02  0.00000000000E+00 0. -1.
         -5    1    3    3    0  503 -0.35692909031E+02 -0.14342884000E+02 -0.20519062298E+03  0.20881806396E+03  0.47000000000E+01 0.  1.
         11    1    4    4    0    0  0.12886291170E+02  0.76431075117E+02 -0.78728689028E+02  0.11048064183E+03  0.00000000000E+00 0. -1.
        -12    1    4    4    0    0  0.10227797824E+02 -0.19500162063E+02 -0.95261143602E+01  0.23991894957E+02  0.00000000000E+00 0.  1.
</event>
<event>
12    1  0.1628146E-001  0.2164481E+03  0.7818608E-02  0.1136675E+00
         21   -1    0    0  503  502  0.00000000000E+00  0.00000000000E+00  0.83450913012E+03  0.83450913012E+03  0.00000000000E+00 0.  1.
         21   -1    0    0  501  503 -0.00000000000E+00 -0.00000000000E+00 -0.57424869536E+02  0.57424869536E+02  0.00000000000E+00 0.  1.
          6    2    1    2  501    0 -0.66773814997E+02 -0.11238543847E+03  0.45973307237E+03  0.50813806169E+03  0.17251250030E+03 0.  0.
         24    2    3    3    0    0 -0.23206232256E+02 -0.77218824251E+02  0.12025655787E+03  0.16404327981E+03  0.77118622299E+02 0.  0.
         -6    2    1    2    0  502  0.66773814997E+02  0.11238543847E+03  0.31735118822E+03  0.38379593797E+03  0.17175073854E+03 0.  0.
        -24    2    5    5    0    0  0.81389142099E+02  0.54731679284E+02  0.10866014114E+03  0.16674385466E+03  0.79854477818E+02 0.  0.
          5    1    3    3  501    0 -0.43567582741E+02 -0.35166614220E+02  0.33947651450E+03  0.34409478188E+03  0.47000000000E+01 0. -1.
        -11    1    4    4    0    0 -0.44594019892E+02 -0.27449070506E+02  0.34834504686E+02  0.62892931228E+02  0.00000000000E+00 0.  1.
         12    1    4    4    0    0  0.21387787636E+02 -0.49769753745E+02  0.85422053180E+02  0.10115034858E+03  0.00000000000E+00 0. -1.
         -5    1    5    5    0  502 -0.14615327102E+02  0.57653759187E+02  0.20869104708E+03  0.21705208331E+03  0.47000000000E+01 0.  1.
         13    1    6    6    0    0  0.55747665510E+01 -0.19550651955E+02  0.18132141093E+02  0.27241155529E+02  0.00000000000E+00 0. -1.
        -14    1    6    6    0    0  0.75814375548E+02  0.74282331238E+02  0.90528000044E+02  0.13950269914E+03  0.00000000000E+00 0.  1.
</event>
<event>
12    1  0.1628146E-001  0.2699564E+03  0.7818608E-02  0.1101632E+00
         21   -1    0    0  503  502  0.00000000000E+00  0.00000000000E+00  0.12566557968E+03  0.12566557968E+03  0.00000000000E+00 0.  1.
         21   -1    0    0  501  503 -0.00000000000E+00 -0.00000000000E+00 -0.93588118112E+03  0.93588118112E+03  0.00000000000E+00 0. -1.
          6    2    1    2  501    0  0.15772367937E+03  0.13203923443E+03 -0.73573388976E+03  0.78369688677E+03  0.17482944637E+03 0.  0.
         24    2    3    3    0    0  0.91772735754E+02  0.15518869700E+03 -0.58238968558E+03  0.61510875095E+03  0.81702282223E+02 0.  0.
         -6    2    1    2    0  502 -0.15772367937E+03 -0.13203923443E+03 -0.74481711670E+02  0.27784987403E+03  0.17129480045E+03 0.  0.
        -24    2    5    5    0    0 -0.36987968006E+02 -0.72121122347E+01 -0.54138835670E+02  0.10293605228E+03  0.79023369909E+02 0.  0.
          5    1    3    3  501    0  0.65950943617E+02 -0.23149462570E+02 -0.15334420418E+03  0.16858813582E+03  0.47000000000E+01 0. -1.
        -11    1    4    4    0    0  0.25458664645E+02  0.98300855846E+02 -0.40267343336E+03  0.41527953934E+03  0.00000000000E+00 0.  1.
         12    1    4    4    0    0  0.66314071109E+02  0.56887841156E+02 -0.17971625222E+03  0.19982921161E+03  0.00000000000E+00 0. -1.
         -5    1    5    5    0  502 -0.12073571137E+03 -0.12482712220E+03 -0.20342875999E+02  0.17491382175E+03  0.47000000000E+01 0.  1.
         11    1    6    6    0    0  0.11701102890E+02 -0.28556497134E+02 -0.34434269677E+02  0.46239682802E+02  0.00000000000E+00 0. -1.
        -12    1    6    6    0    0 -0.48689070895E+02  0.21344384900E+02 -0.19704565993E+02  0.56696369481E+02  0.00000000000E+00 0.  1.
</event>
<event>
12    1  0.1628146E-001  0.1764197E+03  0.7818608E-02  0.1171514E+00
         21   -1    0    0  501  502  0.00000000000E+00  0.00000000000E+00  0.55177840535E+03  0.55177840535E+03  0.00000000000E+00 0.  1.
         21   -1    0    0  502  503 -0.00000000000E+00 -0.00000000000E+00 -0.56477763558E+02  0.56477763558E+02  0.00000000000E+00 0.  1.
         -6    2    1    2    0  503  0.34899609516E+02 -0.86648476004E+01  0.22504861523E+03  0.28595593176E+03  0.17271610626E+03 0.  0.
        -24    2    3    3    0    0  0.62470207939E+02 -0.12783750245E+02  0.23468314233E+03  0.25608927194E+03  0.80247035841E+02 0.  0.
          6    2    1    2  501    0 -0.34899609516E+02  0.86648476004E+01  0.27025202656E+03  0.32230023715E+03  0.17189596469E+03 0.  0.
         24    2    5    5    0    0 -0.76708722030E+02  0.28513051347E+02  0.11767515661E+03  0.16278928352E+03  0.77173092559E+02 0.  0.
          5    1    5    5  501    0  0.41809112514E+02 -0.19848203747E+02  0.15257686996E+03  0.15951095363E+03  0.47000000000E+01 0. -1.
        -13    1    6    6    0    0 -0.47175002173E+02 -0.23473952889E+02  0.55632649898E+02  0.76625707363E+02  0.00000000000E+00 0.  1.
         14    1    6    6    0    0 -0.29533719858E+02  0.51987004236E+02  0.62042506707E+02  0.86163576160E+02  0.00000000000E+00 0. -1.
         -5    1    3    3    0  503 -0.27570598423E+02  0.41189026447E+01 -0.96345270946E+01  0.29866659819E+02  0.47000000000E+01 0.  1.
         13    1    4    4    0    0 -0.16732263035E+02 -0.34326626182E+01  0.82769367927E+02  0.84513431275E+02  0.00000000000E+00 0. -1.
        -14    1    4    4    0    0  0.79202470974E+02 -0.93510876269E+01  0.15191377440E+03  0.17157584067E+03  0.00000000000E+00 0.  1.
</event>
<event>
12    1  0.1628146E-001  0.2429023E+03  0.7818608E-02  0.1118091E+00
         21   -1    0    0  503  502  0.00000000000E+00  0.00000000000E+00  0.15961366003E+03  0.15961366003E+03  0.00000000000E+00 0. -1.
         21   -1    0    0  501  503 -0.00000000000E+00 -0.00000000000E+00 -0.59691611433E+03  0.59691611433E+03  0.00000000000E+00 0.  1.
          6    2    1    2  501    0  0.29309433816E+02 -0.16876035134E+03 -0.45344629003E+03  0.51440746877E+03  0.17222777619E+03 0.  0.
         24    2    3    3    0    0  0.40614217192E+02 -0.19205632964E+03 -0.42310182988E+03  0.47424060440E+03  0.85754556871E+02 0.  0.
         -6    2    1    2    0  502 -0.29309433816E+02  0.16876035134E+03  0.16143835733E+02  0.24212230559E+03  0.17036281382E+03 0.  0.
        -24    2    5    5    0    0 -0.26612311838E+02  0.22389962080E+02 -0.20985384341E+02  0.91018916134E+02  0.81452631602E+02 0.  0.
          5    1    3    3  501    0 -0.11304783376E+02  0.23295978291E+02 -0.30344460155E+02  0.40166864376E+02  0.47000000000E+01 0. -1.
        -11    1    4    4    0    0  0.18712895085E+02 -0.85336245126E+02 -0.28644996415E+03  0.29947625805E+03  0.00000000000E+00 0.  1.
         12    1    4    4    0    0  0.21901322107E+02 -0.10672008451E+03 -0.13665186573E+03  0.17476434635E+03  0.00000000000E+00 0. -1.
         -5    1    5    5    0  502 -0.26971219776E+01  0.14637038926E+03  0.37129220074E+02  0.15110338945E+03  0.47000000000E+01 0.  1.
         11    1    6    6    0    0 -0.22799167138E+02 -0.19871014656E+02  0.16454926880E+02  0.34429984959E+02  0.00000000000E+00 0. -1.
        -12    1    6    6    0    0 -0.38131446999E+01  0.42260976735E+02 -0.37440311221E+02  0.56588931175E+02  0.00000000000E+00 0.  1.
</event>
<event>
12    1  0.1628146E-001  0.2311457E+03  0.7818608E-02  0.1125902E+00
         21   -1    0    0  501  502  0.00000000000E+00  0.00000000000E+00  0.15500951840E+03  0.15500951840E+03  0.00000000000E+00 0. -1.
         21   -1    0    0  502  503 -0.00000000000E+00 -0.00000000000E+00 -0.34586038888E+03  0.34586038888E+03  0.00000000000E+00 0. -1.
         -6    2    1    2    0  503  0.13937563692E+03 -0.69768160918E+02 -0.77578380475E+02  0.24346167745E+03  0.17018231055E+03 0.  0.
        -24    2    3    3    0    0  0.13996109764E+03 -0.96899177093E+01 -0.28483872779E+02  0.16573073923E+03  0.83500560224E+02 0.  0.
          6    2    1    2  501    0 -0.13937563692E+03  0.69768160918E+02 -0.11327249000E+03  0.25740822982E+03  0.17069029071E+03 0.  0.
         24    2    5    5    0    0 -0.97100370881E+02 -0.45774687667E+01 -0.11734848123E+03  0.17165757690E+03  0.79033046334E+02 0.  0.
          5    1    5    5  501    0 -0.42275266044E+02  0.74345629685E+02  0.40759912309E+01  0.85750652924E+02  0.47000000000E+01 0. -1.
        -11    1    6    6    0    0  0.40115408588E+01 -0.18462029445E+02 -0.37796769364E+02  0.42255588573E+02  0.00000000000E+00 0.  1.
         12    1    6    6    0    0 -0.10111191174E+03  0.13884560679E+02 -0.79551711870E+02  0.12940198832E+03  0.00000000000E+00 0. -1.
         -5    1    3    3    0  503 -0.58546071865E+00 -0.60078243209E+02 -0.49094507696E+02  0.77730938224E+02  0.47000000000E+01 0.  1.
         11    1    4    4    0    0  0.14276845172E+03  0.31011847842E+00 -0.41875402201E+02  0.14878331993E+03  0.00000000000E+00 0. -1.
        -12    1    4    4    0    0 -0.28073540747E+01 -0.10000036188E+02  0.13391529422E+02  0.16947419299E+02  0.00000000000E+00 0.  1.
</event>
<event>
12    1  0.1628146E-001  0.2042642E+03  0.7818608E-02  0.1146487E+00
         21   -1    0    0  501  502  0.00000000000E+00  0.00000000000E+00  0.12245619906E+03  0.12245619906E+03  0.00000000000E+00 0.  1.
         21   -1    0    0  502  503 -0.00000000000E+00 -0.00000000000E+00 -0.59530675154E+03  0.59530675154E+03  0.00000000000E+00 0.  1.
         -6    2    1    2    0  503  0.50701433333E+02 -0.94371682277E+02 -0.47174245353E+03  0.51349576162E+03  0.17222167396E+03 0.  0.
        -24    2    3    3    0    0  0.14859647660E+02 -0.46084423661E+01 -0.10507299674E+03  0.13427201055E+03  0.82137636328E+02 0.  0.
          6    2    1    2  501    0 -0.50701433333E+02  0.94371682277E+02 -0.11080989496E+01  0.20426718898E+03  0.17391724139E+03 0.  0.
         24    2    5    5    0    0 -0.32499040297E+02  0.13157558251E+03 -0.21998121795E+02  0.15764165564E+03  0.77450969636E+02 0.  0.
          5    1    5    5  501    0 -0.18202393036E+02 -0.37203900234E+02  0.20890022846E+02  0.46625533341E+02  0.47000000000E+01 0. -1.
        -11    1    6    6    0    0 -0.45497476497E+01  0.12688671584E+03 -0.11770331976E+02  0.12751266438E+03  0.00000000000E+00 0.  1.
         12    1    6    6    0    0 -0.27949292648E+02  0.46888666672E+01 -0.10227789819E+02  0.30128991266E+02  0.00000000000E+00 0. -1.
         -5    1    3    3    0  503  0.35841785673E+02 -0.89763239911E+02 -0.36666945678E+03  0.37922375107E+03  0.47000000000E+01 0.  1.
         11    1    4    4    0    0  0.27102033562E+02 -0.95528827209E+01 -0.36887783750E+00  0.28738717131E+02  0.00000000000E+00 0. -1.
        -12    1    4    4    0    0 -0.12242385902E+02  0.49444403548E+01 -0.10470411891E+03  0.10553329342E+03  0.00000000000E+00 0.  1.
</event>
<event>
12    1  0.1628146E-001  0.1727700E+03  0.7818608E-02  0.1175251E+00
         21   -1    0    0  501  502  0.00000000000E+00  0.00000000000E+00  0.75665222743E+03  0.75665222743E+03  0.00000000000E+00 0.  1.
         21   -1    0    0  502  503 -0.00000000000E+00 -0.00000000000E+00 -0.40874625441E+02  0.40874625441E+02  0.00000000000E+00 0.  1.
         -6    2    1    2    0  503 -0.17581696326E+02  0.75072947514E+00  0.27656499719E+03  0.32555527347E+03  0.17084600896E+03 0.  0.
        -24    2    3    3    0    0 -0.22747402139E+02  0.18705260192E+02  0.28963613953E+03  0.30227449917E+03  0.81323111496E+02 0.  0.
          6    2    1    2  501    0  0.17581696326E+02 -0.75072947514E+00  0.43921260480E+03  0.47197157939E+03  0.17187140514E+03 0.  0.
         24    2    5    5    0    0  0.76803271712E+01 -0.47728101689E+02  0.39642665945E+03  0.40749183273E+03  0.80984802887E+02 0.  0.
          5    1    5    5  501    0  0.99013691543E+01  0.46977372214E+02  0.42785945344E+02  0.64479746667E+02  0.47000000000E+01 0. -1.
        -13    1    6    6    0    0 -0.21362336087E+02 -0.21372516532E+02  0.47031982002E+02  0.55902962328E+02  0.00000000000E+00 0.  1.
         14    1    6    6    0    0  0.29042663258E+02 -0.26355585157E+02  0.34939467745E+03  0.35158887040E+03  0.00000000000E+00 0. -1.
         -5    1    3    3    0  503  0.51657058132E+01 -0.17954530717E+02 -0.13071142345E+02  0.23280774300E+02  0.47000000000E+01 0.  1.
         13    1    4    4    0    0 -0.50418717354E+02  0.24626230477E+02  0.15905385919E+03  0.16866128309E+03  0.00000000000E+00 0. -1.
        -14    1    4    4    0    0  0.27671315215E+02 -0.59209702848E+01  0.13058228034E+03  0.13361321609E+03  0.00000000000E+00 0.  1.
</event>
<event>
12    1  0.1628146E-001  0.2255199E+03  0.7818608E-02  0.1130033E+00
         21   -1    0    0  501  502  0.00000000000E+00  0.00000000000E+00  0.17222626591E+03  0.17222626591E+03  0.00000000000E+00 0.  1.
         21   -1    0    0  502  503 -0.00000000000E+00 -0.00000000000E+00 -0.37256206538E+03  0.37256206538E+03  0.00000000000E+00 0. -1.
         -6    2    1    2    0  503 -0.14384511211E+03 -0.19254176787E+01 -0.22555715153E+03  0.31895961464E+03  0.17367810356E+03 0.  0.
        -24    2    3    3    0    0 -0.48360443079E+02  0.59378751251E+02 -0.12868976195E+03  0.16969172020E+03  0.79810127924E+02 0.  0.
          6    2    1    2  501    0  0.14384511211E+03  0.19254176787E+01  0.25221352060E+02  0.22582871665E+03  0.17224218169E+03 0.  0.
         24    2    5    5    0    0  0.11881715386E+03 -0.27833688876E+02  0.73752067295E+02  0.16346427615E+03  0.79931044410E+02 0.  0.
          5    1    5    5  501    0  0.25027958248E+02  0.29759106555E+02 -0.48530715234E+02  0.62364440494E+02  0.47000000000E+01 0. -1.
        -13    1    6    6    0    0  0.42765169060E+02 -0.13004654803E+02 -0.13577667057E+02  0.46715455408E+02  0.00000000000E+00 0.  1.
         14    1    6    6    0    0  0.76051984798E+02 -0.14829034073E+02  0.87329734352E+02  0.11674882074E+03  0.00000000000E+00 0. -1.
         -5    1    3    3    0  503 -0.95484669026E+02 -0.61304168930E+02 -0.96867389580E+02  0.14926789444E+03  0.47000000000E+01 0.  1.
         11    1    4    4    0    0 -0.25660711262E+02  0.18981098541E+02  0.10395938618E+01  0.31934854935E+02  0.00000000000E+00 0. -1.
        -12    1    4    4    0    0 -0.22699731817E+02  0.40397652710E+02 -0.12972935581E+03  0.13775686526E+03  0.00000000000E+00 0.  1.
</event>
<event>
12    1  0.1628146E-001  0.2572183E+03  0.7818608E-02  0.1108854E+00
         21   -1    0    0  503  502  0.00000000000E+00  0.00000000000E+00  0.20460706915E+03  0.20460706915E+03  0.00000000000E+00 0.  1.
         21   -1    0    0  501  503 -0.00000000000E+00 -0.00000000000E+00 -0.32927116800E+03  0.32927116800E+03  0.00000000000E+00 0. -1.
          6    2    1    2  501    0 -0.19097459624E+03  0.11862572852E+02 -0.25839210919E+02  0.25832858582E+03  0.17162160816E+03 0.  0.
         24    2    3    3    0    0 -0.20510877234E+03  0.68623155842E+00  0.65538306086E+01  0.22096436928E+03  0.81928141617E+02 0.  0.
         -6    2    1    2    0  502  0.19097459624E+03 -0.11862572852E+02 -0.98824887930E+02  0.27554965133E+03  0.17189890874E+03 0.  0.
        -24    2    5    5    0    0  0.61232939876E+02  0.38129588084E+02 -0.82506518374E+02  0.13547648210E+03  0.79644291792E+02 0.  0.
          5    1    3    3  501    0  0.14134176101E+02  0.11176341293E+02 -0.32393041528E+02  0.37364216547E+02  0.47000000000E+01 0. -1.
        -13    1    4    4    0    0 -0.56835550357E+02  0.24663090001E+02  0.30184154064E+02  0.68917566334E+02  0.00000000000E+00 0.  1.
         14    1    4    4    0    0 -0.14827322198E+03 -0.23976858442E+02 -0.23630323456E+02  0.15204680294E+03  0.00000000000E+00 0. -1.
         -5    1    5    5    0  502  0.12974165636E+03 -0.49992160936E+02 -0.16318369556E+02  0.14007316922E+03  0.47000000000E+01 0.  1.
         13    1    6    6    0    0  0.51360832909E+02  0.12434278459E+02 -0.92218943089E+02  0.10628678141E+03  0.00000000000E+00 0. -1.
        -14    1    6    6    0    0  0.98721069670E+01  0.25695309625E+02  0.97124247143E+01  0.29189700693E+02  0.00000000000E+00 0.  1.
</event>
<event>
12    1  0.1628146E-001  0.2169306E+03  0.7818608E-02  0.1136667E+00
         21   -1    0    0  501  502  0.00000000000E+00  0.00000000000E+00  0.22283330875E+03  0.22283330875E+03  0.00000000000E+00 0.  1.
         21   -1    0    0  502  503 -0.00000000000E+00 -0.00000000000E+00 -0.21518342455E+03  0.21518342455E+03  0.00000000000E+00 0. -1.
         -6    2    1    2    0  503  0.46485936373E+02 -0.12145815576E+03 -0.34000497125E+02  0.21712386281E+03  0.17051015253E+03 0.  0.
        -24    2    3    3    0    0  0.87134592324E+02 -0.10464468400E+03 -0.57320407466E+02  0.16711472083E+03  0.78094517972E+02 0.  0.
          6    2    1    2  501    0 -0.46485936373E+02  0.12145815576E+03  0.41650381329E+02  0.22089287049E+03  0.17362568960E+03 0.  0.
         24    2    5    5    0    0 -0.66800901863E+02  0.13986308475E+02  0.45222500426E+01  0.10529233454E+03  0.80050282025E+02 0.  0.
          5    1    5    5  501    0  0.20314965490E+02  0.10747184728E+03  0.37128131286E+02  0.11560053596E+03  0.47000000000E+01 0. -1.
        -11    1    6    6    0    0 -0.63805520094E+02  0.40299162654E+02  0.14766076872E+02  0.76897359716E+02  0.00000000000E+00 0.  1.
         12    1    6    6    0    0 -0.29953817689E+01 -0.26312854179E+02 -0.10243826830E+02  0.28394974821E+02  0.00000000000E+00 0. -1.
         -5    1    3    3    0  503 -0.40648655951E+02 -0.16813471760E+02  0.23319910342E+02  0.50009141980E+02  0.47000000000E+01 0.  1.
         11    1    4    4    0    0  0.44034275952E+02 -0.21116958264E+01 -0.27515358692E+02  0.51967024946E+02  0.00000000000E+00 0. -1.
        -12    1    4    4    0    0  0.43100316372E+02 -0.10253298817E+03 -0.29805048775E+02  0.11514769588E+03  0.00000000000E+00 0.  1.
</event>
<event>
12    1  0.1628146E-001  0.2437142E+03  0.7818608E-02  0.1117782E+00
         21   -1    0    0  503  502  0.00000000000E+00  0.00000000000E+00  0.14498051932E+03  0.14498051932E+03  0.00000000000E+00 0. -1.
         21   -1    0    0  501  503 -0.00000000000E+00 -0.00000000000E+00 -0.44868230427E+03  0.44868230427E+03  0.00000000000E+00 0.  1.
          6    2    1    2  501    0 -0.17200453339E+03  0.14564868644E+02 -0.24500785142E+03  0.34557986825E+03  0.17204331774E+03 0.  0.
         24    2    3    3    0    0 -0.15038792565E+03  0.32315888831E+02 -0.26072428094E+03  0.31315344994E+03  0.80169119272E+02 0.  0.
         -6    2    1    2    0  502  0.17200453339E+03 -0.14564868644E+02 -0.58693933526E+02  0.24808295533E+03  0.16823340925E+03 0.  0.
        -24    2    5    5    0    0  0.16056446018E+03  0.24401836271E+02 -0.57392570190E+01  0.18118327573E+03  0.80112700911E+02 0.  0.
          5    1    3    3  501    0 -0.21616607736E+02 -0.17751020187E+02  0.15716429521E+02  0.32426418312E+02  0.47000000000E+01 0. -1.
        -11    1    4    4    0    0 -0.91031980521E+02  0.38229180157E+02 -0.21938651565E+03  0.24057999697E+03  0.00000000000E+00 0.  1.
         12    1    4    4    0    0 -0.59355945134E+02 -0.59132913268E+01 -0.41337765290E+02  0.72573452971E+02  0.00000000000E+00 0. -1.
         -5    1    5    5    0  502  0.11440073209E+02 -0.38966704915E+02 -0.52954676507E+02  0.66899679602E+02  0.47000000000E+01 0.  1.
         11    1    6    6    0    0  0.91336523273E+02 -0.25004326716E+02 -0.14027230671E+02  0.95730559585E+02  0.00000000000E+00 0. -1.
        -12    1    6    6    0    0  0.69227936908E+02  0.49406162987E+02  0.82879736516E+01  0.85452716147E+02  0.00000000000E+00 0.  1.
</event>
<event>
12    1  0.1628146E-001  0.1813683E+03  0.7818608E-02  0.1167417E+00
         21   -1    0    0  501  502  0.00000000000E+00  0.00000000000E+00  0.23382027303E+03  0.23382027303E+03  0.00000000000E+00 0. -1.
         21   -1    0    0  502  503 -0.00000000000E+00 -0.00000000000E+00 -0.13922526257E+03  0.13922526257E+03  0.00000000000E+00 0. -1.
         -6    2    1    2    0  503  0.38819038499E+02  0.75702363750E+01  0.66204304712E+02  0.18946863120E+03  0.17306393621E+03 0.  0.
        -24    2    3    3    0    0 -0.31437976296E+02 -0.25755495319E+02  0.66853698898E+02  0.11156379031E+03  0.79532196996E+02 0.  0.
          6    2    1    2  501    0 -0.38819038499E+02 -0.75702363750E+01  0.28390705747E+02  0.18357690441E+03  0.17700345034E+03 0.  0.
         24    2    5    5    0    0 -0.35745185708E+02 -0.65863868717E+02  0.52132468755E+02  0.12038388697E+03  0.78477502764E+02 0.  0.
          5    1    5    5  501    0 -0.30738527907E+01  0.58293632342E+02 -0.23741763008E+02  0.63193017441E+02  0.47000000000E+01 0. -1.
        -13    1    6    6    0    0  0.86518592018E+01 -0.55026777678E+01  0.43808594364E+02  0.44992522383E+02  0.00000000000E+00 0.  1.
         14    1    6    6    0    0 -0.44397044910E+02 -0.60361190949E+02  0.83238743913E+01  0.75391364587E+02  0.00000000000E+00 0. -1.
         -5    1    3    3    0  503  0.70257014795E+02  0.33325731694E+02 -0.64939418638E+00  0.77904840887E+02  0.47000000000E+01 0.  1.
         11    1    4    4    0    0  0.25121109475E+01 -0.44537683684E+02  0.55363882355E+02  0.71099053712E+02  0.00000000000E+00 0. -1.
        -12    1    4    4    0    0 -0.33950087243E+02  0.18782188365E+02  0.11489816543E+02  0.40464736597E+02  0.00000000000E+00 0.  1.
</event>
<event>
12    1  0.1628146E-001  0.1918363E+03  0.7818608E-02  0.1157571E+00
         21   -1    0    0  501  502  0.00000000000E+00  0.00000000000E+00  0.58020404205E+02  0.58020404205E+02  0.00000000000E+00 0.  1.
         21   -1    0    0  502  503 -0.00000000000E+00 -0.00000000000E+00 -0.81992341124E+03  0.81992341124E+03  0.00000000000E+00 0.  1.
         -6    2    1    2    0  503 -0.21749737530E+02  0.75642002227E+02 -0.59339831409E+03  0.62261070868E+03  0.17125353080E+03 0.  0.
        -24    2    3    3    0    0  0.47961626468E+02  0.33445863564E+02 -0.39118274769E+03  0.40454325653E+03  0.84925619900E+02 0.  0.
          6    2    1    2  501    0  0.21749737530E+02 -0.75642002227E+02 -0.16850469294E+03  0.25533310676E+03  0.17494684988E+03 0.  0.
         24    2    5    5    0    0  0.51091469913E+02 -0.84415580614E+02 -0.56854994661E+02  0.13946396479E+03  0.80507009059E+02 0.  0.
          5    1    5    5  501    0 -0.29341732384E+02  0.87735783871E+01 -0.11164969828E+03  0.11586914198E+03  0.47000000000E+01 0. -1.
        -13    1    6    6    0    0  0.60039092597E+02 -0.55056001088E+02 -0.81135152225E+01  0.81863819999E+02  0.00000000000E+00 0.  1.
         14    1    6    6    0    0 -0.89476226831E+01 -0.29359579527E+02 -0.48741479438E+02  0.57600144787E+02  0.00000000000E+00 0. -1.
         -5    1    3    3    0  503 -0.69711363998E+02  0.42196138664E+02 -0.20221556640E+03  0.21806745214E+03  0.47000000000E+01 0.  1.
         11    1    4    4    0    0 -0.60283891778E+01 -0.88211548127E+01 -0.41150807590E+01  0.11449372820E+02  0.00000000000E+00 0. -1.
        -12    1    4    4    0    0  0.53990015646E+02  0.42267018376E+02 -0.38706766693E+03  0.39309388371E+03  0.00000000000E+00 0.  1.
</event>
<event>
12    1  0.1628146E-001  0.1853420E+03  0.7818608E-02  0.1162769E+00
         21   -1    0    0  503  502  0.00000000000E+00  0.00000000000E+00  0.41944266352E+03  0.41944266352E+03  0.00000000000E+00 0. -1.
         21   -1    0    0  501  503 -0.00000000000E+00 -0.00000000000E+00 -0.16537579727E+03  0.16537579727E+03  0.00000000000E+00 0. -1.
          6    2    1    2  501    0  0.40671878283E+02 -0.54632226376E+02 -0.80833131223E+02  0.20205265128E+03  0.17219871354E+03 0.  0.
         24    2    3    3    0    0 -0.86784721275E+01 -0.36522119004E+02 -0.10945168787E+03  0.14201478940E+03  0.82336792356E+02 0.  0.
         -6    2    1    2    0  502 -0.40671878283E+02  0.54632226376E+02  0.33489999748E+03  0.38276580951E+03  0.17237393880E+03 0.  0.
        -24    2    5    5    0    0 -0.37787137378E+02  0.33058947187E+02  0.73860649007E+02  0.12077848242E+03  0.81309806317E+02 0.  0.
          5    1    3    3  501    0  0.49350350411E+02 -0.18110107372E+02  0.28618556645E+02  0.60037861880E+02  0.47000000000E+01 0. -1.
        -11    1    4    4    0    0 -0.16966939285E+02  0.11131291678E+02  0.21267265498E+01  0.20403569515E+02  0.00000000000E+00 0.  1.
         12    1    4    4    0    0  0.82884671574E+01 -0.47653410682E+02 -0.11157841442E+03  0.12161121988E+03  0.00000000000E+00 0. -1.
         -5    1    5    5    0  502 -0.28847409050E+01  0.21573279189E+02  0.26103934847E+03  0.26198732709E+03  0.47000000000E+01 0.  1.
         13    1    6    6    0    0 -0.49495390260E+02  0.17615234964E+02  0.83870110744E+02  0.98966083261E+02  0.00000000000E+00 0. -1.
        -14    1    6    6    0    0  0.11708252882E+02  0.15443712223E+02 -0.10009461736E+02  0.21812399158E+02  0.00000000000E+00 0.  1.
</event>
<event>
12    1  0.1628146E-001  0.1933995E+03  0.7818608E-02  0.1155593E+00
         21   -1    0    0  501  502  0.00000000000E+00  0.00000000000E+00  0.18695882730E+04  0.18695882730E+04  0.00000000000E+00 0. -1.
         21   -1    0    0  502  503 -0.00000000000E+00 -0.00000000000E+00 -0.27629123775E+02  0.27629123775E+02  0.00000000000E+00 0. -1.
         -6    2    1    2    0  503 -0.85702068917E+02  0.20474091562E+02  0.41895717399E+03  0.46113313870E+03  0.17133191451E+03 0.  0.
        -24    2    3    3    0    0 -0.42361522519E+02  0.50426969671E+02  0.11775897107E+03  0.15532596856E+03  0.76951955021E+02 0.  0.
          6    2    1    2  501    0  0.85702068917E+02 -0.20474091562E+02  0.14230019752E+04  0.14360842581E+04  0.17216080191E+03 0.  0.
         24    2    5    5    0    0 -0.97222349951E+01 -0.31678673631E+02  0.93180191190E+03  0.93555360700E+03  0.76861488026E+02 0.  0.
          5    1    5    5  501    0  0.95424303912E+02  0.11204582069E+02  0.49120006333E+03  0.50053065106E+03  0.47000000000E+01 0. -1.
        -11    1    6    6    0    0  0.18075998107E+02 -0.32358679390E+02  0.21206803493E+03  0.21528278444E+03  0.00000000000E+00 0.  1.
         12    1    6    6    0    0 -0.27798233102E+02  0.68000575839E+00  0.71973387697E+03  0.72027082256E+03  0.00000000000E+00 0. -1.
         -5    1    3    3    0  503 -0.43340546397E+02 -0.29952878109E+02  0.30119820292E+03  0.30580717014E+03  0.47000000000E+01 0.  1.
         11    1    4    4    0    0 -0.24734550181E+02 -0.17148635344E+02  0.24453430822E+02  0.38779426836E+02  0.00000000000E+00 0. -1.
        -12    1    4    4    0    0 -0.17626972339E+02  0.67575605014E+02  0.93305540249E+02  0.11654654173E+03  0.00000000000E+00 0.  1.
</event>
<event>
12    1  0.1628146E-001  0.2116604E+03  0.7818608E-02  0.1142563E+00
         21   -1    0    0  503  502  0.00000000000E+00  0.00000000000E+00  0.80327854090E+02  0.80327854090E+02  0.00000000000E+00 0. -1.
         21   -1    0    0  501  503 -0.00000000000E+00 -0.00000000000E+00 -0.78218010235E+03  0.78218010235E+03  0.00000000000E+00 0. -1.
          6    2    1    2  501    0  0.94725732851E+02 -0.43142807050E+02 -0.59011939536E+03  0.62316642739E+03  0.17105913943E+03 0.  0.
         24    2    3    3    0    0  0.13276879527E+03 -0.22475208943E+02 -0.46323849549E+03  0.48901995162E+03  0.80111930224E+02 0.  0.
         -6    2    1    2    0  502 -0.94725732851E+02  0.43142807050E+02 -0.11173285290E+03  0.23934152905E+03  0.18429832025E+03 0.  0.
        -24    2    5    5    0    0 -0.15109980368E+01 -0.42328035310E+02 -0.13524087180E+02  0.79150070650E+02  0.65481959818E+02 0.  0.
          5    1    3    3  501    0 -0.38043062419E+02 -0.20667598107E+02 -0.12688089987E+03  0.13414647577E+03  0.47000000000E+01 0. -1.
        -13    1    4    4    0    0  0.24618083615E+02  0.12287002995E+02 -0.28218751120E+02  0.39412160538E+02  0.00000000000E+00 0.  1.
         14    1    4    4    0    0  0.10815071165E+03 -0.34762211938E+02 -0.43501974437E+03  0.44960779108E+03  0.00000000000E+00 0. -1.
         -5    1    5    5    0  502 -0.93214734814E+02  0.85470842360E+02 -0.98208765718E+02  0.16019145840E+03  0.47000000000E+01 0.  1.
         11    1    6    6    0    0  0.48942055421E+00 -0.25266365564E+02  0.25875314453E+02  0.36168503692E+02  0.00000000000E+00 0. -1.
        -12    1    6    6    0    0 -0.20004185910E+01 -0.17061669746E+02 -0.39399401634E+02  0.42981566958E+02  0.00000000000E+00 0.  1.
</event>
<event>
12    1  0.1628146E-001  0.2493489E+03  0.7818608E-02  0.1113808E+00
         21   -1    0    0  501  502  0.00000000000E+00  0.00000000000E+00  0.34311093899E+03  0.34311093899E+03  0.00000000000E+00 0. -1.
         21   -1    0    0  502  503 -0.00000000000E+00 -0.00000000000E+00 -0.27354060659E+03  0.27354060659E+03  0.00000000000E+00 0. -1.
         -6    2    1    2    0  503  0.12254523883E+03 -0.13306102220E+03 -0.14477794182E+03  0.28783537074E+03  0.17078049367E+03 0.  0.
        -24    2    3    3    0    0  0.40328260837E+02 -0.12671721110E+01 -0.72041674527E+02  0.11624893487E+03  0.81828098129E+02 0.  0.
          6    2    1    2  501    0 -0.12254523883E+03  0.13306102220E+03  0.21434827422E+03  0.32881617484E+03  0.17161679110E+03 0.  0.
         24    2    5    5    0    0 -0.48684233991E+02  0.14169344358E+03  0.13442444098E+03  0.21954643587E+03  0.87655693366E+02 0.  0.
          5    1    5    5  501    0 -0.73861004840E+02 -0.86324213738E+01  0.79923833242E+02  0.10926973897E+03  0.47000000000E+01 0. -1.
        -11    1    6    6    0    0 -0.28799478505E+02  0.13608100366E+03  0.78032043402E+02  0.15948808519E+03  0.00000000000E+00 0.  1.
         12    1    6    6    0    0 -0.19884755486E+02  0.56124399181E+01  0.56392397578E+02  0.60058350686E+02  0.00000000000E+00 0. -1.
         -5    1    3    3    0  503  0.82216977993E+02 -0.13179385009E+03 -0.72736267297E+02  0.17158643586E+03  0.47000000000E+01 0.  1.
         11    1    4    4    0    0  0.62786367779E+02 -0.15219766348E+02 -0.54470303028E+02  0.84503154844E+02  0.00000000000E+00 0. -1.
        -12    1    4    4    0    0 -0.22458106942E+02  0.13952594237E+02 -0.17571371499E+02  0.31745780030E+02  0.00000000000E+00 0.  1.
</event>
<event>
12    1  0.1628146E-001  0.2006159E+03  0.7818608E-02  0.1152187E+00
         21   -1    0    0  503  502  0.00000000000E+00  0.00000000000E+00  0.12416646432E+04  0.12416646432E+04  0.00000000000E+00 0. -1.
         21   -1    0    0  501  503 -0.00000000000E+00 -0.00000000000E+00 -0.41833342473E+02  0.41833342473E+02  0.00000000000E+00 0. -1.
          6    2    1    2  501    0  0.40998315924E+02 -0.66082031112E+02  0.24719432281E+03  0.30996629151E+03  0.17007754671E+03 0.  0.
         24    2    3    3    0    0 -0.16705380160E+02 -0.76110536361E+02  0.95404379152E+02  0.14720092524E+03  0.80586806357E+02 0.  0.
         -6    2    1    2    0  502 -0.40998315924E+02  0.66082031112E+02  0.95263697795E+03  0.97353169420E+03  0.18492985458E+03 0.  0.
        -24    2    5    5    0    0  0.30766482043E+02  0.88982653556E+02  0.52026742138E+03  0.53462379021E+03  0.79245935295E+02 0.  0.
          5    1    3    3  501    0  0.57703696084E+02  0.10028505249E+02  0.15178994366E+03  0.16276536627E+03  0.47000000000E+01 0. -1.
        -11    1    4    4    0    0 -0.41859009880E+02 -0.18279624127E+02  0.22861264642E+02  0.51077967729E+02  0.00000000000E+00 0.  1.
         12    1    4    4    0    0  0.25153629720E+02 -0.57830912234E+02  0.72543114510E+02  0.96122957511E+02  0.00000000000E+00 0. -1.
         -5    1    5    5    0  502 -0.71764797966E+02 -0.22900622445E+02  0.43236955657E+03  0.43890790399E+03  0.47000000000E+01 0.  1.
         13    1    6    6    0    0  0.77999321342E+00  0.74441524186E+02  0.45788621834E+03  0.46389862886E+03  0.00000000000E+00 0. -1.
        -14    1    6    6    0    0  0.29986488829E+02  0.14541129371E+02  0.62381203043E+02  0.70725161355E+02  0.00000000000E+00 0.  1.
</event>
<event>
12    1  0.1628146E-001  0.2064838E+03  0.7818608E-02  0.1144559E+00
         21   -1    0    0  501  502  0.00000000000E+00  0.00000000000E+00  0.80995173197E+02  0.80995173197E+02  0.00000000000E+00 0.  1.
         21   -1    0    0  502  503 -0.00000000000E+00 -0.00000000000E+00 -0.58877559592E+03  0.58877559592E+03  0.00000000000E+00 0. -1.
         -6    2    1    2    0  503  0.82756949248E+02  0.78010067928E+02 -0.36531363393E+03  0.41963032104E+03  0.17234056938E+03 0.  0.
        -24    2    3    3    0    0  0.65252736670E+02  0.12160203225E+03 -0.29423245221E+03  0.33429989735E+03  0.78349930115E+02 0.  0.
          6    2    1    2  501    0 -0.82756949248E+02 -0.78010067928E+02 -0.14246678880E+03  0.25014044808E+03  0.17128681942E+03 0.  0.
         24    2    5    5    0    0 -0.68598324149E+02 -0.10591319253E+03 -0.58351639373E+02  0.16027110186E+03  0.79740691275E+02 0.  0.
          5    1    5    5  501    0 -0.14158625099E+02  0.27903124605E+02 -0.84115149423E+02  0.89869346220E+02  0.47000000000E+01 0. -1.
        -13    1    6    6    0    0 -0.29164262821E+02 -0.93030886269E+01  0.13624415236E+02  0.33507109311E+02  0.00000000000E+00 0.  1.
         14    1    6    6    0    0 -0.39434061328E+02 -0.96610103906E+02 -0.71976054608E+02  0.12676399255E+03  0.00000000000E+00 0. -1.
         -5    1    3    3    0  503  0.17504212578E+02 -0.43591964323E+02 -0.71081181723E+02  0.85330423687E+02  0.47000000000E+01 0.  1.
         11    1    4    4    0    0  0.44243488755E+02  0.12002991603E+03 -0.19757623040E+03  0.23537424213E+03  0.00000000000E+00 0. -1.
        -12    1    4    4    0    0  0.21009247915E+02  0.15721162209E+01 -0.96656221812E+02  0.98925655228E+02  0.00000000000E+00 0.  1.
</event>
<event>
12    1  0.1628146E-001  0.2230996E+03  0.7818608E-02  0.1132488E+00
         21   -1    0    0  501  502  0.00000000000E+00  0.00000000000E+00  0.26008305196E+03  0.26008305196E+03  0.00000000000E+00 0.  1.
         21   -1    0    0  502  503 -0.00000000000E+00 -0.00000000000E+00 -0.39690313092E+03  0.39690313092E+03  0.00000000000E+00 0. -1.
         -6    2    1    2    0  503  0.13849243490E+03 -0.27654038463E+02 -0.30749939399E+03  0.37990699056E+03  0.17270942014E+03 0.  0.
        -24    2    3    3    0    0  0.11341916869E+03 -0.42770244127E+02 -0.31685517374E+03  0.34881376032E+03  0.81121123369E+02 0.  0.
          6    2    1    2  501    0 -0.13849243490E+03  0.27654038463E+02  0.17067931504E+03  0.27707919232E+03  0.16642280453E+03 0.  0.
         24    2    5    5    0    0 -0.10353505573E+03  0.56545016753E+02  0.53685917683E+02  0.15151545548E+03  0.78472344221E+02 0.  0.
          5    1    5    5  501    0 -0.34957379166E+02 -0.28890978290E+02  0.11699339735E+03  0.12556373684E+03  0.47000000000E+01 0. -1.
        -13    1    6    6    0    0 -0.16863255795E+02 -0.19886197641E+02  0.82819496597E+01  0.27357283177E+02  0.00000000000E+00 0.  1.
         14    1    6    6    0    0 -0.86671799937E+02  0.76431214394E+02  0.45403968023E+02  0.12415817231E+03  0.00000000000E+00 0. -1.
         -5    1    3    3    0  503  0.25073266212E+02  0.15116205665E+02  0.93557797459E+01  0.31093230242E+02  0.47000000000E+01 0.  1.
         13    1    4    4    0    0  0.31052028127E+02 -0.54033652801E+02 -0.14867741252E+03  0.16121053650E+03  0.00000000000E+00 0. -1.
        -14    1    4    4    0    0  0.82367140559E+02  0.11263408674E+02 -0.16817776122E+03  0.18760322382E+03  0.00000000000E+00 0.  1.
</event>
<event>
12    1  0.1628146E-001  0.1724819E+03  0.7818608E-02  0.1175374E+00
         21   -1    0    0  501  502  0.00000000000E+00  0.00000000000E+00  0.11149057461E+04  0.11149057461E+04  0.00000000000E+00 0. -1.
         21   -1    0    0  502  503 -0.00000000000E+00 -0.00000000000E+00 -0.30292201828E+02  0.30292201828E+02  0.00000000000E+00 0. -1.
         -6    2    1    2    0  503  0.14882661248E+02 -0.20130047771E+01  0.34270959384E+03  0.38350806061E+03  0.17147309133E+03 0.  0.
        -24    2    3    3    0    0  0.55610199332E+02 -0.48083714403E+02  0.21064650928E+03  0.23775487558E+03  0.82163806682E+02 0.  0.
          6    2    1    2  501    0 -0.14882661248E+02  0.20130047771E+01  0.74190395044E+03  0.76168988733E+03  0.17182685174E+03 0.  0.
         24    2    5    5    0    0 -0.12498040980E+02 -0.65173839236E+02  0.47898070771E+03  0.49026682274E+03  0.80840638109E+02 0.  0.
          5    1    5    5  501    0 -0.23846202678E+01  0.67186844013E+02  0.26292324273E+03  0.27142306459E+03  0.47000000000E+01 0. -1.
        -11    1    6    6    0    0 -0.29652024648E+02 -0.43999665062E+02  0.43705009067E+03  0.44025900882E+03  0.00000000000E+00 0.  1.
         12    1    6    6    0    0  0.17153983668E+02 -0.21174174174E+02  0.41930617041E+02  0.50007813920E+02  0.00000000000E+00 0. -1.
         -5    1    3    3    0  503 -0.40727538083E+02  0.46070709626E+02  0.13206308455E+03  0.14575318503E+03  0.47000000000E+01 0.  1.
         13    1    4    4    0    0 -0.19741747210E+02 -0.23444442986E+02  0.50827512230E+02  0.59353302261E+02  0.00000000000E+00 0. -1.
        -14    1    4    4    0    0  0.75351946541E+02 -0.24639271416E+02  0.15981899705E+03  0.17840157332E+03  0.00000000000E+00 0.  1.
</event>
<event>
12    1  0.1628146E-001  0.1774966E+03  0.7818608E-02  0.1171001E+00
         21   -1    0    0  501  502  0.00000000000E+00  0.00000000000E+00  0.51893035460E+03  0.51893035460E+03  0.00000000000E+00 0.  1.
         21   -1    0    0  502  503 -0.00000000000E+00 -0.00000000000E+00 -0.66928647141E+02  0.66928647141E+02  0.00000000000E+00 0.  1.
         -6    2    1    2    0  503 -0.16218136854E+02 -0.36385121629E+02  0.13133504252E+03  0.22080297046E+03  0.17296864841E+03 0.  0.
        -24    2    3    3    0    0  0.30737672406E+02 -0.82592603177E+02  0.10667228631E+03  0.15030246750E+03  0.58698487765E+02 0.  0.
          6    2    1    2  501    0  0.16218136854E+02  0.36385121629E+02  0.32066666494E+03  0.36505603128E+03  0.16985844379E+03 0.  0.
         24    2    5    5    0    0 -0.19514261185E+02  0.58481797590E+02  0.30291574019E+03  0.31920570208E+03  0.79582708843E+02 0.  0.
          5    1    5    5  501    0  0.35732398039E+02 -0.22096675961E+02  0.17750924757E+02  0.45850329201E+02  0.47000000000E+01 0. -1.
        -13    1    6    6    0    0 -0.32052536328E+02  0.11828861926E+02  0.22463884118E+03  0.22722212927E+03  0.00000000000E+00 0.  1.
         14    1    6    6    0    0  0.12538275143E+02  0.46652935664E+02  0.78276899001E+02  0.91983572810E+02  0.00000000000E+00 0. -1.
         -5    1    3    3    0  503 -0.46955809261E+02  0.46207481548E+02  0.24662756206E+02  0.70500502963E+02  0.47000000000E+01 0.  1.
         11    1    4    4    0    0  0.44295990757E+02 -0.69309463326E+02  0.10146943712E+03  0.13062152646E+03  0.00000000000E+00 0. -1.
        -12    1    4    4    0    0 -0.13558318350E+02 -0.13283139851E+02  0.52028491887E+01  0.19680941047E+02  0.00000000000E+00 0.  1.
</event>
<event>
12    1  0.1628146E-001  0.1750126E+03  0.7818608E-02  0.1172996E+00
         21   -1    0    0  503  502  0.00000000000E+00  0.00000000000E+00  0.35012287816E+03  0.35012287816E+03  0.00000000000E+00 0.  1.
         21   -1    0    0  501  503 -0.00000000000E+00 -0.00000000000E+00 -0.11248418064E+03  0.11248418064E+03  0.00000000000E+00 0.  1.
          6    2    1    2  501    0 -0.21653178787E+02 -0.29922234735E+02  0.22934827982E+03  0.28849618413E+03  0.17107078803E+03 0.  0.
         24    2    3    3    0    0  0.44573991895E+02 -0.30642588530E+02  0.17542526229E+03  0.20296058414E+03  0.86563081500E+02 0.  0.
         -6    2    1    2    0  502  0.21653178787E+02  0.29922234735E+02  0.82904176944E+01  0.17411087467E+03  0.16994606606E+03 0.  0.
        -24    2    5    5    0    0 -0.24258155948E+02  0.54325638167E+02  0.48827830472E+02  0.10801436500E+03  0.75783988581E+02 0.  0.
          5    1    3    3  501    0 -0.66227170682E+02  0.72035379499E+00  0.53923017530E+02  0.85535599990E+02  0.47000000000E+01 0. -1.
        -11    1    4    4    0    0 -0.21316603780E+02 -0.15218975214E+02  0.91369005506E+02  0.95048987214E+02  0.00000000000E+00 0.  1.
         12    1    4    4    0    0  0.65890595676E+02 -0.15423613316E+02  0.84056256788E+02  0.10791159693E+03  0.00000000000E+00 0. -1.
         -5    1    5    5    0  502  0.45911334734E+02 -0.24403403431E+02 -0.40537412778E+02  0.66096509672E+02  0.47000000000E+01 0.  1.
         11    1    6    6    0    0 -0.16851602716E+02  0.47130624423E+01  0.54773674026E+02  0.57500824672E+02  0.00000000000E+00 0. -1.
        -12    1    6    6    0    0 -0.74065532313E+01  0.49612575725E+02 -0.59458435534E+01  0.50513540327E+02  0.00000000000E+00 0.  1.
</event>
<event>
12    1  0.1628146E-001  0.2022551E+03  0.7818608E-02  0.1148256E+00
         21   -1    0    0  503  502  0.00000000000E+00  0.00000000000E+00  0.79082899472E+02  0.79082899472E+02  0.00000000000E+00 0.  1.
         21   -1    0    0  501  503 -0.00000000000E+00 -0.00000000000E+00 -0.10562867738E+04  0.10562867738E+04  0.00000000000E+00 0.  1.
          6    2    1    2  501    0 -0.89019722327E+02  0.46596261528E+02 -0.89484072284E+03  0.91698742800E+03  0.17329253103E+03 0.  0.
         24    2    3    3    0    0 -0.67676244594E+02 -0.35207482323E+02 -0.39897437011E+03  0.41394376556E+03  0.79682194695E+02 0.  0.
         -6    2    1    2    0  502  0.89019722327E+02 -0.46596261528E+02 -0.82363151443E+02  0.21838224522E+03  0.17553174574E+03 0.  0.
        -24    2    5    5    0    0  0.10038807730E+03 -0.89240824663E+02 -0.73465302470E+02  0.17311570155E+03  0.80809681389E+02 0.  0.
          5    1    3    3  501    0 -0.21343477733E+02  0.81803743850E+02 -0.49586635273E+03  0.50304366244E+03  0.47000000000E+01 0. -1.
        -11    1    4    4    0    0  0.40922787083E+01 -0.71231836619E+01 -0.20579453801E+03  0.20595843844E+03  0.00000000000E+00 0.  1.
         12    1    4    4    0    0 -0.71768523303E+02 -0.28084298661E+02 -0.19317983209E+03  0.20798532712E+03  0.00000000000E+00 0. -1.
         -5    1    5    5    0  502 -0.11368354972E+02  0.42644563135E+02 -0.88978489733E+01  0.45266543673E+02  0.47000000000E+01 0.  1.
         13    1    6    6    0    0  0.40092589747E+01  0.86943848139E+01  0.87684113517E+01  0.12982739405E+02  0.00000000000E+00 0. -1.
        -14    1    6    6    0    0  0.96378818325E+02 -0.97935209477E+02 -0.82233713822E+02  0.16013296215E+03  0.00000000000E+00 0.  1.
</event>
<event>
12    1  0.1628146E-001  0.2079242E+03  0.7818608E-02  0.1143690E+00
         21   -1    0    0  501  502  0.00000000000E+00  0.00000000000E+00  0.55682055801E+02  0.55682055801E+02  0.00000000000E+00 0. -1.
         21   -1    0    0  502  503 -0.00000000000E+00 -0.00000000000E+00 -0.87060208581E+03  0.87060208581E+03  0.00000000000E+00 0. -1.
         -6    2    1    2    0  503  0.10818033949E+03  0.32154704231E+02 -0.24625155519E+03  0.32079566189E+03  0.17185202181E+03 0.  0.
        -24    2    3    3    0    0  0.64397582925E+02 -0.17350507202E+02 -0.52215579053E+02  0.11575969976E+03  0.78903438499E+02 0.  0.
          6    2    1    2  501    0 -0.10818033949E+03 -0.32154704231E+02 -0.56866847482E+03  0.60548847972E+03  0.17462976253E+03 0.  0.
         24    2    5    5    0    0 -0.33618705390E+02  0.27150322117E+02 -0.41338853407E+03  0.42325107019E+03  0.79900131289E+02 0.  0.
          5    1    5    5  501    0 -0.74561634095E+02 -0.59305026348E+02 -0.15527994076E+03  0.18223740952E+03  0.47000000000E+01 0. -1.
        -11    1    6    6    0    0 -0.75283785656E+01 -0.28011080040E+02 -0.16091234092E+03  0.16350559180E+03  0.00000000000E+00 0.  1.
         12    1    6    6    0    0 -0.26090326824E+02  0.55161402157E+02 -0.25247619314E+03  0.25974547839E+03  0.00000000000E+00 0. -1.
         -5    1    3    3    0  503  0.43782756560E+02  0.49505211433E+02 -0.19403597613E+03  0.20503596213E+03  0.47000000000E+01 0.  1.
         13    1    4    4    0    0  0.43212005381E+02 -0.31456316821E+01  0.13407773981E+02  0.45353509356E+02  0.00000000000E+00 0. -1.
        -14    1    4    4    0    0  0.21185577544E+02 -0.14204875520E+02 -0.65623353034E+02  0.70406190409E+02  0.00000000000E+00 0.  1.
</event>
<event>
12    1  0.1628146E-001  0.2116582E+03  0.7818608E-02  0.1140393E+00
         21   -1    0    0  501  502  0.00000000000E+00  0.00000000000E+00  0.11578969916E+03  0.11578969916E+03  0.00000000000E+00 0. -1.
         21   -1    0    0  502  503 -0.00000000000E+00 -0.00000000000E+00 -0.46272932233E+03  0.46272932233E+03  0.00000000000E+00 0. -1.
         -6    2    1    2    0  503  0.96935263760E+02 -0.75314136593E+02 -0.29174918698E+03  0.36043970424E+03  0.17242542664E+03 0.  0.
        -24    2    3    3    0    0  0.11754405263E+02 -0.68640826481E+02 -0.23609800357E+03  0.25836396796E+03  0.78485307824E+02 0.  0.
          6    2    1    2  501    0 -0.96935263760E+02  0.75314136593E+02 -0.55190436186E+02  0.21807931725E+03  0.17159236531E+03 0.  0.
         24    2    5    5    0    0 -0.60378569643E+02  0.11813536846E+03 -0.43976496825E+02  0.16047816952E+03  0.78852860878E+02 0.  0.
          5    1    5    5  501    0 -0.36556694117E+02 -0.42821231862E+02 -0.11213939361E+02  0.57601147723E+02  0.47000000000E+01 0. -1.
        -13    1    6    6    0    0 -0.87871967020E+01  0.13006615559E+02  0.21260725732E+02  0.26427359551E+02  0.00000000000E+00 0.  1.
         14    1    6    6    0    0 -0.51591372941E+02  0.10512875290E+03 -0.65237222558E+02  0.13405080997E+03  0.00000000000E+00 0. -1.
         -5    1    3    3    0  503  0.85180858497E+02 -0.66733101120E+01 -0.55651183411E+02  0.10207573628E+03  0.47000000000E+01 0.  1.
         13    1    4    4    0    0  0.34185092750E+02 -0.20322123649E+01 -0.67106289745E+02  0.75339263182E+02  0.00000000000E+00 0. -1.
        -14    1    4    4    0    0 -0.22430687486E+02 -0.66608614116E+02 -0.16899171383E+03  0.18302470477E+03  0.00000000000E+00 0.  1.
</event>
<event>
12    1  0.1628146E-001  0.2508940E+03  0.7818608E-02  0.1113313E+00
         21   -1    0    0  503  502  0.00000000000E+00  0.00000000000E+00  0.23119754573E+03  0.23119754573E+03  0.00000000000E+00 0. -1.
         21   -1    0    0  501  503 -0.00000000000E+00 -0.00000000000E+00 -0.29588019287E+03  0.29588019287E+03  0.00000000000E+00 0.  1.
          6    2    1    2  501    0 -0.16070110957E+03  0.77564855290E+02 -0.11291773441E+03  0.27513312280E+03  0.17637082278E+03 0.  0.
         24    2    3    3    0    0 -0.18438306161E+03  0.47891422329E+02 -0.11532361154E+03  0.23680264249E+03  0.80531077062E+02 0.  0.
         -6    2    1    2    0  502  0.16070110957E+03 -0.77564855290E+02  0.48235087272E+02  0.25194461580E+03  0.17119670673E+03 0.  0.
        -24    2    5    5    0    0  0.14180744405E+03 -0.49877866170E+02  0.88491382784E+02  0.19934994600E+03  0.96501416678E+02 0.  0.
          5    1    3    3  501    0  0.23681952038E+02  0.29673432961E+02  0.24058771320E+01  0.38330480310E+02  0.47000000000E+01 0. -1.
        -11    1    4    4    0    0  0.65823957797E+00 -0.48630692013E+00 -0.25476471517E+02  0.25489613075E+02  0.00000000000E+00 0.  1.
         12    1    4    4    0    0 -0.18504130118E+03  0.48377729250E+02 -0.89847140026E+02  0.21131302942E+03  0.00000000000E+00 0. -1.
         -5    1    5    5    0  502  0.18893665519E+02 -0.27686989120E+02 -0.40256295512E+02  0.52594669802E+02  0.47000000000E+01 0.  1.
         13    1    6    6    0    0  0.69198528784E+01  0.14265682506E+02 -0.11518100463E+02  0.19597466660E+02  0.00000000000E+00 0. -1.
        -14    1    6    6    0    0  0.13488759117E+03 -0.64143548676E+02  0.10000948325E+03  0.17975247934E+03  0.00000000000E+00 0.  1.
</event>
<event>
12    1  0.1628146E-001  0.2805223E+03  0.7818608E-02  0.1095584E+00
         21   -1    0    0  501  502  0.00000000000E+00  0.00000000000E+00  0.42978866875E+03  0.42978866875E+03  0.00000000000E+00 0. -1.
         21   -1    0    0  502  503 -0.00000000000E+00 -0.00000000000E+00 -0.20216590121E+03  0.20216590121E+03  0.00000000000E+00 0.  1.
         -6    2    1    2    0  503  0.15098628871E+03 -0.16052811811E+03  0.14848518777E+02  0.28091498411E+03  0.17357019820E+03 0.  0.
        -24    2    3    3    0    0  0.10977191652E+03 -0.18482277426E+03 -0.27457138403E+01  0.22972414690E+03  0.80971063873E+02 0.  0.
          6    2    1    2  501    0 -0.15098628871E+03  0.16052811811E+03  0.21277424876E+03  0.35103958586E+03  0.17143445926E+03 0.  0.
         24    2    5    5    0    0 -0.14465514105E+02  0.10257167320E+03  0.10059962561E+03  0.16502316862E+03  0.79888436368E+02 0.  0.
          5    1    5    5  501    0 -0.13652077460E+03  0.57956444912E+02  0.11217462315E+03  0.18601641724E+03  0.47000000000E+01 0. -1.
        -11    1    6    6    0    0  0.10996385296E+02 -0.72189445789E+01 -0.11224063151E+01  0.13202024328E+02  0.00000000000E+00 0.  1.
         12    1    6    6    0    0 -0.25461899401E+02  0.10979061778E+03  0.10172203193E+03  0.15182114429E+03  0.00000000000E+00 0. -1.
         -5    1    3    3    0  503  0.41214372190E+02  0.24294656145E+02  0.17594232618E+02  0.51190837203E+02  0.47000000000E+01 0.  1.
         13    1    4    4    0    0 -0.74696385374E+01  0.31524349408E+01  0.86864817860E+00  0.81540110126E+01  0.00000000000E+00 0. -1.
        -14    1    4    4    0    0  0.11724155505E+03 -0.18797520920E+03 -0.36143620189E+01  0.22157013589E+03  0.00000000000E+00 0.  1.
</event>
<event>
12    1  0.1628146E-001  0.4002079E+03  0.7818608E-02  0.1043975E+00
         21   -1    0    0  501  502  0.00000000000E+00  0.00000000000E+00  0.47429445137E+03  0.47429445137E+03  0.00000000000E+00 0.  1.
         21   -1    0    0  502  503 -0.00000000000E+00 -0.00000000000E+00 -0.50244078747E+03  0.50244078747E+03  0.00000000000E+00 0. -1.
         -6    2    1    2    0  503  0.11397460358E+02 -0.35851924849E+03  0.26780282968E+03  0.47898800184E+03  0.17042651400E+03 0.  0.
        -24    2    3    3    0    0  0.39357718930E+02 -0.14093875345E+03  0.62909074967E+02  0.17877709497E+03  0.81184578019E+02 0.  0.
          6    2    1    2  501    0 -0.11397460358E+02  0.35851924849E+03 -0.29594916577E+03  0.49774723700E+03  0.17748366004E+03 0.  0.
         24    2    5    5    0    0 -0.47777724697E+02  0.26626501518E+03 -0.14549399005E+03  0.31748848659E+03  0.80316055001E+02 0.  0.
          5    1    5    5  501    0  0.36380264339E+02  0.92254233309E+02 -0.15045517573E+03  0.18025875041E+03  0.47000000000E+01 0. -1.
        -13    1    6    6    0    0 -0.17400585663E+02  0.39464121691E+02  0.52848562111E+01  0.43452583208E+02  0.00000000000E+00 0.  1.
         14    1    6    6    0    0 -0.30377139034E+02  0.22680089349E+03 -0.15077884626E+03  0.27403590338E+03  0.00000000000E+00 0. -1.
         -5    1    3    3    0  503 -0.27960258571E+02 -0.21758049504E+03  0.20489375471E+03  0.30021090687E+03  0.47000000000E+01 0.  1.
         13    1    4    4    0    0  0.64567686174E+02 -0.10057705917E+03  0.49244386489E+02  0.12926616158E+03  0.00000000000E+00 0. -1.
        -14    1    4    4    0    0 -0.25209967244E+02 -0.40361694283E+02  0.13664688478E+02  0.49510933389E+02  0.00000000000E+00 0.  1.
</event>
<event>
12    1  0.1628146E-001  0.2792293E+03  0.7818608E-02  0.1096169E+00
         21   -1    0    0  503  502  0.00000000000E+00  0.00000000000E+00  0.90140154114E+03  0.90140154114E+03  0.00000000000E+00 0.  1.
         21   -1    0    0  501  503 -0.00000000000E+00 -0.00000000000E+00 -0.86483929976E+02  0.86483929976E+02  0.00000000000E+00 0. -1.
          6    2    1    2  501    0 -0.10328421166E+03 -0.19412317007E+03  0.38889203598E+03  0.47850661504E+03  0.17140633434E+03 0.  0.
         24    2    3    3    0    0  0.56384898222E+01 -0.67962691271E+02  0.20175188333E+03  0.22785915735E+03  0.81026250018E+02 0.  0.
         -6    2    1    2    0  502  0.10328421166E+03  0.19412317007E+03  0.42602557519E+03  0.50937885608E+03  0.17209763153E+03 0.  0.
        -24    2    5    5    0    0  0.29270345900E+01  0.50657382438E+02  0.95992159892E+02  0.13575051077E+03  0.81479865535E+02 0.  0.
          5    1    3    3  501    0 -0.10892270148E+03 -0.12616047880E+03  0.18714015265E+03  0.25064745768E+03  0.47000000000E+01 0. -1.
        -11    1    4    4    0    0 -0.57254819601E+01  0.17933732579E+02  0.44466601847E+02  0.48287457872E+02  0.00000000000E+00 0.  1.
         12    1    4    4    0    0  0.11363971782E+02 -0.85896423850E+02  0.15728528148E+03  0.17957169948E+03  0.00000000000E+00 0. -1.
         -5    1    5    5    0  502  0.10035717707E+03  0.14346578763E+03  0.33003341529E+03  0.37362834531E+03  0.47000000000E+01 0.  1.
         11    1    6    6    0    0 -0.66667071208E+01  0.54279761177E+02  0.10733220391E+03  0.12046136083E+03  0.00000000000E+00 0. -1.
        -12    1    6    6    0    0  0.95937417108E+01 -0.36223787391E+01 -0.11340044015E+02  0.15289149944E+02  0.00000000000E+00 0.  1.
</event>
<event>
12    1  0.1628146E-001  0.1765369E+03  0.7818608E-02  0.1171212E+00
         21   -1    0    0  501  502  0.00000000000E+00  0.00000000000E+00  0.56092719546E+03  0.56092719546E+03  0.00000000000E+00 0.  1.
         21   -1    0    0  502  503 -0.00000000000E+00 -0.00000000000E+00 -0.17609358715E+03  0.17609358715E+03  0.00000000000E+00 0.  1.
         -6    2    1    2    0  503 -0.26361051657E+02  0.30979822240E+02 -0.11247804127E+03  0.20932407989E+03  0.17178651351E+03 0.  0.
        -24    2    3    3    0    0 -0.74080971901E+02  0.43639785805E+02 -0.47372776705E+02  0.12748123695E+03  0.81331817262E+02 0.  0.
          6    2    1    2  501    0  0.26361051657E+02 -0.30979822240E+02  0.49731164958E+03  0.52769670272E+03  0.17172733860E+03 0.  0.
         24    2    5    5    0    0  0.18416933109E+02 -0.64186672393E+02  0.47586075813E+03  0.48710070956E+03  0.79777990632E+02 0.  0.
          5    1    5    5  501    0  0.79441185482E+01  0.33206850153E+02  0.21450891451E+02  0.40595993160E+02  0.47000000000E+01 0. -1.
        -13    1    6    6    0    0  0.20093436459E+02 -0.86450600822E+01  0.33444549539E+03  0.33516007017E+03  0.00000000000E+00 0.  1.
         14    1    6    6    0    0 -0.16765033499E+01 -0.55541612311E+02  0.14141526274E+03  0.15194063938E+03  0.00000000000E+00 0. -1.
         -5    1    3    3    0  503  0.47719920244E+02 -0.12659963565E+02 -0.65105264568E+02  0.81842842937E+02  0.47000000000E+01 0.  1.
         13    1    4    4    0    0  0.63646930553E+01  0.37095969929E+02 -0.15487804483E+02  0.40700029366E+02  0.00000000000E+00 0. -1.
        -14    1    4    4    0    0 -0.80445664957E+02  0.65438158757E+01 -0.31884972222E+02  0.86781207586E+02  0.00000000000E+00 0.  1.
</event>
<event>
12    1  0.1628146E-001  0.2136512E+03  0.7818608E-02  0.1140219E+00
         21   -1    0    0  501  502  0.00000000000E+00  0.00000000000E+00  0.98594035700E+03  0.98594035700E+03  0.00000000000E+00 0.  1.
         21   -1    0    0  502  503 -0.00000000000E+00 -0.00000000000E+00 -0.96508805902E+02  0.96508805902E+02  0.00000000000E+00 0.  1.
         -6    2    1    2    0  503  0.27136390542E+02 -0.11371549048E+03  0.51773884442E+02  0.21983487250E+03  0.17882740168E+03 0.  0.
        -24    2    3    3    0    0 -0.98105559654E+01 -0.42376766714E+02 -0.40997353309E+02  0.97022483391E+02  0.76423438417E+02 0.  0.
          6    2    1    2  501    0 -0.27136390542E+02  0.11371549048E+03  0.83765766665E+03  0.86261429040E+03  0.16960380605E+03 0.  0.
         24    2    5    5    0    0 -0.19915478045E+02  0.90268863637E+02  0.82631230902E+03  0.83517903885E+03  0.78656855333E+02 0.  0.
          5    1    5    5  501    0 -0.72209124967E+01  0.23446626846E+02  0.11345357638E+02  0.27435251551E+02  0.47000000000E+01 0. -1.
        -13    1    6    6    0    0  0.22375417122E+02  0.53454284084E+02  0.27600422463E+03  0.28202189949E+03  0.00000000000E+00 0.  1.
         14    1    6    6    0    0 -0.42290895167E+02  0.36814579553E+02  0.55030808438E+03  0.55315713935E+03  0.00000000000E+00 0. -1.
         -5    1    3    3    0  503  0.36946946507E+02 -0.71338723769E+02  0.92771237751E+02  0.12281238911E+03  0.47000000000E+01 0.  1.
         11    1    4    4    0    0 -0.42695883337E+02 -0.17091959625E+02 -0.16578720999E+02  0.48886885027E+02  0.00000000000E+00 0. -1.
        -12    1    4    4    0    0  0.32885327372E+02 -0.25284807090E+02 -0.24418632311E+02  0.48135598364E+02  0.00000000000E+00 0.  1.
</event>
<event>
12    1  0.1628146E-001  0.1805450E+03  0.7818608E-02  0.1167663E+00
         21   -1    0    0  503  502  0.00000000000E+00  0.00000000000E+00  0.68302893596E+02  0.68302893596E+02  0.00000000000E+00 0. -1.
         21   -1    0    0  501  503 -0.00000000000E+00 -0.00000000000E+00 -0.48006483871E+03  0.48006483871E+03  0.00000000000E+00 0. -1.
          6    2    1    2  501    0 -0.25848369174E+01  0.48881984012E+02 -0.17177525382E+03  0.24805103597E+03  0.17212335367E+03 0.  0.
         24    2    3    3    0    0  0.33763710441E+02  0.35093644909E+02 -0.18397558163E+03  0.20703551221E+03  0.81517707439E+02 0.  0.
         -6    2    1    2    0  502  0.25848369174E+01 -0.48881984012E+02 -0.23998669130E+03  0.30031669634E+03  0.17378255481E+03 0.  0.
        -24    2    5    5    0    0  0.35761088269E+02 -0.66211909898E+02 -0.79755989582E+02  0.13570516042E+03  0.79949985893E+02 0.  0.
          5    1    3    3  501    0 -0.36348547358E+02  0.13788339103E+02  0.12200327809E+02  0.41015523755E+02  0.47000000000E+01 0. -1.
        -13    1    4    4    0    0  0.11306890255E+02  0.48532259759E+02 -0.50235742019E+02  0.70759139203E+02  0.00000000000E+00 0.  1.
         14    1    4    4    0    0  0.22456820186E+02 -0.13438614850E+02 -0.13373983961E+03  0.13627637301E+03  0.00000000000E+00 0. -1.
         -5    1    5    5    0  502 -0.33176251352E+02  0.17329925887E+02 -0.16023070171E+03  0.16461153592E+03  0.47000000000E+01 0.  1.
         13    1    6    6    0    0 -0.58359631316E+01 -0.20734812781E+02  0.12388606048E+02  0.24848913186E+02  0.00000000000E+00 0. -1.
        -14    1    6    6    0    0  0.41597051401E+02 -0.45477097117E+02 -0.92144595629E+02  0.11085624724E+03  0.00000000000E+00 0.  1.
</event>
<event>
12    1  0.1628146E-001  0.1969845E+03  0.7818608E-02  0.1153285E+00
         21   -1    0    0  503  502  0.00000000000E+00  0.00000000000E+00  0.62210734056E+03  0.62210734056E+03  0.00000000000E+00 0.  1.
         21   -1    0    0  501  503 -0.00000000000E+00 -0.00000000000E+00 -0.61055586154E+02  0.61055586154E+02  0.00000000000E+00 0. -1.
          6    2    1    2  501    0 -0.61993936973E+02 -0.62585676069E+02  0.29716123546E+03  0.35652163259E+03  0.17618927202E+03 0.  0.
         24    2    3    3    0    0 -0.56633639276E+02 -0.56952020171E+02  0.31562054656E+03  0.33594720583E+03  0.82421441351E+02 0.  0.
         -6    2    1    2    0  502  0.61993936973E+02  0.62585676069E+02  0.26389051894E+03  0.32664129412E+03  0.17116107608E+03 0.  0.
        -24    2    5    5    0    0  0.69566182965E+02  0.10456268814E+03  0.21494916253E+03  0.26155093523E+03  0.80205608823E+02 0.  0.
          5    1    3    3  501    0 -0.53602976971E+01 -0.56336558984E+01 -0.18459311101E+02  0.20574426760E+02  0.47000000000E+01 0. -1.
        -11    1    4    4    0    0 -0.55749084081E+02 -0.43444198198E+02  0.11577475470E+03  0.13564347592E+03  0.00000000000E+00 0.  1.
         12    1    4    4    0    0 -0.88455519465E+00 -0.13507821972E+02  0.19984579187E+03  0.20030372992E+03  0.00000000000E+00 0. -1.
         -5    1    5    5    0  502 -0.75722459915E+01 -0.41977012075E+02  0.48941356416E+02  0.65090358886E+02  0.47000000000E+01 0.  1.
         13    1    6    6    0    0  0.50560922959E+02  0.44829388976E+02  0.47070130700E+02  0.82350945657E+02  0.00000000000E+00 0. -1.
        -14    1    6    6    0    0  0.19005260005E+02  0.59733299168E+02  0.16787903183E+03  0.17919998958E+03  0.00000000000E+00 0.  1.
</event>
<event>
12    1  0.1628146E-001  0.1878886E+03  0.7818608E-02  0.1161134E+00
         21   -1    0    0  501  502  0.00000000000E+00  0.00000000000E+00  0.34089085983E+02  0.34089085983E+02  0.00000000000E+00 0. -1.
         21   -1    0    0  502  503 -0.00000000000E+00 -0.00000000000E+00 -0.14752486697E+04  0.14752486697E+04  0.00000000000E+00 0. -1.
         -6    2    1    2    0  503 -0.18111349808E+02 -0.59666222112E+02 -0.11365136429E+04  0.11514114269E+04  0.17377265150E+03 0.  0.
        -24    2    3    3    0    0 -0.38228054687E+02 -0.10092291826E+03 -0.76475789346E+03  0.77680333296E+03  0.83198334692E+02 0.  0.
          6    2    1    2  501    0  0.18111349808E+02  0.59666222112E+02 -0.30464594082E+03  0.35792632880E+03  0.17724003085E+03 0.  0.
         24    2    5    5    0    0  0.74400328220E+02  0.54448053789E+02 -0.25319228578E+03  0.28134142827E+03  0.80911471902E+02 0.  0.
          5    1    5    5  501    0 -0.56288978412E+02  0.52181683237E+01 -0.51453655042E+02  0.76584900526E+02  0.47000000000E+01 0. -1.
        -13    1    6    6    0    0  0.18285365490E+02 -0.20363378431E+02 -0.79415362446E+02  0.83998937878E+02  0.00000000000E+00 0.  1.
         14    1    6    6    0    0  0.56114962730E+02  0.74811432220E+02 -0.17377692333E+03  0.19734249039E+03  0.00000000000E+00 0. -1.
         -5    1    3    3    0  503  0.20116704879E+02  0.41256696143E+02 -0.37175574942E+03  0.37460809391E+03  0.47000000000E+01 0.  1.
         11    1    4    4    0    0 -0.11588869327E+01 -0.74020327260E+02 -0.63294189730E+03  0.63725646111E+03  0.00000000000E+00 0. -1.
        -12    1    4    4    0    0 -0.37069167754E+02 -0.26902590995E+02 -0.13181599616E+03  0.13954687186E+03  0.00000000000E+00 0.  1.
</event>
<event>
12    1  0.1628146E-001  0.1877757E+03  0.7818608E-02  0.1160577E+00
         21   -1    0    0  503  502  0.00000000000E+00  0.00000000000E+00  0.31225899937E+03  0.31225899937E+03  0.00000000000E+00 0. -1.
         21   -1    0    0  501  503 -0.00000000000E+00 -0.00000000000E+00 -0.12304937041E+03  0.12304937041E+03  0.00000000000E+00 0.  1.
          6    2    1    2  501    0  0.57713596617E+02 -0.46348429906E+02  0.15772000072E+03  0.24491062814E+03  0.17212373735E+03 0.  0.
         24    2    3    3    0    0 -0.12417514651E+02  0.51110332467E+01  0.12865350479E+03  0.15307708143E+03  0.81856894845E+02 0.  0.
         -6    2    1    2    0  502 -0.57713596617E+02  0.46348429906E+02  0.31489628234E+02  0.19039774164E+03  0.17257075983E+03 0.  0.
        -24    2    5    5    0    0  0.30224330392E+02  0.13289937255E+02  0.42035395965E+02  0.95744447141E+02  0.79434829039E+02 0.  0.
          5    1    3    3  501    0  0.70131111268E+02 -0.51459463153E+02  0.29066495930E+02  0.91833546710E+02  0.47000000000E+01 0. -1.
        -11    1    4    4    0    0 -0.96223249957E+01  0.40113381443E+02  0.38902423322E+02  0.56701596534E+02  0.00000000000E+00 0.  1.
         12    1    4    4    0    0 -0.27951896554E+01 -0.35002348196E+02  0.89751081468E+02  0.96375484897E+02  0.00000000000E+00 0. -1.
         -5    1    5    5    0  502 -0.87937927010E+02  0.33058492652E+02 -0.10545767731E+02  0.94653294502E+02  0.47000000000E+01 0.  1.
         13    1    6    6    0    0  0.12140707013E+02  0.34414223300E+01  0.64236409567E+02  0.65464161711E+02  0.00000000000E+00 0. -1.
        -14    1    6    6    0    0  0.18083623379E+02  0.98485149246E+01 -0.22201013602E+02  0.30280285430E+02  0.00000000000E+00 0.  1.
</event>
<event>
12    1  0.1628146E-001  0.1906270E+03  0.7818608E-02  0.1158547E+00
         21   -1    0    0  503  502  0.00000000000E+00  0.00000000000E+00  0.17322200754E+03  0.17322200754E+03  0.00000000000E+00 0. -1.
         21   -1    0    0  501  503 -0.00000000000E+00 -0.00000000000E+00 -0.71975265009E+03  0.71975265009E+03  0.00000000000E+00 0. -1.
          6    2    1    2  501    0 -0.32706047210E+02 -0.67040828143E+02 -0.65084414252E+03  0.67818636402E+03  0.17542658958E+03 0.  0.
         24    2    3    3    0    0 -0.83860620499E+02 -0.60607939687E+02 -0.54567926804E+03  0.56096898798E+03  0.78831566531E+02 0.  0.
         -6    2    1    2    0  502  0.32706047210E+02  0.67040828143E+02  0.10431349997E+03  0.21478829361E+03  0.17230364661E+03 0.  0.
        -24    2    5    5    0    0  0.27493661972E+02 -0.27655929968E+02  0.77655903946E+02  0.11616090197E+03  0.77085431936E+02 0.  0.
          5    1    3    3  501    0  0.51154573290E+02 -0.64328884563E+01 -0.10516487448E+03  0.11721737604E+03  0.47000000000E+01 0. -1.
        -11    1    4    4    0    0 -0.91396303384E+02 -0.28619198491E+02 -0.43977489562E+03  0.45008254977E+03  0.00000000000E+00 0.  1.
         12    1    4    4    0    0  0.75356828853E+01 -0.31988741196E+02 -0.10590437243E+03  0.11088643821E+03  0.00000000000E+00 0. -1.
         -5    1    5    5    0  502  0.52123852372E+01  0.94696758111E+02  0.26657596020E+02  0.98627391642E+02  0.47000000000E+01 0.  1.
         13    1    6    6    0    0 -0.11985813738E+01 -0.23473442025E+02  0.83359539936E+02  0.86609768364E+02  0.00000000000E+00 0. -1.
        -14    1    6    6    0    0  0.28692243346E+02 -0.41824879431E+01 -0.57036359899E+01  0.29551133602E+02  0.00000000000E+00 0.  1.
</event>
<event>
12    1  0.1628146E-001  0.1932948E+03  0.7818608E-02  0.1155629E+00
         21   -1    0    0  503  502  0.00000000000E+00  0.00000000000E+00  0.10386681226E+04  0.10386681226E+04  0.00000000000E+00 0.  1.
         21   -1    0    0  501  503 -0.00000000000E+00 -0.00000000000E+00 -0.40308104354E+02  0.40308104354E+02  0.00000000000E+00 0. -1.
          6    2    1    2  501    0 -0.87098811655E+02  0.86262505788E+01  0.67849480765E+03  0.70549138724E+03  0.17234348920E+03 0.  0.
         24    2    3    3    0    0 -0.63014157755E+01  0.31096242840E+01  0.13585007561E+03  0.15681657684E+03  0.78018062827E+02 0.  0.
         -6    2    1    2    0  502  0.87098811655E+02 -0.86262505788E+01  0.31986521055E+03  0.37348483967E+03  0.17180383393E+03 0.  0.
        -24    2    5    5    0    0  0.33651559693E+02 -0.24376665532E+02  0.60870223767E+02  0.10852224327E+03  0.79657038922E+02 0.  0.
          5    1    3    3  501    0 -0.80797395880E+02  0.55166262948E+01  0.54264473204E+03  0.54867481039E+03  0.47000000000E+01 0. -1.
        -11    1    4    4    0    0 -0.14479288020E+02  0.82601360391E+01  0.14351594712E+03  0.14448081778E+03  0.00000000000E+00 0.  1.
         12    1    4    4    0    0  0.81778722444E+01 -0.51505117551E+01 -0.76658715096E+01  0.12335759068E+02  0.00000000000E+00 0. -1.
         -5    1    5    5    0  502  0.53447251962E+02  0.15750414953E+02  0.25899498679E+03  0.26496259641E+03  0.47000000000E+01 0.  1.
         13    1    6    6    0    0  0.35614433660E+02 -0.11438614380E+02 -0.81404489242E+01  0.38281806286E+02  0.00000000000E+00 0. -1.
        -14    1    6    6    0    0 -0.19628739667E+01 -0.12938051152E+02  0.69010672691E+02  0.70240436980E+02  0.00000000000E+00 0.  1.
</event>
<event>
12    1  0.1628146E-001  0.2177496E+03  0.7818608E-02  0.1135584E+00
         21   -1    0    0  503  502  0.00000000000E+00  0.00000000000E+00  0.90913627504E+03  0.90913627504E+03  0.00000000000E+00 0. -1.
         21   -1    0    0  501  503 -0.00000000000E+00 -0.00000000000E+00 -0.80401398012E+02  0.80401398012E+02  0.00000000000E+00 0. -1.
          6    2    1    2  501    0 -0.30759921175E+02  0.12916882083E+03  0.12106109397E+03  0.24913990574E+03  0.17258084231E+03 0.  0.
         24    2    3    3    0    0 -0.29458472713E+02  0.16300636819E+03  0.10147764475E+03  0.20974098617E+03  0.79086605768E+02 0.  0.
         -6    2    1    2    0  502  0.30759921175E+02 -0.12916882083E+03  0.70767378306E+03  0.74039776731E+03  0.17249902489E+03 0.  0.
        -24    2    5    5    0    0 -0.12717514166E+02 -0.10098240507E+03  0.64975873889E+03  0.66254531868E+03  0.80129265808E+02 0.  0.
          5    1    3    3  501    0 -0.13014484622E+01 -0.33837547361E+02  0.19583449221E+02  0.39398919565E+02  0.47000000000E+01 0. -1.
        -11    1    4    4    0    0 -0.52844112901E+02  0.83889769779E+02  0.40260026696E+02  0.10700870755E+03  0.00000000000E+00 0.  1.
         12    1    4    4    0    0  0.23385640188E+02  0.79116598414E+02  0.61217618050E+02  0.10273227862E+03  0.00000000000E+00 0. -1.
         -5    1    5    5    0  502  0.43477435341E+02 -0.28186415757E+02  0.57915044170E+02  0.77852448634E+02  0.47000000000E+01 0.  1.
         13    1    6    6    0    0 -0.21062110920E+02 -0.40262801655E+02  0.47844348327E+03  0.48059637160E+03  0.00000000000E+00 0. -1.
        -14    1    6    6    0    0  0.83445967545E+01 -0.60719603420E+02  0.17131525562E+03  0.18194894708E+03  0.00000000000E+00 0.  1.
</event>
<event>
12    1  0.1628146E-001  0.1725712E+03  0.7818608E-02  0.1175495E+00
         21   -1    0    0  501  502  0.00000000000E+00  0.00000000000E+00  0.17911057789E+03  0.17911057789E+03  0.00000000000E+00 0.  1.
         21   -1    0    0  502  503 -0.00000000000E+00 -0.00000000000E+00 -0.16624320830E+03  0.16624320830E+03  0.00000000000E+00 0.  1.
         -6    2    1    2    0  503 -0.94858557366E+01  0.40791460421E+01 -0.76273256987E+01  0.17273970621E+03  0.17226203619E+03 0.  0.
        -24    2    3    3    0    0  0.37984298762E+02 -0.16791465787E+02 -0.51279413988E+02  0.10479419261E+03  0.81409362054E+02 0.  0.
          6    2    1    2  501    0  0.94858557366E+01 -0.40791460421E+01  0.20494695288E+02  0.17261407997E+03  0.17108175583E+03 0.  0.
         24    2    5    5    0    0 -0.59204589940E+02 -0.79703898882E+01  0.29086274225E+02  0.10312002027E+03  0.78860742113E+02 0.  0.
          5    1    5    5  501    0  0.68690445676E+02  0.38912438461E+01 -0.85915789361E+01  0.69494059707E+02  0.47000000000E+01 0. -1.
        -13    1    6    6    0    0 -0.28589927192E+02 -0.75625325411E+01 -0.26467643624E+02  0.39687680636E+02  0.00000000000E+00 0.  1.
         14    1    6    6    0    0 -0.30614662748E+02 -0.40785734707E+00  0.55553917848E+02  0.63432339631E+02  0.00000000000E+00 0. -1.
         -5    1    3    3    0  503 -0.47470154499E+02  0.20870611829E+02  0.43652088290E+02  0.67945513600E+02  0.47000000000E+01 0.  1.
         13    1    4    4    0    0  0.33437007172E+02 -0.47286933233E+02 -0.21068554523E+02  0.61627684468E+02  0.00000000000E+00 0. -1.
        -14    1    4    4    0    0  0.45472915898E+01  0.30495467446E+02 -0.30210859466E+02  0.43166508142E+02  0.00000000000E+00 0.  1.
</event>
<event>
12    1  0.1628146E-001  0.2022922E+03  0.7818608E-02  0.1147903E+00
         21   -1    0    0  503  502  0.00000000000E+00  0.00000000000E+00  0.30977278369E+02  0.30977278369E+02  0.00000000000E+00 0. -1.
         21   -1    0    0  501  503 -0.00000000000E+00 -0.00000000000E+00 -0.17738302485E+04  0.17738302485E+04  0.00000000000E+00 0. -1.
          6    2    1    2  501    0 -0.23748076651E+02 -0.10361762874E+03 -0.13280251774E+04  0.13432836950E+04  0.17163807584E+03 0.  0.
         24    2    3    3    0    0 -0.74601214137E+01 -0.13785983639E+03 -0.10999455878E+04  0.11120257968E+04  0.87521932186E+02 0.  0.
         -6    2    1    2    0  502  0.23748076651E+02  0.10361762874E+03 -0.41482779267E+03  0.46152383190E+03  0.17210916799E+03 0.  0.
        -24    2    5    5    0    0  0.42029326321E+02  0.13123272236E+03 -0.27590402901E+03  0.31862981665E+03  0.80083925617E+02 0.  0.
          5    1    3    3  501    0 -0.16287955237E+02  0.34242207654E+02 -0.22807958959E+03  0.23125789815E+03  0.47000000000E+01 0. -1.
        -13    1    4    4    0    0  0.17348672539E+02 -0.13656553611E+02 -0.52547687741E+02  0.56997696290E+02  0.00000000000E+00 0.  1.
         14    1    4    4    0    0 -0.24808793953E+02 -0.12420328278E+03 -0.10473979001E+04  0.10550281005E+04  0.00000000000E+00 0. -1.
         -5    1    5    5    0  502 -0.18281249671E+02 -0.27615093620E+02 -0.13892376366E+03  0.14289401525E+03  0.47000000000E+01 0.  1.
         13    1    6    6    0    0  0.80515146554E+01  0.10549703296E+03 -0.24216222654E+03  0.26426690071E+03  0.00000000000E+00 0. -1.
        -14    1    6    6    0    0  0.33977811666E+02  0.25735689402E+02 -0.33741802477E+02  0.54362915935E+02  0.00000000000E+00 0.  1.
</event>
<event>
12    1  0.1628146E-001  0.1794431E+03  0.7818608E-02  0.1168496E+00
         21   -1    0    0  503  502  0.00000000000E+00  0.00000000000E+00  0.17990213946E+03  0.17990213946E+03  0.00000000000E+00 0.  1.
         21   -1    0    0  501  503 -0.00000000000E+00 -0.00000000000E+00 -0.26924187103E+03  0.26924187103E+03  0.00000000000E+00 0.  1.
          6    2    1    2  501    0 -0.11267152913E+02 -0.49810263213E+02 -0.17519591084E+03  0.25078560437E+03  0.17202267621E+03 0.  0.
         24    2    3    3    0    0  0.30420569495E+02 -0.32409692652E+02 -0.18353685762E+03  0.20460868970E+03  0.78760006138E+02 0.  0.
         -6    2    1    2    0  502  0.11267152913E+02  0.49810263213E+02  0.85856179267E+02  0.19835840612E+03  0.17136733266E+03 0.  0.
        -24    2    5    5    0    0  0.62709785628E+02  0.26793048616E+02  0.94606741960E+02  0.14113254679E+03  0.79483177290E+02 0.  0.
          5    1    3    3  501    0 -0.41687722408E+02 -0.17400570561E+02  0.83409467872E+01  0.46176914673E+02  0.47000000000E+01 0. -1.
        -13    1    4    4    0    0  0.22716791130E+02  0.20627013230E+02 -0.34205473254E+02  0.45951503507E+02  0.00000000000E+00 0.  1.
         14    1    4    4    0    0  0.77037783653E+01 -0.53036705882E+02 -0.14933138437E+03  0.15865718619E+03  0.00000000000E+00 0. -1.
         -5    1    5    5    0  502 -0.51442632715E+02  0.23017214597E+02 -0.87505626931E+01  0.57225859329E+02  0.47000000000E+01 0.  1.
         13    1    6    6    0    0  0.33491294720E+02  0.52011448132E+02  0.37937279300E+02  0.72567862856E+02  0.00000000000E+00 0. -1.
        -14    1    6    6    0    0  0.29218490909E+02 -0.25218399516E+02  0.56669462660E+02  0.68564683937E+02  0.00000000000E+00 0.  1.
</event>
<event>
12    1  0.1628146E-001  0.1811793E+03  0.7818608E-02  0.1168320E+00
         21   -1    0    0  503  502  0.00000000000E+00  0.00000000000E+00  0.10253013361E+04  0.10253013361E+04  0.00000000000E+00 0. -1.
         21   -1    0    0  501  503 -0.00000000000E+00 -0.00000000000E+00 -0.56645682287E+02  0.56645682287E+02  0.00000000000E+00 0. -1.
          6    2    1    2  501    0  0.33104216913E+02 -0.19941756121E+01  0.11417765169E+03  0.20847199892E+03  0.17124302109E+03 0.  0.
         24    2    3    3    0    0 -0.41124883283E+02  0.21388125661E+02  0.66681357695E+02  0.11717753429E+03  0.84471670598E+02 0.  0.
         -6    2    1    2    0  502 -0.33104216913E+02  0.19941756121E+01  0.85447800211E+03  0.87347501946E+03  0.17811818438E+03 0.  0.
        -24    2    5    5    0    0  0.25587517781E+02  0.43965019595E+02  0.67911017702E+03  0.68378517907E+03  0.61513369090E+02 0.  0.
          5    1    3    3  501    0  0.74229100196E+02 -0.23382301273E+02  0.47496293991E+02  0.91294464627E+02  0.47000000000E+01 0. -1.
        -13    1    4    4    0    0 -0.60285653227E+02  0.35453615755E+02  0.36905607131E+02  0.79078079724E+02  0.00000000000E+00 0.  1.
         14    1    4    4    0    0  0.19160769945E+02 -0.14065490094E+02  0.29775750564E+02  0.38099454565E+02  0.00000000000E+00 0. -1.
         -5    1    5    5    0  502 -0.58691734695E+02 -0.41970843983E+02  0.17536782510E+03  0.18968984039E+03  0.47000000000E+01 0.  1.
         13    1    6    6    0    0 -0.15308084877E+02  0.14973702975E+02  0.37154318148E+03  0.37215975729E+03  0.00000000000E+00 0. -1.
        -14    1    6    6    0    0  0.40895602658E+02  0.28991316620E+02  0.30756699554E+03  0.31162542178E+03  0.00000000000E+00 0.  1.
</event>
<event>
12    1  0.1628146E-001  0.1952417E+03  0.7818608E-02  0.1153997E+00
         21   -1    0    0  503  502  0.00000000000E+00  0.00000000000E+00  0.22325906844E+03  0.22325906844E+03  0.00000000000E+00 0. -1.
         21   -1    0    0  501  503 -0.00000000000E+00 -0.00000000000E+00 -0.23897746171E+03  0.23897746171E+03  0.00000000000E+00 0.  1.
          6    2    1    2  501    0 -0.65863292829E+02  0.64287153331E+02 -0.13199900606E+03  0.23499109498E+03  0.17124913341E+03 0.  0.
         24    2    3    3    0    0 -0.54826119654E+02  0.10634340058E+03 -0.72319615685E+02  0.16100280699E+03  0.79855837624E+02 0.  0.
         -6    2    1    2    0  502  0.65863292829E+02 -0.64287153331E+02  0.11628061279E+03  0.22724543517E+03  0.17218738476E+03 0.  0.
        -24    2    5    5    0    0  0.51389258702E+02 -0.24749826672E+02  0.14596808872E+03  0.17551407051E+03  0.79025921022E+02 0.  0.
          5    1    3    3  501    0 -0.11037173174E+02 -0.42056247246E+02 -0.59679390372E+02  0.73988287987E+02  0.47000000000E+01 0. -1.
        -11    1    4    4    0    0 -0.28779373757E+02  0.60912072339E+02  0.50707532661E+01  0.67559199589E+02  0.00000000000E+00 0.  1.
         12    1    4    4    0    0 -0.26046745898E+02  0.45431328239E+02 -0.77390368951E+02  0.93443607399E+02  0.00000000000E+00 0. -1.
         -5    1    5    5    0  502  0.14474034126E+02 -0.39537326659E+02 -0.29687475922E+02  0.51731364663E+02  0.47000000000E+01 0.  1.
         11    1    6    6    0    0  0.62890638633E+02  0.10567811262E+01  0.68221580927E+02  0.92792959422E+02  0.00000000000E+00 0. -1.
        -12    1    6    6    0    0 -0.11501379931E+02 -0.25806607798E+02  0.77746507790E+02  0.82721111089E+02  0.00000000000E+00 0.  1.
</event>
<event>
12    1  0.1628146E-001  0.1758695E+03  0.7818608E-02  0.1171898E+00
         21   -1    0    0  501  502  0.00000000000E+00  0.00000000000E+00  0.40838026813E+03  0.40838026813E+03  0.00000000000E+00 0. -1.
         21   -1    0    0  502  503 -0.00000000000E+00 -0.00000000000E+00 -0.11192500818E+03  0.11192500818E+03  0.00000000000E+00 0. -1.
         -6    2    1    2    0  503  0.22387186542E+02  0.34089147536E+02  0.13201702418E+00  0.17572214551E+03  0.17092395647E+03 0.  0.
        -24    2    3    3    0    0 -0.21173377283E+02 -0.55336037782E+01  0.53851863414E+02  0.95876062086E+02  0.76244759896E+02 0.  0.
          6    2    1    2  501    0 -0.22387186542E+02 -0.34089147536E+02  0.29632324293E+03  0.34458313079E+03  0.17107546179E+03 0.  0.
         24    2    5    5    0    0 -0.19208702626E+02 -0.79100874184E+02  0.13318837619E+03  0.17525731162E+03  0.79687258507E+02 0.  0.
          5    1    5    5  501    0 -0.31784839157E+01  0.45011726647E+02  0.16313486673E+03  0.16932581918E+03  0.47000000000E+01 0. -1.
        -13    1    6    6    0    0  0.14243927589E+02  0.71784914997E+01  0.43730507575E+02  0.46548657405E+02  0.00000000000E+00 0.  1.
         14    1    6    6    0    0 -0.33452630216E+02 -0.86279365683E+02  0.89457868620E+02  0.12870865421E+03  0.00000000000E+00 0. -1.
         -5    1    3    3    0  503  0.43560563825E+02  0.39622751314E+02 -0.53719846390E+02  0.79846083427E+02  0.47000000000E+01 0.  1.
         13    1    4    4    0    0 -0.13179235561E+02  0.97767788781E+01  0.70201085023E+02  0.72093480937E+02  0.00000000000E+00 0. -1.
        -14    1    4    4    0    0 -0.79941417221E+01 -0.15310382656E+02 -0.16349221608E+02  0.23782581150E+02  0.00000000000E+00 0.  1.
</event>
<event>
12    1  0.1628146E-001  0.1983916E+03  0.7818608E-02  0.1151395E+00
         21   -1    0    0  501  502  0.00000000000E+00  0.00000000000E+00  0.11924245416E+03  0.11924245416E+03  0.00000000000E+00 0.  1.
         21   -1    0    0  502  503 -0.00000000000E+00 -0.00000000000E+00 -0.37351039438E+03  0.37351039438E+03  0.00000000000E+00 0.  1.
         -6    2    1    2    0  503  0.88906123348E+02  0.41024219216E+02 -0.21292688790E+03  0.29009967375E+03  0.17097565846E+03 0.  0.
        -24    2    3    3    0    0  0.10337444160E+03 -0.72815064815E+01 -0.95780592668E+02  0.16247475512E+03  0.80528433527E+02 0.  0.
          6    2    1    2  501    0 -0.88906123348E+02 -0.41024219216E+02 -0.41341052321E+02  0.20265317479E+03  0.17254547608E+03 0.  0.
         24    2    5    5    0    0 -0.92536465855E+02 -0.86453199826E+02 -0.36605965235E+02  0.15659361861E+03  0.84524620232E+02 0.  0.
          5    1    5    5  501    0  0.36303425061E+01  0.45428980611E+02 -0.47350870854E+01  0.46059556182E+02  0.47000000000E+01 0. -1.
        -13    1    6    6    0    0 -0.30059221747E+02 -0.13673280030E+02  0.26018757160E+02  0.42041540445E+02  0.00000000000E+00 0.  1.
         14    1    6    6    0    0 -0.62477244107E+02 -0.72779919796E+02 -0.62624722395E+02  0.11455207816E+03  0.00000000000E+00 0. -1.
         -5    1    3    3    0  503 -0.14468318253E+02  0.48305725697E+02 -0.11714629524E+03  0.12762491863E+03  0.47000000000E+01 0.  1.
         13    1    4    4    0    0  0.88231095434E+01  0.49605927248E+00  0.14513373567E+02  0.16992096666E+02  0.00000000000E+00 0. -1.
        -14    1    4    4    0    0  0.94551332058E+02 -0.77775657540E+01 -0.11029396623E+03  0.14548265845E+03  0.00000000000E+00 0.  1.
</event>
<event>
12    1  0.1628146E-001  0.1875875E+03  0.7818608E-02  0.1160840E+00
         21   -1    0    0  503  502  0.00000000000E+00  0.00000000000E+00  0.30198076407E+03  0.30198076407E+03  0.00000000000E+00 0.  1.
         21   -1    0    0  501  503 -0.00000000000E+00 -0.00000000000E+00 -0.18362870394E+03  0.18362870394E+03  0.00000000000E+00 0. -1.
          6    2    1    2  501    0 -0.37826485409E+02  0.64512466959E+02 -0.88061686815E+02  0.20722913295E+03  0.17203590168E+03 0.  0.
         24    2    3    3    0    0  0.26912686880E+02  0.22570147517E+02  0.31854625047E+01  0.87653003024E+02  0.80244610372E+02 0.  0.
         -6    2    1    2    0  502  0.37826485409E+02 -0.64512466959E+02  0.20641374695E+03  0.27838033505E+03  0.17116154541E+03 0.  0.
        -24    2    5    5    0    0  0.23136797723E+02  0.14961795011E+01  0.30203132278E+02  0.89580973156E+02  0.81086198518E+02 0.  0.
          5    1    3    3  501    0 -0.64739172289E+02  0.41942319443E+02 -0.91247149320E+02  0.11957612992E+03  0.47000000000E+01 0. -1.
        -13    1    4    4    0    0  0.40637349264E+02  0.41644005921E+02  0.16713222284E+02  0.60538823770E+02  0.00000000000E+00 0.  1.
         14    1    4    4    0    0 -0.13724662384E+02 -0.19073858404E+02 -0.13527759779E+02  0.27114179254E+02  0.00000000000E+00 0. -1.
         -5    1    5    5    0  502  0.14689687686E+02 -0.66008646460E+02  0.17621061467E+03  0.18879936190E+03  0.47000000000E+01 0.  1.
         13    1    6    6    0    0  0.19659649850E+02  0.36250447112E+02  0.35299847323E+02  0.54283293646E+02  0.00000000000E+00 0. -1.
        -14    1    6    6    0    0  0.34771478727E+01 -0.34754267611E+02 -0.50967150453E+01  0.35297679510E+02  0.00000000000E+00 0.  1.
</event>
<event>
12    1  0.1628146E-001  0.2263750E+03  0.7818608E-02  0.1129667E+00
         21   -1    0    0  503  502  0.00000000000E+00  0.00000000000E+00  0.25635566570E+02  0.25635566570E+02  0.00000000000E+00 0.  1.
         21   -1    0    0  501  503 -0.00000000000E+00 -0.00000000000E+00 -0.20643019569E+04  0.20643019569E+04  0.00000000000E+00 0.  1.
          6    2    1    2  501    0 -0.13297473024E+03 -0.55296376675E+02 -0.80997812282E+03  0.84101736989E+03  0.17465877832E+03 0.  0.
         24    2    3    3    0    0 -0.14641438480E+03 -0.30262292094E+02 -0.78446972137E+03  0.80254532484E+03  0.79581884122E+02 0.  0.
         -6    2    1    2    0  502  0.13297473024E+03  0.55296376675E+02 -0.12286882675E+04  0.12489201536E+04  0.17142556156E+03 0.  0.
        -24    2    5    5    0    0  0.11614017739E+02  0.46425131143E+02 -0.71903370859E+03  0.72491921755E+03  0.78792256449E+02 0.  0.
          5    1    3    3  501    0  0.13439654556E+02 -0.25034084581E+02 -0.25508401452E+02  0.38472045046E+02  0.47000000000E+01 0. -1.
        -13    1    4    4    0    0 -0.93797921378E+02 -0.57499751434E+02 -0.49643366783E+03  0.50847876851E+03  0.00000000000E+00 0.  1.
         14    1    4    4    0    0 -0.52616463423E+02  0.27237459340E+02 -0.28803605354E+03  0.29406655633E+03  0.00000000000E+00 0. -1.
         -5    1    5    5    0  502  0.12136071251E+03  0.88712455317E+01 -0.50965455896E+03  0.52400093607E+03  0.47000000000E+01 0.  1.
         11    1    6    6    0    0  0.15295315768E+02 -0.20237553670E+02 -0.18697550793E+03  0.18868848886E+03  0.00000000000E+00 0. -1.
        -12    1    6    6    0    0 -0.36812980291E+01  0.66662684813E+02 -0.53205820066E+03  0.53623072869E+03  0.00000000000E+00 0.  1.
</event>
<event>
12    1  0.1628146E-001  0.2160374E+03  0.7818608E-02  0.1137602E+00
         21   -1    0    0  503  502  0.00000000000E+00  0.00000000000E+00  0.58202509414E+02  0.58202509414E+02  0.00000000000E+00 0.  1.
         21   -1    0    0  501  503 -0.00000000000E+00 -0.00000000000E+00 -0.86028846971E+03  0.86028846971E+03  0.00000000000E+00 0. -1.
          6    2    1    2  501    0 -0.11773982926E+03 -0.58443112686E+02 -0.53751117184E+03  0.57930165806E+03  0.17144645335E+03 0.  0.
         24    2    3    3    0    0 -0.71493540603E+02  0.12722765517E+02 -0.42650129176E+03  0.43948540397E+03  0.77271426236E+02 0.  0.
         -6    2    1    2    0  502  0.11773982926E+03  0.58443112686E+02 -0.26457478845E+03  0.33918932106E+03  0.16664726827E+03 0.  0.
        -24    2    5    5    0    0  0.60938896262E+02  0.56954114416E+02 -0.69056509420E+02  0.13552771314E+03  0.81496253339E+02 0.  0.
          5    1    3    3  501    0 -0.46246288656E+02 -0.71165878203E+02 -0.11100988008E+03  0.13981625410E+03  0.47000000000E+01 0. -1.
        -11    1    4    4    0    0  0.12632561702E+02  0.97357854202E+01 -0.13905482767E+03  0.13996646824E+03  0.00000000000E+00 0.  1.
         12    1    4    4    0    0 -0.84126102305E+02  0.29869800972E+01 -0.28744646410E+03  0.29951893573E+03  0.00000000000E+00 0. -1.
         -5    1    5    5    0  502  0.56800932997E+02  0.14889982693E+01 -0.19551827903E+03  0.20366160792E+03  0.47000000000E+01 0.  1.
         13    1    6    6    0    0  0.84655719895E+01  0.46870936612E+02 -0.66806950969E+02  0.82047055436E+02  0.00000000000E+00 0. -1.
        -14    1    6    6    0    0  0.52473324272E+02  0.10083177805E+02 -0.22495584506E+01  0.53480657700E+02  0.00000000000E+00 0.  1.
</event>
<event>
12    1  0.1628146E-001  0.2232681E+03  0.7818608E-02  0.1131671E+00
         21   -1    0    0  501  502  0.00000000000E+00  0.00000000000E+00  0.30527443756E+03  0.30527443756E+03  0.00000000000E+00 0.  1.
         21   -1    0    0  502  503 -0.00000000000E+00 -0.00000000000E+00 -0.16918285678E+03  0.16918285678E+03  0.00000000000E+00 0.  1.
         -6    2    1    2    0  503  0.13959692801E+03  0.26603278600E+02  0.21026561258E+02  0.22425604921E+03  0.17220227230E+03 0.  0.
        -24    2    3    3    0    0  0.10566313672E+03  0.51917432132E+02 -0.41724449150E+02  0.14841352903E+03  0.80159389473E+02 0.  0.
          6    2    1    2  501    0 -0.13959692801E+03 -0.26603278600E+02  0.11506501953E+03  0.25020124512E+03  0.17077958777E+03 0.  0.
         24    2    5    5    0    0 -0.48869867124E+02 -0.65644889539E+02  0.99271777959E+02  0.15006552002E+03  0.77248035344E+02 0.  0.
          5    1    5    5  501    0 -0.90727060891E+02  0.39041610939E+02  0.15793241567E+02  0.10013572510E+03  0.47000000000E+01 0. -1.
        -13    1    6    6    0    0 -0.32744269171E+02 -0.68954725095E+02  0.35467332457E+02  0.84171687331E+02  0.00000000000E+00 0.  1.
         14    1    6    6    0    0 -0.16125597953E+02  0.33098355563E+01  0.63804445501E+02  0.65893832689E+02  0.00000000000E+00 0. -1.
         -5    1    3    3    0  503  0.33933791292E+02 -0.25314153532E+02  0.62751010408E+02  0.75842520183E+02  0.47000000000E+01 0.  1.
         13    1    4    4    0    0  0.53220525787E+02  0.54746684426E+02  0.71310154435E+01  0.76684256546E+02  0.00000000000E+00 0. -1.
        -14    1    4    4    0    0  0.52442610936E+02 -0.28292522946E+01 -0.48855464594E+02  0.71729272483E+02  0.00000000000E+00 0.  1.
</event>
<event>
12    1  0.1628146E-001  0.2392550E+03  0.7818608E-02  0.1120550E+00
         21   -1    0    0  503  502  0.00000000000E+00  0.00000000000E+00  0.46750701817E+02  0.46750701817E+02  0.00000000000E+00 0.  1.
         21   -1    0    0  501  503 -0.00000000000E+00 -0.00000000000E+00 -0.15128817275E+04  0.15128817275E+04  0.00000000000E+00 0. -1.
          6    2    1    2  501    0 -0.12536467136E+03 -0.10856608914E+03 -0.10762982421E+04  0.11022348313E+04  0.17029627364E+03 0.  0.
         24    2    3    3    0    0 -0.10759637484E+03 -0.55435632283E+02 -0.43158791292E+03  0.45507792886E+03  0.78598381354E+02 0.  0.
         -6    2    1    2    0  502  0.12536467136E+03  0.10856608914E+03 -0.38983278356E+03  0.45739759800E+03  0.17245308633E+03 0.  0.
        -24    2    5    5    0    0  0.79034020481E+02  0.12616868801E+03 -0.25681153465E+03  0.31536547714E+03  0.10648148013E+03 0.  0.
          5    1    3    3  501    0 -0.17768296521E+02 -0.53130456859E+02 -0.64471032918E+03  0.64715690243E+03  0.47000000000E+01 0. -1.
        -13    1    4    4    0    0 -0.18949432598E+02 -0.51938905535E+02 -0.15130711534E+03  0.16109181871E+03  0.00000000000E+00 0.  1.
         14    1    4    4    0    0 -0.88646942242E+02 -0.34967267476E+01 -0.28028079758E+03  0.29398611015E+03  0.00000000000E+00 0. -1.
         -5    1    5    5    0  502  0.46330650881E+02 -0.17602598870E+02 -0.13302124890E+03  0.14203212087E+03  0.47000000000E+01 0.  1.
         13    1    6    6    0    0  0.42419002267E+02 -0.56289625488E+01 -0.37531179946E+02  0.56917892098E+02  0.00000000000E+00 0. -1.
        -14    1    6    6    0    0  0.36615018214E+02  0.13179765056E+03 -0.21928035471E+03  0.25844758504E+03  0.00000000000E+00 0.  1.
</event>
<event>
12    1  0.1628146E-001  0.2188746E+03  0.7818608E-02  0.1134970E+00
         21   -1    0    0  503  502  0.00000000000E+00  0.00000000000E+00  0.14797608627E+03  0.14797608627E+03  0.00000000000E+00 0.  1.
         21   -1    0    0  501  503 -0.00000000000E+00 -0.00000000000E+00 -0.19787562064E+04  0.19787562064E+04  0.00000000000E+00 0.  1.
          6    2    1    2  501    0 -0.87109664655E+02  0.10228565161E+03 -0.18880052092E+04  0.19005005876E+04  0.17113843903E+03 0.  0.
         24    2    3    3    0    0 -0.12557892828E+02  0.93037857705E+02 -0.15141675517E+04  0.15191606179E+04  0.79573013846E+02 0.  0.
         -6    2    1    2    0  502  0.87109664655E+02 -0.10228565161E+03  0.57225089014E+02  0.22623170512E+03  0.17278780451E+03 0.  0.
        -24    2    5    5    0    0  0.97279681457E+02 -0.89164613553E+02  0.97547399563E+02  0.18237318702E+03  0.79566446754E+02 0.  0.
          5    1    3    3  501    0 -0.74551771826E+02  0.92477939049E+01 -0.37383765744E+03  0.38133996970E+03  0.47000000000E+01 0. -1.
        -13    1    4    4    0    0 -0.44874323511E+02  0.66326601214E+02 -0.10843608727E+04  0.10873138577E+04  0.00000000000E+00 0.  1.
         14    1    4    4    0    0  0.32316430683E+02  0.26711256491E+02 -0.42980667907E+03  0.43184676019E+03  0.00000000000E+00 0. -1.
         -5    1    5    5    0  502 -0.10170016803E+02 -0.13121038057E+02 -0.40322310549E+02  0.43858518095E+02  0.47000000000E+01 0.  1.
         11    1    6    6    0    0  0.64698522937E+02 -0.59307481649E+02  0.15422651450E+02  0.89113042970E+02  0.00000000000E+00 0. -1.
        -12    1    6    6    0    0  0.32581158521E+02 -0.29857131904E+02  0.82124748114E+02  0.93260144053E+02  0.00000000000E+00 0.  1.
</event>
<event>
12    1  0.1628146E-001  0.1725193E+03  0.7818608E-02  0.1175528E+00
         21   -1    0    0  501  502  0.00000000000E+00  0.00000000000E+00  0.25821854071E+03  0.25821854071E+03  0.00000000000E+00 0. -1.
         21   -1    0    0  502  503 -0.00000000000E+00 -0.00000000000E+00 -0.11455237585E+03  0.11455237585E+03  0.00000000000E+00 0. -1.
         -6    2    1    2    0  503 -0.12109693312E+02 -0.32635102965E+01  0.74332201731E+02  0.18684055584E+03  0.17095853860E+03 0.  0.
        -24    2    3    3    0    0 -0.73744880953E+02 -0.31970699514E+00  0.50871320084E+02  0.12065849406E+03  0.80821849169E+02 0.  0.
          6    2    1    2  501    0  0.12109693312E+02  0.32635102965E+01  0.69333963126E+02  0.18593036072E+03  0.17206279500E+03 0.  0.
         24    2    5    5    0    0  0.21941685118E+02 -0.48996428109E+02 -0.16894026980E+01  0.97081175479E+02  0.80869110528E+02 0.  0.
          5    1    5    5  501    0 -0.98319918061E+01  0.52259938406E+02  0.71023365824E+02  0.88849185241E+02  0.47000000000E+01 0. -1.
        -11    1    6    6    0    0  0.11709666122E+02 -0.66100049596E+02  0.17543762367E+02  0.69383834106E+02  0.00000000000E+00 0.  1.
         12    1    6    6    0    0  0.10232018996E+02  0.17103621487E+02 -0.19233165065E+02  0.27697341373E+02  0.00000000000E+00 0. -1.
         -5    1    3    3    0  503  0.61635187641E+02 -0.29438033013E+01  0.23460881646E+02  0.66182061777E+02  0.47000000000E+01 0.  1.
         11    1    4    4    0    0 -0.60110276528E+02  0.79582408039E+00 -0.76128415538E+01  0.60595660214E+02  0.00000000000E+00 0. -1.
        -12    1    4    4    0    0 -0.13634604425E+02 -0.11155310755E+01  0.58484161638E+02  0.60062833849E+02  0.00000000000E+00 0.  1.
</event>
<event>
12    1  0.1628146E-001  0.1819103E+03  0.7818608E-02  0.1166868E+00
         21   -1    0    0  503  502  0.00000000000E+00  0.00000000000E+00  0.12732617761E+03  0.12732617761E+03  0.00000000000E+00 0.  1.
         21   -1    0    0  501  503 -0.00000000000E+00 -0.00000000000E+00 -0.10102324572E+04  0.10102324572E+04  0.00000000000E+00 0.  1.
          6    2    1    2  501    0 -0.32159851019E+02 -0.32283865987E+02 -0.93221033458E+03  0.94908513599E+03  0.17224977052E+03 0.  0.
         24    2    3    3    0    0  0.28901991387E+01 -0.76628522479E+02 -0.38631879353E+03  0.40025490799E+03  0.71284622676E+02 0.  0.
         -6    2    1    2    0  502  0.32159851019E+02  0.32283865987E+02  0.49304055037E+02  0.18847349877E+03  0.17611037981E+03 0.  0.
        -24    2    5    5    0    0 -0.38968654771E+02  0.26766586833E+02 -0.10888712868E+02  0.95012469392E+02  0.81693323146E+02 0.  0.
          5    1    3    3  501    0 -0.35050050158E+02  0.44344656491E+02 -0.54589154105E+03  0.54883022800E+03  0.47000000000E+01 0. -1.
        -11    1    4    4    0    0 -0.19747130348E+02 -0.60543206218E+02 -0.15950982965E+03  0.17175218989E+03  0.00000000000E+00 0.  1.
         12    1    4    4    0    0  0.22637329487E+02 -0.16085316260E+02 -0.22680896388E+03  0.22850271810E+03  0.00000000000E+00 0. -1.
         -5    1    5    5    0  502  0.71128505790E+02  0.55172791543E+01  0.60192767905E+02  0.93461029383E+02  0.47000000000E+01 0.  1.
         13    1    6    6    0    0 -0.42170537061E+02 -0.12107956689E+02  0.17009693236E+02  0.47056205491E+02  0.00000000000E+00 0. -1.
        -14    1    6    6    0    0  0.32018822898E+01  0.38874543522E+02 -0.27898406104E+02  0.47956263901E+02  0.00000000000E+00 0.  1.
</event>
<event>
12    1  0.1628146E-001  0.1787538E+03  0.7818608E-02  0.1169274E+00
         21   -1    0    0  503  502  0.00000000000E+00  0.00000000000E+00  0.13677054811E+04  0.13677054811E+04  0.00000000000E+00 0.  1.
         21   -1    0    0  501  503 -0.00000000000E+00 -0.00000000000E+00 -0.44399019472E+02  0.44399019472E+02  0.00000000000E+00 0.  1.
          6    2    1    2  501    0 -0.42142836574E+02  0.19664385236E+02  0.17303343375E+03  0.24802504903E+03  0.17150262105E+03 0.  0.
         24    2    3    3    0    0  0.24365752694E+01  0.47942254891E+02  0.17136306957E+03  0.19499824459E+03  0.79715852108E+02 0.  0.
         -6    2    1    2    0  502  0.42142836574E+02 -0.19664385236E+02  0.11502730279E+04  0.11640794516E+04  0.17259844764E+03 0.  0.
        -24    2    5    5    0    0  0.20183745429E+02 -0.76255373515E+02  0.71796170846E+03  0.72750195724E+03  0.86993203195E+02 0.  0.
          5    1    3    3  501    0 -0.44579411843E+02 -0.28277869655E+02  0.16703641828E+01  0.53026804439E+02  0.47000000000E+01 0. -1.
        -13    1    4    4    0    0 -0.73758486698E+01  0.51746609500E+02  0.47313530559E+02  0.70503084417E+02  0.00000000000E+00 0.  1.
         14    1    4    4    0    0  0.98124239392E+01 -0.38043546090E+01  0.12404953901E+03  0.12449516017E+03  0.00000000000E+00 0. -1.
         -5    1    5    5    0  502  0.21959091145E+02  0.56590988279E+02  0.43231131943E+03  0.43657749432E+03  0.47000000000E+01 0.  1.
         13    1    6    6    0    0 -0.12144186986E+02 -0.75928062286E+02  0.36207271029E+03  0.37014753742E+03  0.00000000000E+00 0. -1.
        -14    1    6    6    0    0  0.32327932414E+02 -0.32731122875E+00  0.35588899817E+03  0.35735441982E+03  0.00000000000E+00 0.  1.
</event>
<event>
12    1  0.1628146E-001  0.1918581E+03  0.7818608E-02  0.1156812E+00
         21   -1    0    0  501  502  0.00000000000E+00  0.00000000000E+00  0.27960102712E+03  0.27960102712E+03  0.00000000000E+00 0.  1.
         21   -1    0    0  502  503 -0.00000000000E+00 -0.00000000000E+00 -0.31331215749E+03  0.31331215749E+03  0.00000000000E+00 0.  1.
         -6    2    1    2    0  503 -0.51119297204E+02 -0.70359604725E+02 -0.24262190409E+03  0.30927038918E+03  0.17093603702E+03 0.  0.
        -24    2    3    3    0    0  0.21547107561E+02 -0.13946761139E+01 -0.67248669714E+02  0.10724457623E+03  0.80701874747E+02 0.  0.
          6    2    1    2  501    0  0.51119297204E+02  0.70359604725E+02  0.20891077372E+03  0.28364279543E+03  0.17101423188E+03 0.  0.
         24    2    5    5    0    0 -0.19499497390E+02  0.74267979589E+02  0.83542065130E+02  0.13962303069E+03  0.81359393206E+02 0.  0.
          5    1    5    5  501    0  0.70618794594E+02 -0.39083748640E+01  0.12536870859E+03  0.14401976474E+03  0.47000000000E+01 0. -1.
        -13    1    6    6    0    0  0.25234333158E+02  0.54867934747E+02  0.61226538588E+02  0.85999714307E+02  0.00000000000E+00 0.  1.
         14    1    6    6    0    0 -0.44733830548E+02  0.19400044842E+02  0.22315526541E+02  0.53623316385E+02  0.00000000000E+00 0. -1.
         -5    1    3    3    0  503 -0.72666404765E+02 -0.68964928611E+02 -0.17537323437E+03  0.20202581294E+03  0.47000000000E+01 0.  1.
         11    1    4    4    0    0  0.19397401686E+02  0.62365788923E+01  0.14566160800E+02  0.25046499733E+02  0.00000000000E+00 0. -1.
        -12    1    4    4    0    0  0.21497058751E+01 -0.76312550061E+01 -0.81814830514E+02  0.82198076501E+02  0.00000000000E+00 0.  1.
</event>
<event>
12    1  0.1628146E-001  0.2247455E+03  0.7818608E-02  0.1130637E+00
         21   -1    0    0  503  502  0.00000000000E+00  0.00000000000E+00  0.32313034736E+03  0.32313034736E+03  0.00000000000E+00 0.  1.
         21   -1    0    0  501  503 -0.00000000000E+00 -0.00000000000E+00 -0.16567164996E+03  0.16567164996E+03  0.00000000000E+00 0.  1.
          6    2    1    2  501    0 -0.14121719633E+03  0.35648550043E+02  0.17614711880E+02  0.22410047554E+03  0.16940374672E+03 0.  0.
         24    2    3    3    0    0 -0.14602287261E+03  0.40106431521E+02 -0.31543980821E+02  0.17428447109E+03  0.80304725648E+02 0.  0.
         -6    2    1    2    0  502  0.14121719633E+03 -0.35648550043E+02  0.13984398552E+03  0.26470152178E+03  0.17116494877E+03 0.  0.
        -24    2    5    5    0    0  0.55938159067E+00 -0.28243218691E+02  0.72936990480E+02  0.10869480473E+03  0.75476908287E+02 0.  0.
          5    1    3    3  501    0  0.48056762774E+01 -0.44578814777E+01  0.49158692701E+02  0.49816004455E+02  0.47000000000E+01 0. -1.
        -13    1    4    4    0    0 -0.10228807879E+03 -0.12431979567E+02 -0.18258194883E+02  0.10464591181E+03  0.00000000000E+00 0.  1.
         14    1    4    4    0    0 -0.43734793823E+02  0.52538411088E+02 -0.13285785937E+02  0.69638559278E+02  0.00000000000E+00 0. -1.
         -5    1    5    5    0  502  0.14065781474E+03 -0.74053313517E+01  0.66906995040E+02  0.15600671705E+03  0.47000000000E+01 0.  1.
         11    1    6    6    0    0  0.40116155716E+01  0.17364771937E+02 -0.48383884779E+01  0.18467224128E+02  0.00000000000E+00 0. -1.
        -12    1    6    6    0    0 -0.34522339809E+01 -0.45607990629E+02  0.77775378958E+02  0.90227580599E+02  0.00000000000E+00 0.  1.
</event>
<event>
12    1  0.1628146E-001  0.2738751E+03  0.7818608E-02  0.1099197E+00
         21   -1    0    0  503  502  0.00000000000E+00  0.00000000000E+00  0.17163365279E+03  0.17163365279E+03  0.00000000000E+00 0. -1.
         21   -1    0    0  501  503 -0.00000000000E+00 -0.00000000000E+00 -0.51507937031E+03  0.51507937031E+03  0.00000000000E+00 0.  1.
          6    2    1    2  501    0 -0.13488513897E+03 -0.16581408290E+03 -0.30628373473E+03  0.41032820939E+03  0.16991528023E+03 0.  0.
         24    2    3    3    0    0 -0.99039551568E+02 -0.34476933788E+02 -0.18618358123E+03  0.22872289629E+03  0.81561912873E+02 0.  0.
         -6    2    1    2    0  502  0.13488513897E+03  0.16581408290E+03 -0.37161982785E+02  0.27638481371E+03  0.17122862343E+03 0.  0.
        -24    2    5    5    0    0  0.42426670603E+01  0.68506921336E+02  0.13509648401E+02  0.10572186118E+03  0.79267918084E+02 0.  0.
          5    1    3    3  501    0 -0.35845587402E+02 -0.13133714911E+03 -0.12010015350E+03  0.18160531310E+03  0.47000000000E+01 0. -1.
        -13    1    4    4    0    0 -0.87165395670E+02 -0.55836208893E+02 -0.17118465449E+03  0.20004917985E+03  0.00000000000E+00 0.  1.
         14    1    4    4    0    0 -0.11874155898E+02  0.21359275105E+02 -0.14998926735E+02  0.28673716441E+02  0.00000000000E+00 0. -1.
         -5    1    5    5    0  502  0.13064247191E+03  0.97307161566E+02 -0.50671631187E+02  0.17066295253E+03  0.47000000000E+01 0.  1.
         13    1    6    6    0    0  0.33688868905E+02  0.22711447606E+02  0.28046014311E+02  0.49369308879E+02  0.00000000000E+00 0. -1.
        -14    1    6    6    0    0 -0.29446201845E+02  0.45795473730E+02 -0.14536365910E+02  0.56352552303E+02  0.00000000000E+00 0.  1.
</event>
<event>
12    1  0.1628146E-001  0.2167705E+03  0.7818608E-02  0.1136836E+00
         21   -1    0    0  503  502  0.00000000000E+00  0.00000000000E+00  0.48264659419E+03  0.48264659419E+03  0.00000000000E+00 0. -1.
         21   -1    0    0  501  503 -0.00000000000E+00 -0.00000000000E+00 -0.11256463898E+03  0.11256463898E+03  0.00000000000E+00 0. -1.
          6    2    1    2  501    0  0.82206744731E+01 -0.13002204185E+03  0.70351423092E+02  0.22530876603E+03  0.16982757863E+03 0.  0.
         24    2    3    3    0    0 -0.48786224536E+02 -0.58429885082E+02 -0.82954845917E+00  0.10927409812E+03  0.78396385083E+02 0.  0.
         -6    2    1    2    0  502 -0.82206744731E+01  0.13002204185E+03  0.29973053212E+03  0.36990246715E+03  0.17325164489E+03 0.  0.
        -24    2    5    5    0    0  0.53823990607E+01  0.15740555811E+03  0.28588922320E+03  0.33601187250E+03  0.79786280617E+02 0.  0.
          5    1    3    3  501    0  0.57006899009E+02 -0.71592156766E+02  0.71180971551E+02  0.11603466791E+03  0.47000000000E+01 0. -1.
        -11    1    4    4    0    0  0.14629590647E+02 -0.12470947900E+02  0.20499675775E+02  0.28103134539E+02  0.00000000000E+00 0.  1.
         12    1    4    4    0    0 -0.63415815183E+02 -0.45958937181E+02 -0.21329224234E+02  0.81170963581E+02  0.00000000000E+00 0. -1.
         -5    1    5    5    0  502 -0.13603073534E+02 -0.27383516267E+02  0.13841308923E+02  0.33890594645E+02  0.47000000000E+01 0.  1.
         13    1    6    6    0    0 -0.32684121054E+02  0.11216051785E+03  0.17642106046E+03  0.21159542553E+03  0.00000000000E+00 0. -1.
        -14    1    6    6    0    0  0.38066520114E+02  0.45245040269E+02  0.10946816274E+03  0.12441644697E+03  0.00000000000E+00 0.  1.
</event>
<event>
12    1  0.1628146E-001  0.2023958E+03  0.7818608E-02  0.1147830E+00
         21   -1    0    0  503  502  0.00000000000E+00  0.00000000000E+00  0.89198779162E+03  0.89198779162E+03  0.00000000000E+00 0. -1.
         21   -1    0    0  501  503 -0.00000000000E+00 -0.00000000000E+00 -0.18629631824E+03  0.18629631824E+03  0.00000000000E+00 0. -1.
          6    2    1    2  501    0 -0.65471492027E+02  0.82415510726E+02 -0.11522533755E+03  0.23289687787E+03  0.17287349315E+03 0.  0.
         24    2    3    3    0    0 -0.44274633126E+02  0.10842101092E+03 -0.30865678271E+02  0.14198904003E+03  0.74113687308E+02 0.  0.
         -6    2    1    2    0  502  0.65471492027E+02 -0.82415510726E+02  0.82091681093E+03  0.84538723199E+03  0.17232622800E+03 0.  0.
        -24    2    5    5    0    0  0.15205450324E+02 -0.57052980821E+02  0.21842542570E+03  0.24025262535E+03  0.80780004047E+02 0.  0.
          5    1    3    3  501    0 -0.21196858901E+02 -0.26005500196E+02 -0.84359659277E+02  0.90907837842E+02  0.47000000000E+01 0. -1.
        -13    1    4    4    0    0 -0.26142556223E+02  0.80122929026E+01  0.13776746441E+02  0.30617459495E+02  0.00000000000E+00 0.  1.
         14    1    4    4    0    0 -0.18132076902E+02  0.10040871802E+03 -0.44642424712E+02  0.11137158054E+03  0.00000000000E+00 0. -1.
         -5    1    5    5    0  502  0.50266041702E+02 -0.25362529905E+02  0.60249138523E+03  0.60513460664E+03  0.47000000000E+01 0.  1.
         11    1    6    6    0    0 -0.31332244080E+02 -0.33448976905E+02  0.12653813527E+03  0.13458247751E+03  0.00000000000E+00 0. -1.
        -12    1    6    6    0    0  0.46537694404E+02 -0.23604003916E+02  0.91887290430E+02  0.10567014784E+03  0.00000000000E+00 0.  1.
</event>
<event>
12    1  0.1628146E-001  0.2127426E+03  0.7818608E-02  0.1139520E+00
         21   -1    0    0  501  502  0.00000000000E+00  0.00000000000E+00  0.13406181583E+03  0.13406181583E+03  0.00000000000E+00 0. -1.
         21   -1    0    0  502  503 -0.00000000000E+00 -0.00000000000E+00 -0.63486297803E+03  0.63486297803E+03  0.00000000000E+00 0.  1.
         -6    2    1    2    0  503 -0.10937417170E+03 -0.58151859584E+02 -0.51369159907E+03  0.55579197768E+03  0.17228266103E+03 0.  0.
        -24    2    3    3    0    0 -0.49477628959E+02 -0.89018553085E+02 -0.22325556383E+03  0.25760490692E+03  0.78389429961E+02 0.  0.
          6    2    1    2  501    0  0.10937417170E+03  0.58151859584E+02  0.12890436868E+02  0.21313281618E+03  0.17295978077E+03 0.  0.
         24    2    5    5    0    0 -0.52166045599E+01  0.44382629657E+02 -0.25741480262E+02  0.91333174485E+02  0.75379666867E+02 0.  0.
          5    1    5    5  501    0  0.11459077626E+03  0.13769229927E+02  0.38631917130E+02  0.12179964169E+03  0.47000000000E+01 0. -1.
        -13    1    6    6    0    0 -0.72507415026E+01  0.59415501297E+02  0.18076103345E+01  0.59883574558E+02  0.00000000000E+00 0.  1.
         14    1    6    6    0    0  0.20341369427E+01 -0.15032871641E+02 -0.27549090596E+02  0.31449599927E+02  0.00000000000E+00 0. -1.
         -5    1    3    3    0  503 -0.59896542737E+02  0.30866693501E+02 -0.29043603524E+03  0.29818707076E+03  0.47000000000E+01 0.  1.
         13    1    4    4    0    0  0.50412967090E+01 -0.65015458230E+01  0.44465090942E+01  0.93518026990E+01  0.00000000000E+00 0. -1.
        -14    1    4    4    0    0 -0.54518925668E+02 -0.82517007262E+02 -0.22770207292E+03  0.24825310423E+03  0.00000000000E+00 0.  1.
</event>
<event>
12    1  0.1628146E-001  0.2357501E+03  0.7818608E-02  0.1124324E+00
         21   -1    0    0  501  502  0.00000000000E+00  0.00000000000E+00  0.10006577744E+04  0.10006577744E+04  0.00000000000E+00 0.  1.
         21   -1    0    0  502  503 -0.00000000000E+00 -0.00000000000E+00 -0.57246639364E+02  0.57246639364E+02  0.00000000000E+00 0.  1.
         -6    2    1    2    0  503 -0.14152310962E+03 -0.38627235054E+02  0.34212398911E+03  0.41548394947E+03  0.18454602272E+03 0.  0.
        -24    2    3    3    0    0 -0.12507936838E+03 -0.11992921278E+02  0.12021104799E+03  0.19132501761E+03  0.79786513586E+02 0.  0.
          6    2    1    2  501    0  0.14152310962E+03  0.38627235054E+02  0.60128714597E+03  0.64242046434E+03  0.17215390570E+03 0.  0.
         24    2    5    5    0    0  0.74924682805E+02 -0.34875412314E+01  0.15388402277E+03  0.18810708188E+03  0.77962239261E+02 0.  0.
          5    1    5    5  501    0  0.66598426811E+02  0.42114776286E+02  0.44740312320E+03  0.45431338246E+03  0.47000000000E+01 0. -1.
        -13    1    6    6    0    0  0.62231221421E+02  0.16823120608E+02  0.15074593037E+03  0.16395144961E+03  0.00000000000E+00 0.  1.
         14    1    6    6    0    0  0.12693461384E+02 -0.20310661839E+02  0.31380924028E+01  0.24155632266E+02  0.00000000000E+00 0. -1.
         -5    1    3    3    0  503 -0.16443741235E+02 -0.26634313776E+02  0.22191294112E+03  0.22415893186E+03  0.47000000000E+01 0.  1.
         13    1    4    4    0    0 -0.29175013132E+02  0.10735941739E+01  0.82386621659E+02  0.87406460997E+02  0.00000000000E+00 0. -1.
        -14    1    4    4    0    0 -0.95904355249E+02 -0.13066515452E+02  0.37824426332E+02  0.10391855662E+03  0.00000000000E+00 0.  1.
</event>
<event>
12    1  0.1628146E-001  0.2409827E+03  0.7818608E-02  0.1119349E+00
         21   -1    0    0  501  502  0.00000000000E+00  0.00000000000E+00  0.74476106232E+03  0.74476106232E+03  0.00000000000E+00 0. -1.
         21   -1    0    0  502  503 -0.00000000000E+00 -0.00000000000E+00 -0.81981660927E+02  0.81981660927E+02  0.00000000000E+00 0.  1.
         -6    2    1    2    0  503 -0.14419675307E+03  0.86309848400E+02  0.42812340103E+03  0.49128636076E+03  0.17271522295E+03 0.  0.
        -24    2    3    3    0    0 -0.11768376135E+03  0.34109293549E+02  0.39884340659E+03  0.42565675821E+03  0.84230049506E+02 0.  0.
          6    2    1    2  501    0  0.14419675307E+03 -0.86309848400E+02  0.23465600037E+03  0.33545636249E+03  0.17095449422E+03 0.  0.
         24    2    5    5    0    0  0.76571185894E+02 -0.39795132530E+02  0.38534109082E+02  0.12280001442E+03  0.78410247401E+02 0.  0.
          5    1    5    5  501    0  0.67625567179E+02 -0.46514715870E+02  0.19612189129E+03  0.21265634806E+03  0.47000000000E+01 0. -1.
        -13    1    6    6    0    0  0.73324186550E+02  0.19273311426E+01  0.33541224007E+02  0.80654600900E+02  0.00000000000E+00 0.  1.
         14    1    6    6    0    0  0.32469993442E+01 -0.41722463673E+02  0.49928850753E+01  0.42145413524E+02  0.00000000000E+00 0. -1.
         -5    1    3    3    0  503 -0.26512991728E+02  0.52200554852E+02  0.29279994437E+02  0.65629602554E+02  0.47000000000E+01 0.  1.
         11    1    4    4    0    0 -0.11189118253E+03  0.50202761843E+02  0.28123565897E+03  0.30681174994E+03  0.00000000000E+00 0. -1.
        -12    1    4    4    0    0 -0.57925788185E+01 -0.16093468294E+02  0.11760774762E+03  0.11884500827E+03  0.00000000000E+00 0.  1.
</event>
<event>
12    1  0.1628146E-001  0.1943768E+03  0.7818608E-02  0.1158243E+00
         21   -1    0    0  501  502  0.00000000000E+00  0.00000000000E+00  0.37465683893E+03  0.37465683893E+03  0.00000000000E+00 0. -1.
         21   -1    0    0  502  503 -0.00000000000E+00 -0.00000000000E+00 -0.12259834199E+03  0.12259834199E+03  0.00000000000E+00 0. -1.
         -6    2    1    2    0  503 -0.14942401050E+02 -0.37405252555E+02  0.74410313823E+01  0.19451916680E+03  0.19015759000E+03 0.  0.
        -24    2    3    3    0    0  0.55422044447E+02 -0.59296566740E+02  0.29520798777E+02  0.11744783000E+03  0.79591641357E+02 0.  0.
          6    2    1    2  501    0  0.14942401050E+02  0.37405252555E+02  0.24461746556E+03  0.30273601413E+03  0.17374970944E+03 0.  0.
         24    2    5    5    0    0 -0.56899986068E+02  0.19874847039E+02  0.11066346720E+03  0.14965300599E+03  0.80727946039E+02 0.  0.
          5    1    5    5  501    0  0.71842387118E+02  0.17530405516E+02  0.13395399836E+03  0.15308300814E+03  0.47000000000E+01 0. -1.
        -11    1    6    6    0    0 -0.65976734558E+02 -0.27202919084E+01  0.45778004203E+02  0.80348958672E+02  0.00000000000E+00 0.  1.
         12    1    6    6    0    0  0.90767484894E+01  0.22595138947E+02  0.64885462994E+02  0.69304047321E+02  0.00000000000E+00 0. -1.
         -5    1    3    3    0  503 -0.70364445497E+02  0.21891314186E+02 -0.22079767395E+02  0.77071336793E+02  0.47000000000E+01 0.  1.
         11    1    4    4    0    0 -0.78652577251E+01 -0.15778779206E+02 -0.19533919085E+02  0.26313611442E+02  0.00000000000E+00 0. -1.
        -12    1    4    4    0    0  0.63287302172E+02 -0.43517787534E+02  0.49054717862E+02  0.91134218560E+02  0.00000000000E+00 0.  1.
</event>
<event>
12    1  0.1628146E-001  0.1758207E+03  0.7818608E-02  0.1172146E+00
         21   -1    0    0  501  502  0.00000000000E+00  0.00000000000E+00  0.55163779855E+02  0.55163779855E+02  0.00000000000E+00 0. -1.
         21   -1    0    0  502  503 -0.00000000000E+00 -0.00000000000E+00 -0.66304702895E+03  0.66304702895E+03  0.00000000000E+00 0. -1.
         -6    2    1    2    0  503  0.14091917984E+02  0.30478730796E+02 -0.44661127351E+03  0.47962842701E+03  0.17162244370E+03 0.  0.
        -24    2    3    3    0    0  0.40495291725E+02  0.10463337509E+02 -0.11559108720E+03  0.14692103626E+03  0.80468263130E+02 0.  0.
          6    2    1    2  501    0 -0.14091917984E+02 -0.30478730796E+02 -0.16127197558E+03  0.23858238179E+03  0.17258437824E+03 0.  0.
         24    2    5    5    0    0 -0.13909789438E+02  0.49467915795E+02 -0.99932660763E+02  0.13770571941E+03  0.79597559854E+02 0.  0.
          5    1    5    5  501    0 -0.18212854617E+00 -0.79946646592E+02 -0.61339314813E+02  0.10087666238E+03  0.47000000000E+01 0. -1.
        -11    1    6    6    0    0  0.28983399392E+02  0.30991374517E+02 -0.24534507726E+02  0.49014740683E+02  0.00000000000E+00 0.  1.
         12    1    6    6    0    0 -0.42893188830E+02  0.18476541278E+02 -0.75398153036E+02  0.88690978724E+02  0.00000000000E+00 0. -1.
         -5    1    3    3    0  503 -0.26403373740E+02  0.20015393287E+02 -0.33102018632E+03  0.33270739075E+03  0.47000000000E+01 0.  1.
         11    1    4    4    0    0 -0.51752468610E+01  0.37336204677E+02 -0.48860997474E+02  0.61710391620E+02  0.00000000000E+00 0. -1.
        -12    1    4    4    0    0  0.45670538586E+02 -0.26872867169E+02 -0.66730089724E+02  0.85210644635E+02  0.00000000000E+00 0.  1.
</event>
<event>
12    1  0.1628146E-001  0.3468222E+03  0.7818608E-02  0.1064075E+00
         21   -1    0    0  503  502  0.00000000000E+00  0.00000000000E+00  0.12471758427E+03  0.12471758427E+03  0.00000000000E+00 0.  1.
         21   -1    0    0  501  503 -0.00000000000E+00 -0.00000000000E+00 -0.98645485692E+03  0.98645485692E+03  0.00000000000E+00 0.  1.
          6    2    1    2  501    0  0.24718538104E+03  0.16816305933E+03 -0.52182431451E+03  0.62656701442E+03  0.17580153929E+03 0.  0.
         24    2    3    3    0    0  0.17295762557E+03  0.34091937351E+02 -0.31036818479E+03  0.36537625994E+03  0.78069204932E+02 0.  0.
         -6    2    1    2    0  502 -0.24718538104E+03 -0.16816305933E+03 -0.33991295814E+03  0.48460542677E+03  0.17298026887E+03 0.  0.
        -24    2    5    5    0    0 -0.44957508600E+02 -0.89011697172E+02 -0.13185076049E+03  0.18381809556E+03  0.80375427841E+02 0.  0.
          5    1    3    3  501    0  0.74227755471E+02  0.13407112198E+03 -0.21145612972E+03  0.26119075448E+03  0.47000000000E+01 0. -1.
        -11    1    4    4    0    0  0.12236498656E+03  0.40835932133E+02 -0.27355526512E+03  0.30244544362E+03  0.00000000000E+00 0.  1.
         12    1    4    4    0    0  0.50592639016E+02 -0.67439947819E+01 -0.36812919669E+02  0.62930816320E+02  0.00000000000E+00 0. -1.
         -5    1    5    5    0  502 -0.20222787244E+03 -0.79151362157E+02 -0.20806219764E+03  0.30078733120E+03  0.47000000000E+01 0.  1.
         13    1    6    6    0    0 -0.23048840260E+02  0.89410692799E+01 -0.43811115872E+02  0.50305125297E+02  0.00000000000E+00 0. -1.
        -14    1    6    6    0    0 -0.21908668340E+02 -0.97952766452E+02 -0.88039644620E+02  0.13351297026E+03  0.00000000000E+00 0.  1.
</event>
<event>
12    1  0.1628146E-001  0.2811607E+03  0.7818608E-02  0.1095402E+00
         21   -1    0    0  503  502  0.00000000000E+00  0.00000000000E+00  0.80071421336E+02  0.80071421336E+02  0.00000000000E+00 0. -1.
         21   -1    0    0  501  503 -0.00000000000E+00 -0.00000000000E+00 -0.10779214600E+04  0.10779214600E+04  0.00000000000E+00 0.  1.
          6    2    1    2  501    0  0.33318933688E+02  0.21828787009E+03 -0.32094603568E+03  0.42501922597E+03  0.16992715808E+03 0.  0.
         24    2    3    3    0    0  0.63955938480E+02  0.17200192423E+03 -0.30959621476E+03  0.36816921910E+03  0.77612716038E+02 0.  0.
         -6    2    1    2    0  502 -0.33318933688E+02 -0.21828787009E+03 -0.67690400300E+03  0.73297365539E+03  0.17404483516E+03 0.  0.
        -24    2    5    5    0    0  0.29293549863E+02 -0.13907578989E+03 -0.53184087936E+03  0.55616789591E+03  0.79169565374E+02 0.  0.
          5    1    3    3  501    0 -0.30637004791E+02  0.46285945854E+02 -0.11349820923E+02  0.56850006871E+02  0.47000000000E+01 0. -1.
        -13    1    4    4    0    0  0.52165465878E+02  0.76620609088E+02 -0.21109679611E+03  0.23055110257E+03  0.00000000000E+00 0.  1.
         14    1    4    4    0    0  0.11790472602E+02  0.95381315144E+02 -0.98499418649E+02  0.13761811653E+03  0.00000000000E+00 0. -1.
         -5    1    5    5    0  502 -0.62612483551E+02 -0.79212080193E+02 -0.14506312364E+03  0.17680575948E+03  0.47000000000E+01 0.  1.
         13    1    6    6    0    0  0.18885249950E+02 -0.23449953506E+02 -0.24317373891E+03  0.24503065171E+03  0.00000000000E+00 0. -1.
        -14    1    6    6    0    0  0.10408299913E+02 -0.11562583639E+03 -0.28866714045E+03  0.31113724420E+03  0.00000000000E+00 0.  1.
</event>
<event>
12    1  0.1628146E-001  0.1733793E+03  0.7818608E-02  0.1174429E+00
         21   -1    0    0  503  502  0.00000000000E+00  0.00000000000E+00  0.15760487533E+03  0.15760487533E+03  0.00000000000E+00 0. -1.
         21   -1    0    0  501  503 -0.00000000000E+00 -0.00000000000E+00 -0.25348832993E+03  0.25348832993E+03  0.00000000000E+00 0. -1.
          6    2    1    2  501    0 -0.18509948807E+02 -0.13619738554E+02 -0.15045030820E+03  0.22955535872E+03  0.17184950391E+03 0.  0.
         24    2    3    3    0    0 -0.76088905274E+02  0.93135820387E+01 -0.91817285939E+02  0.14410832998E+03  0.80377437475E+02 0.  0.
         -6    2    1    2    0  502  0.18509948807E+02  0.13619738554E+02  0.54566853607E+02  0.18153784654E+03  0.17161099245E+03 0.  0.
        -24    2    5    5    0    0  0.39610642675E+02 -0.49439652060E+02  0.49489292495E+02  0.11468279697E+03  0.81790412886E+02 0.  0.
          5    1    3    3  501    0  0.57578956467E+02 -0.22933320592E+02 -0.58633022264E+02  0.85447028743E+02  0.47000000000E+01 0. -1.
        -11    1    4    4    0    0  0.10885292637E+02 -0.27035216922E+01  0.59553485152E+01  0.12699007885E+02  0.00000000000E+00 0.  1.
         12    1    4    4    0    0 -0.86974197911E+02  0.12017103731E+02 -0.97772634455E+02  0.13140932209E+03  0.00000000000E+00 0. -1.
         -5    1    5    5    0  502 -0.21100693867E+02  0.63059390613E+02  0.50775611122E+01  0.66855049570E+02  0.47000000000E+01 0.  1.
         11    1    6    6    0    0  0.37745034199E+02 -0.28418617580E+02  0.70523105014E+02  0.84887064814E+02  0.00000000000E+00 0. -1.
        -12    1    6    6    0    0  0.18656084759E+01 -0.21021034479E+02 -0.21033812519E+02  0.29795732155E+02  0.00000000000E+00 0.  1.
</event>
<event>
12    1  0.1628146E-001  0.2081447E+03  0.7818608E-02  0.1143570E+00
         21   -1    0    0  503  502  0.00000000000E+00  0.00000000000E+00  0.54868997744E+02  0.54868997744E+02  0.00000000000E+00 0. -1.
         21   -1    0    0  501  503 -0.00000000000E+00 -0.00000000000E+00 -0.83267555079E+03  0.83267555079E+03  0.00000000000E+00 0. -1.
          6    2    1    2  501    0  0.81494262007E+02  0.84502177494E+02 -0.50310951662E+03  0.54446614763E+03  0.17187864165E+03 0.  0.
         24    2    3    3    0    0 -0.24476804549E+02  0.39685513117E+02 -0.19207753379E+03  0.21280158109E+03  0.78845925798E+02 0.  0.
         -6    2    1    2    0  502 -0.81494262007E+02 -0.84502177494E+02 -0.27469703643E+03  0.34307840091E+03  0.16870801584E+03 0.  0.
        -24    2    5    5    0    0 -0.94703162365E+02 -0.60552625901E+01 -0.14668007587E+03  0.19228441663E+03  0.80329926256E+02 0.  0.
          5    1    3    3  501    0  0.10597106656E+03  0.44816664377E+02 -0.31103198283E+03  0.33166456654E+03  0.47000000000E+01 0. -1.
        -13    1    4    4    0    0 -0.25080476753E+02  0.57713155921E+02 -0.18101671722E+03  0.19164261163E+03  0.00000000000E+00 0.  1.
         14    1    4    4    0    0  0.60367220421E+00 -0.18027642804E+02 -0.11060816567E+02  0.21158969453E+02  0.00000000000E+00 0. -1.
         -5    1    5    5    0  502  0.13208900358E+02 -0.78446914904E+02 -0.12801696055E+03  0.15079398428E+03  0.47000000000E+01 0.  1.
         13    1    6    6    0    0 -0.61633738357E+02 -0.29181926727E+02 -0.41984873494E+02  0.80081409538E+02  0.00000000000E+00 0. -1.
        -14    1    6    6    0    0 -0.33069424008E+02  0.23126664137E+02 -0.10469520238E+03  0.11220300709E+03  0.00000000000E+00 0.  1.
</event>
<event>
12    1  0.1628146E-001  0.2843167E+03  0.7818608E-02  0.1093418E+00
         21   -1    0    0  501  502  0.00000000000E+00  0.00000000000E+00  0.74733316729E+03  0.74733316729E+03  0.00000000000E+00 0.  1.
         21   -1    0    0  502  503 -0.00000000000E+00 -0.00000000000E+00 -0.10953914597E+03  0.10953914597E+03  0.00000000000E+00 0.  1.
         -6    2    1    2    0  503  0.17584743223E+03 -0.14124404730E+03  0.37018243069E+03  0.46676654169E+03  0.17310046831E+03 0.  0.
        -24    2    3    3    0    0  0.74966683750E+02 -0.14516853077E+03  0.25739988753E+03  0.31532573139E+03  0.80509060202E+02 0.  0.
          6    2    1    2  501    0 -0.17584743223E+03  0.14124404730E+03  0.26761159063E+03  0.39010577157E+03  0.17232048415E+03 0.  0.
         24    2    5    5    0    0 -0.50831968081E+02  0.25104636851E+02  0.16269250231E+03  0.18973777505E+03  0.79482332645E+02 0.  0.
          5    1    5    5  501    0 -0.12501546415E+03  0.11613941045E+03  0.10491908831E+03  0.20036799652E+03  0.47000000000E+01 0. -1.
        -11    1    6    6    0    0 -0.66354571933E+01  0.42907871014E+02  0.43891822444E+02  0.61738211544E+02  0.00000000000E+00 0.  1.
         12    1    6    6    0    0 -0.44196510888E+02 -0.17803234163E+02  0.11880067987E+03  0.12799956351E+03  0.00000000000E+00 0. -1.
         -5    1    3    3    0  503  0.10088074848E+03  0.39244834686E+01  0.11278254316E+03  0.15144081030E+03  0.47000000000E+01 0.  1.
         11    1    4    4    0    0  0.42800142590E+02 -0.11893592373E+02  0.52263898462E+02  0.68591725650E+02  0.00000000000E+00 0. -1.
        -12    1    4    4    0    0  0.32166541161E+02 -0.13327493840E+03  0.20513598907E+03  0.24673400574E+03  0.00000000000E+00 0.  1.
</event>
<event>
12    1  0.1628146E-001  0.1970309E+03  0.7818608E-02  0.1152541E+00
         21   -1    0    0  501  502  0.00000000000E+00  0.00000000000E+00  0.15281484789E+03  0.15281484789E+03  0.00000000000E+00 0. -1.
         21   -1    0    0  502  503 -0.00000000000E+00 -0.00000000000E+00 -0.30404741761E+03  0.30404741761E+03  0.00000000000E+00 0. -1.
         -6    2    1    2    0  503 -0.97563673633E+02  0.18203044930E+02 -0.16994846318E+03  0.26019924628E+03  0.17020912541E+03 0.  0.
        -24    2    3    3    0    0 -0.16927198329E+01  0.18703377000E+01 -0.13562728496E+03  0.15696150908E+03  0.78967027578E+02 0.  0.
          6    2    1    2  501    0  0.97563673633E+02 -0.18203044930E+02  0.18715893453E+02  0.19666301922E+03  0.16874844356E+03 0.  0.
         24    2    5    5    0    0  0.42573049591E+02 -0.21608474600E+02  0.73248012349E+02  0.11900088124E+03  0.80725136715E+02 0.  0.
          5    1    5    5  501    0  0.54990624042E+02  0.34054296693E+01 -0.54532118896E+02  0.77662137976E+02  0.47000000000E+01 0. -1.
        -13    1    6    6    0    0 -0.40645795368E+01  0.13325377441E+02 -0.10168300213E+02  0.17247632300E+02  0.00000000000E+00 0.  1.
         14    1    6    6    0    0  0.46637629128E+02 -0.34933852041E+02  0.83416312562E+02  0.10175324894E+03  0.00000000000E+00 0. -1.
         -5    1    3    3    0  503 -0.95870953800E+02  0.16332707230E+02 -0.34321178219E+02  0.10323773720E+03  0.47000000000E+01 0.  1.
         11    1    4    4    0    0 -0.21311415695E+02  0.34604405993E+02 -0.75567166442E+02  0.85802319299E+02  0.00000000000E+00 0. -1.
        -12    1    4    4    0    0  0.19618695862E+02 -0.32734068293E+02 -0.60060118516E+02  0.71159189782E+02  0.00000000000E+00 0.  1.
</event>
<event>
12    1  0.1628146E-001  0.1941630E+03  0.7818608E-02  0.1154962E+00
         21   -1    0    0  503  502  0.00000000000E+00  0.00000000000E+00  0.21773960749E+02  0.21773960749E+02  0.00000000000E+00 0. -1.
         21   -1    0    0  501  503 -0.00000000000E+00 -0.00000000000E+00 -0.21269921857E+04  0.21269921857E+04  0.00000000000E+00 0. -1.
          6    2    1    2  501    0 -0.65941051902E+02  0.57501153187E+02 -0.15227820980E+04  0.15351106166E+04  0.17333402002E+03 0.  0.
         24    2    3    3    0    0 -0.51013361913E+02 -0.32701607513E+02 -0.65304223939E+03  0.66056565750E+03  0.78810298892E+02 0.  0.
         -6    2    1    2    0  502  0.65941051902E+02 -0.57501153187E+02 -0.58243612702E+03  0.61365552984E+03  0.17229817847E+03 0.  0.
        -24    2    5    5    0    0  0.64806075047E+02  0.27758358531E+02 -0.34896885050E+03  0.36506041381E+03  0.80743379163E+02 0.  0.
          5    1    3    3  501    0 -0.14927689989E+02  0.90202760699E+02 -0.86973985858E+03  0.87454495915E+03  0.47000000000E+01 0. -1.
        -11    1    4    4    0    0  0.13208182858E+01 -0.24759390101E+02 -0.56769093112E+02  0.61947573736E+02  0.00000000000E+00 0.  1.
         12    1    4    4    0    0 -0.52334180199E+02 -0.79422174120E+01 -0.59627314628E+03  0.59861808376E+03  0.00000000000E+00 0. -1.
         -5    1    5    5    0  502  0.11349768550E+01 -0.85259511718E+02 -0.23346727652E+03  0.24859511604E+03  0.47000000000E+01 0.  1.
         13    1    6    6    0    0 -0.17879546448E+02  0.84123773270E+01 -0.39709895669E+02  0.44354504704E+02  0.00000000000E+00 0. -1.
        -14    1    6    6    0    0  0.82685621495E+02  0.19345981204E+02 -0.30925895483E+03  0.32070590911E+03  0.00000000000E+00 0.  1.
</event>
<event>
12    1  0.1628146E-001  0.1781827E+03  0.7818608E-02  0.1170180E+00
         21   -1    0    0  501  502  0.00000000000E+00  0.00000000000E+00  0.81089741967E+03  0.81089741967E+03  0.00000000000E+00 0. -1.
         21   -1    0    0  502  503 -0.00000000000E+00 -0.00000000000E+00 -0.40071177209E+02  0.40071177209E+02  0.00000000000E+00 0. -1.
         -6    2    1    2    0  503  0.11132694616E+02  0.33127025275E+02  0.30689771428E+03  0.35487362271E+03  0.17472190581E+03 0.  0.
        -24    2    3    3    0    0 -0.69618741282E+01  0.14135554587E+02  0.31629339008E+03  0.32661662179E+03  0.79928889814E+02 0.  0.
          6    2    1    2  501    0 -0.11132694616E+02 -0.33127025275E+02  0.46392852818E+03  0.49609497417E+03  0.17221848753E+03 0.  0.
         24    2    5    5    0    0  0.21076030965E+02 -0.29567151339E+02  0.45310388418E+03  0.46160819955E+03  0.80377761297E+02 0.  0.
          5    1    5    5  501    0 -0.32208725581E+02 -0.35598739356E+01  0.10824643992E+02  0.34486774618E+02  0.47000000000E+01 0. -1.
        -13    1    6    6    0    0 -0.12782809978E+02  0.11112657946E+02  0.28193467196E+03  0.28244300425E+03  0.00000000000E+00 0.  1.
         14    1    6    6    0    0  0.33858840944E+02 -0.40679809285E+02  0.17116921223E+03  0.17916519531E+03  0.00000000000E+00 0. -1.
         -5    1    3    3    0  503  0.18094568744E+02  0.18991470688E+02 -0.93956758002E+01  0.28257000914E+02  0.47000000000E+01 0.  1.
         11    1    4    4    0    0 -0.30835773269E+02  0.26740646513E+02  0.91283520829E+02  0.99992941071E+02  0.00000000000E+00 0. -1.
        -12    1    4    4    0    0  0.23873899141E+02 -0.12605091927E+02  0.22500986926E+03  0.22662368072E+03  0.00000000000E+00 0.  1.
</event>
<event>
12    1  0.1628146E-001  0.2870302E+03  0.7818608E-02  0.1092143E+00
         21   -1    0    0  503  502  0.00000000000E+00  0.00000000000E+00  0.26384112020E+03  0.26384112020E+03  0.00000000000E+00 0.  1.
         21   -1    0    0  501  503 -0.00000000000E+00 -0.00000000000E+00 -0.90191786723E+03  0.90191786723E+03  0.00000000000E+00 0.  1.
          6    2    1    2  501    0  0.20562917630E+03 -0.97324272781E+02 -0.79143646709E+03  0.84187768081E+03  0.17501707285E+03 0.  0.
         24    2    3    3    0    0  0.72230933242E+02 -0.78223198934E+02 -0.24331363950E+03  0.27741274266E+03  0.80125689119E+02 0.  0.
         -6    2    1    2    0  502 -0.20562917630E+03  0.97324272781E+02  0.15335972006E+03  0.32388130662E+03  0.17211776441E+03 0.  0.
        -24    2    5    5    0    0 -0.28048554713E+02  0.35558557167E+02  0.43927645354E+02  0.10628684492E+03  0.85534337947E+02 0.  0.
          5    1    3    3  501    0  0.13339824305E+03 -0.19101073846E+02 -0.54812282759E+03  0.56446493814E+03  0.47000000000E+01 0. -1.
        -11    1    4    4    0    0  0.41927911756E+02 -0.63967649030E+02 -0.22819125446E+03  0.24066794244E+03  0.00000000000E+00 0.  1.
         12    1    4    4    0    0  0.30303021486E+02 -0.14255549904E+02 -0.15122385044E+02  0.36744800226E+02  0.00000000000E+00 0. -1.
         -5    1    5    5    0  502 -0.17758062158E+03  0.61765715613E+02  0.10943207470E+03  0.21759446170E+03  0.47000000000E+01 0.  1.
         11    1    6    6    0    0  0.20620045491E+02 -0.15805254025E+02  0.13238421224E+02  0.29159014513E+02  0.00000000000E+00 0. -1.
        -12    1    6    6    0    0 -0.48668600205E+02  0.51363811192E+02  0.30689224130E+02  0.77127830410E+02  0.00000000000E+00 0.  1.
</event>
<event>
12    1  0.1628146E-001  0.2093954E+03  0.7818608E-02  0.1142537E+00
         21   -1    0    0  501  502  0.00000000000E+00  0.00000000000E+00  0.11329193016E+03  0.11329193016E+03  0.00000000000E+00 0. -1.
         21   -1    0    0  502  503 -0.00000000000E+00 -0.00000000000E+00 -0.99299166701E+03  0.99299166701E+03  0.00000000000E+00 0. -1.
         -6    2    1    2    0  503  0.20551333830E+02  0.11424808717E+03 -0.87256363131E+03  0.89676665240E+03  0.17131303343E+03 0.  0.
        -24    2    3    3    0    0  0.57060883273E+02  0.13057245180E+03 -0.62192618189E+03  0.64291501633E+03  0.79009068719E+02 0.  0.
          6    2    1    2  501    0 -0.20551333830E+02 -0.11424808717E+03 -0.71361055476E+01  0.20951694477E+03  0.17427404683E+03 0.  0.
         24    2    5    5    0    0  0.38894880492E+02 -0.79967861035E+01 -0.17606826195E+00  0.87477100886E+02  0.77945184988E+02 0.  0.
          5    1    5    5  501    0 -0.59446214322E+02 -0.10625130107E+03 -0.69600372856E+01  0.12203984389E+03  0.47000000000E+01 0. -1.
        -11    1    6    6    0    0 -0.63518276605E+01  0.49478661319E+01  0.30338140572E+02  0.31388371529E+02  0.00000000000E+00 0.  1.
         12    1    6    6    0    0  0.45246708152E+02 -0.12944652235E+02 -0.30514208834E+02  0.56088729357E+02  0.00000000000E+00 0. -1.
         -5    1    3    3    0  503 -0.36509549443E+02 -0.16324364621E+02 -0.25063744942E+03  0.25385163606E+03  0.47000000000E+01 0.  1.
         11    1    4    4    0    0  0.56892633046E+02  0.13071138754E+03 -0.47362959121E+03  0.49461826513E+03  0.00000000000E+00 0. -1.
        -12    1    4    4    0    0  0.16825022676E+00 -0.13893574474E+00 -0.14829659068E+03  0.14829675120E+03  0.00000000000E+00 0.  1.
</event>
<event>
12    1  0.1628146E-001  0.2161825E+03  0.7818608E-02  0.1136792E+00
         21   -1    0    0  501  502  0.00000000000E+00  0.00000000000E+00  0.65191764671E+03  0.65191764671E+03  0.00000000000E+00 0. -1.
         21   -1    0    0  502  503 -0.00000000000E+00 -0.00000000000E+00 -0.94733828261E+02  0.94733828261E+02  0.00000000000E+00 0.  1.
         -6    2    1    2    0  503  0.10129597627E+03 -0.82773752461E+02  0.94325322001E+02  0.23586462305E+03  0.17211183903E+03 0.  0.
        -24    2    3    3    0    0 -0.15867697576E+02 -0.20712262193E+02  0.45474854318E+02  0.94487774754E+02  0.78607859475E+02 0.  0.
          6    2    1    2  501    0 -0.10129597627E+03  0.82773752461E+02  0.46285849645E+03  0.51078685192E+03  0.17190942805E+03 0.  0.
         24    2    5    5    0    0 -0.68005094717E+02  0.67469933605E+02  0.45683987462E+03  0.47335954271E+03  0.78674651439E+02 0.  0.
          5    1    5    5  501    0 -0.33290881550E+02  0.15303818856E+02  0.60186218267E+01  0.37427309209E+02  0.47000000000E+01 0. -1.
        -13    1    6    6    0    0 -0.71798771922E+00 -0.16405532144E+02  0.62694777010E+02  0.64809660203E+02  0.00000000000E+00 0.  1.
         14    1    6    6    0    0 -0.67287106998E+02  0.83875465748E+02  0.39414509761E+03  0.40854988251E+03  0.00000000000E+00 0. -1.
         -5    1    3    3    0  503  0.11716367384E+03 -0.62061490268E+02  0.48850467683E+02  0.14137684830E+03  0.47000000000E+01 0.  1.
         11    1    4    4    0    0 -0.34350336056E+02 -0.47422923235E+01  0.57588564853E+02  0.67222598324E+02  0.00000000000E+00 0. -1.
        -12    1    4    4    0    0  0.18482638480E+02 -0.15969969870E+02 -0.12113710535E+02  0.27265176430E+02  0.00000000000E+00 0.  1.
</event>
<event>
12    1  0.1628146E-001  0.1813472E+03  0.7818608E-02  0.1166708E+00
         21   -1    0    0  503  502  0.00000000000E+00  0.00000000000E+00  0.44611620816E+03  0.44611620816E+03  0.00000000000E+00 0.  1.
         21   -1    0    0  501  503 -0.00000000000E+00 -0.00000000000E+00 -0.19036827963E+03  0.19036827963E+03  0.00000000000E+00 0.  1.
          6    2    1    2  501    0 -0.31891756865E+01  0.57089099177E+02 -0.12172241265E+03  0.21771167962E+03  0.17120950212E+03 0.  0.
         24    2    3    3    0    0 -0.53176185268E+02  0.18520045276E+02 -0.24398801396E+02  0.10160720790E+03  0.80981630210E+02 0.  0.
         -6    2    1    2    0  502  0.31891756865E+01 -0.57089099177E+02  0.37747034119E+03  0.41877280817E+03  0.17209726988E+03 0.  0.
        -24    2    5    5    0    0  0.29244823182E+02 -0.98481439074E+02  0.24094517925E+03  0.27367479849E+03  0.79306130940E+02 0.  0.
          5    1    3    3  501    0  0.49987009581E+02  0.38569053901E+02 -0.97323611256E+02  0.11610447172E+03  0.47000000000E+01 0. -1.
        -13    1    4    4    0    0 -0.60348784392E+02  0.23660081108E+02  0.10450466370E+02  0.65658110412E+02  0.00000000000E+00 0.  1.
         14    1    4    4    0    0  0.71725991239E+01 -0.51400358322E+01 -0.34849267766E+02  0.35949097490E+02  0.00000000000E+00 0. -1.
         -5    1    5    5    0  502 -0.26055647496E+02  0.41392339898E+02  0.13652516194E+03  0.14509800967E+03  0.47000000000E+01 0.  1.
         13    1    6    6    0    0  0.40654172228E+02 -0.35320603140E+02  0.55051394839E+02  0.77012744396E+02  0.00000000000E+00 0. -1.
        -14    1    6    6    0    0 -0.11409349046E+02 -0.63160835935E+02  0.18589378441E+03  0.19666205410E+03  0.00000000000E+00 0.  1.
</event>
<event>
12    1  0.1628146E-001  0.3151925E+03  0.7818608E-02  0.1077930E+00
         21   -1    0    0  501  502  0.00000000000E+00  0.00000000000E+00  0.56822052702E+03  0.56822052702E+03  0.00000000000E+00 0. -1.
         21   -1    0    0  502  503 -0.00000000000E+00 -0.00000000000E+00 -0.18444704909E+03  0.18444704909E+03  0.00000000000E+00 0.  1.
         -6    2    1    2    0  503  0.26407866188E+03  0.91640115138E+01  0.27887816029E+03  0.42085548552E+03  0.17182779937E+03 0.  0.
        -24    2    3    3    0    0  0.21346814337E+03 -0.44463063476E+02  0.25984491889E+03  0.34455579985E+03  0.60445885591E+02 0.  0.
          6    2    1    2  501    0 -0.26407866188E+03 -0.91640115138E+01  0.10489531763E+03  0.33181209060E+03  0.17109855943E+03 0.  0.
         24    2    5    5    0    0 -0.88182924895E+02  0.67618974766E+01  0.99278036727E+02  0.15504504415E+03  0.79755160573E+02 0.  0.
          5    1    5    5  501    0 -0.17589573698E+03 -0.15925908990E+02  0.56172809069E+01  0.17676704645E+03  0.47000000000E+01 0. -1.
        -11    1    6    6    0    0 -0.16467427173E+02 -0.24678429191E+01 -0.13255839072E+02  0.21283413163E+02  0.00000000000E+00 0.  1.
         12    1    6    6    0    0 -0.71715497722E+02  0.92297403957E+01  0.11253387580E+03  0.13376163098E+03  0.00000000000E+00 0. -1.
         -5    1    3    3    0  503  0.50610518505E+02  0.53627074989E+02  0.19033241397E+02  0.76299685670E+02  0.47000000000E+01 0.  1.
         11    1    4    4    0    0  0.10505113698E+03 -0.41050126902E+02  0.96281814701E+02  0.14829376973E+03  0.00000000000E+00 0. -1.
        -12    1    4    4    0    0  0.10841700639E+03 -0.34129365733E+01  0.16356310419E+03  0.19626203011E+03  0.00000000000E+00 0.  1.
</event>
<event>
12    1  0.1628146E-001  0.1852237E+03  0.7818608E-02  0.1163714E+00
         21   -1    0    0  503  502  0.00000000000E+00  0.00000000000E+00  0.20360381156E+03  0.20360381156E+03  0.00000000000E+00 0. -1.
         21   -1    0    0  501  503 -0.00000000000E+00 -0.00000000000E+00 -0.23016664904E+03  0.23016664904E+03  0.00000000000E+00 0.  1.
          6    2    1    2  501    0 -0.33698776237E+02  0.59091069109E+02 -0.12845143910E+03  0.22237246129E+03  0.16829253508E+03 0.  0.
         24    2    3    3    0    0 -0.84306512281E+02  0.22727777642E+02 -0.93924631720E+02  0.15097482588E+03  0.79670708018E+02 0.  0.
         -6    2    1    2    0  502  0.33698776237E+02 -0.59091069109E+02  0.10188860161E+03  0.21139799931E+03  0.17228019331E+03 0.  0.
        -24    2    5    5    0    0 -0.17575709904E+02 -0.93543736286E+02  0.70252277997E+02  0.14183503376E+03  0.78246137672E+02 0.  0.
          5    1    3    3  501    0  0.50607736044E+02  0.36363291467E+02 -0.34526807377E+02  0.71397635405E+02  0.47000000000E+01 0. -1.
        -13    1    4    4    0    0 -0.24674330141E+02 -0.81351161793E+01 -0.77655634340E+02  0.81886508216E+02  0.00000000000E+00 0.  1.
         14    1    4    4    0    0 -0.59632182140E+02  0.30862893821E+02 -0.16268997381E+02  0.69088317663E+02  0.00000000000E+00 0. -1.
         -5    1    5    5    0  502  0.51274486141E+02  0.34452667177E+02  0.31636323616E+02  0.69562965553E+02  0.47000000000E+01 0.  1.
         11    1    6    6    0    0 -0.48113723230E+02 -0.65569005592E+02  0.40593453370E+02  0.90895837715E+02  0.00000000000E+00 0. -1.
        -12    1    6    6    0    0  0.30538013326E+02 -0.27974730694E+02  0.29658824627E+02  0.50939196044E+02  0.00000000000E+00 0.  1.
</event>
<event>
12    1  0.1628146E-001  0.1945884E+03  0.7818608E-02  0.1154889E+00
         21   -1    0    0  501  502  0.00000000000E+00  0.00000000000E+00  0.21491203161E+02  0.21491203161E+02  0.00000000000E+00 0. -1.
         21   -1    0    0  502  503 -0.00000000000E+00 -0.00000000000E+00 -0.21826767875E+04  0.21826767875E+04  0.00000000000E+00 0. -1.
         -6    2    1    2    0  503 -0.62007498899E+01  0.89483689292E+02 -0.15812930181E+04  0.15932207225E+04  0.17268144442E+03 0.  0.
        -24    2    3    3    0    0  0.11668524934E+02  0.10764887033E+03 -0.74223398947E+03  0.75376171309E+03  0.74303373020E+02 0.  0.
          6    2    1    2  501    0  0.62007498899E+01 -0.89483689292E+02 -0.57989256623E+03  0.61094726825E+03  0.17010407481E+03 0.  0.
         24    2    5    5    0    0  0.12224860267E+02 -0.16663570393E+02 -0.11914517248E+03  0.14441826544E+03  0.78955313178E+02 0.  0.
          5    1    5    5  501    0 -0.60241103771E+01 -0.72820118900E+02 -0.46074739375E+03  0.46652900282E+03  0.47000000000E+01 0. -1.
        -13    1    6    6    0    0  0.37601076764E+01  0.88121737482E+01 -0.11710431172E+03  0.11749558562E+03  0.00000000000E+00 0.  1.
         14    1    6    6    0    0  0.84647525907E+01 -0.25475744141E+02 -0.20408607606E+01  0.26922679818E+02  0.00000000000E+00 0. -1.
         -5    1    3    3    0  503 -0.17869274824E+02 -0.18165181033E+02 -0.83905902868E+03  0.83945900936E+03  0.47000000000E+01 0.  1.
         11    1    4    4    0    0 -0.63847836719E+01  0.10521880758E+03 -0.69813810251E+03  0.70605139551E+03  0.00000000000E+00 0. -1.
        -12    1    4    4    0    0  0.18053308606E+02  0.24300627423E+01 -0.44095886963E+02  0.47710317580E+02  0.00000000000E+00 0.  1.
</event>
<event>
12    1  0.1628146E-001  0.1783189E+03  0.7818608E-02  0.1169788E+00
         21   -1    0    0  503  502  0.00000000000E+00  0.00000000000E+00  0.22318115828E+02  0.22318115828E+02  0.00000000000E+00 0. -1.
         21   -1    0    0  501  503 -0.00000000000E+00 -0.00000000000E+00 -0.14214980682E+04  0.14214980682E+04  0.00000000000E+00 0. -1.
          6    2    1    2  501    0 -0.43401577319E+02  0.13250358413E+02 -0.64251565461E+03  0.66642408002E+03  0.17098368082E+03 0.  0.
         24    2    3    3    0    0 -0.20594417494E+02  0.55524440276E+02 -0.22323428380E+03  0.24437405639E+03  0.79862635040E+02 0.  0.
         -6    2    1    2    0  502  0.43401577319E+02 -0.13250358413E+02 -0.75666429774E+03  0.77739210398E+03  0.17244812248E+03 0.  0.
        -24    2    5    5    0    0 -0.20243954830E+02 -0.55067489906E+02 -0.37484777718E+03  0.38802675933E+03  0.81312137734E+02 0.  0.
          5    1    3    3  501    0 -0.22807159825E+02 -0.42274081863E+02 -0.41928137081E+03  0.42205002363E+03  0.47000000000E+01 0. -1.
        -13    1    4    4    0    0 -0.25694719610E+02  0.61310771302E+02 -0.22645839628E+03  0.23601405581E+03  0.00000000000E+00 0.  1.
         14    1    4    4    0    0  0.51003021162E+01 -0.57863310252E+01  0.32241124854E+01  0.83600005818E+01  0.00000000000E+00 0. -1.
         -5    1    5    5    0  502  0.63645532149E+02  0.41817131493E+02 -0.38181652056E+03  0.38936534466E+03  0.47000000000E+01 0.  1.
         13    1    6    6    0    0 -0.27415682354E+02  0.11902768341E+02 -0.16340031672E+03  0.16611128510E+03  0.00000000000E+00 0. -1.
        -14    1    6    6    0    0  0.71717275241E+01 -0.66970258247E+02 -0.21144746046E+03  0.22191547423E+03  0.00000000000E+00 0.  1.
</event>
<event>
12    1  0.1628146E-001  0.2054303E+03  0.7818608E-02  0.1145459E+00
         21   -1    0    0  501  502  0.00000000000E+00  0.00000000000E+00  0.13557719342E+03  0.13557719342E+03  0.00000000000E+00 0. -1.
         21   -1    0    0  502  503 -0.00000000000E+00 -0.00000000000E+00 -0.43082584674E+03  0.43082584674E+03  0.00000000000E+00 0. -1.
         -6    2    1    2    0  503  0.10750765049E+03 -0.32747328536E+02 -0.29811134153E+03  0.36203865717E+03  0.17196317890E+03 0.  0.
        -24    2    3    3    0    0  0.57167766555E+02 -0.62169806129E+02 -0.27729457442E+03  0.29994828839E+03  0.77093815434E+02 0.  0.
          6    2    1    2  501    0 -0.10750765049E+03  0.32747328536E+02  0.28626882098E+01  0.20436438298E+03  0.17066435951E+03 0.  0.
         24    2    5    5    0    0 -0.25705730897E+02 -0.35698515148E+02 -0.20806303124E+02  0.95008547668E+02  0.81599958919E+02 0.  0.
          5    1    5    5  501    0 -0.81801919595E+02  0.68445843684E+02  0.23668991334E+02  0.10935583532E+03  0.47000000000E+01 0. -1.
        -11    1    6    6    0    0 -0.21593519613E+02 -0.38885222812E+02  0.23563579483E+02  0.50334708904E+02  0.00000000000E+00 0.  1.
         12    1    6    6    0    0 -0.41122112844E+01  0.31867076638E+01 -0.44369882607E+02  0.44673838764E+02  0.00000000000E+00 0. -1.
         -5    1    3    3    0  503  0.50339883937E+02  0.29422477593E+02 -0.20816767111E+02  0.62090368782E+02  0.47000000000E+01 0.  1.
         11    1    4    4    0    0  0.76542061848E+02 -0.51054876291E+02 -0.22152364974E+03  0.23987082986E+03  0.00000000000E+00 0. -1.
        -12    1    4    4    0    0 -0.19374295293E+02 -0.11114929837E+02 -0.55770924679E+02  0.60077458526E+02  0.00000000000E+00 0.  1.
</event>
<event>
12    1  0.1628146E-001  0.1818964E+03  0.7818608E-02  0.1166188E+00
         21   -1    0    0  501  502  0.00000000000E+00  0.00000000000E+00  0.68477773581E+02  0.68477773581E+02  0.00000000000E+00 0.  1.
         21   -1    0    0  502  503 -0.00000000000E+00 -0.00000000000E+00 -0.95681450617E+03  0.95681450617E+03  0.00000000000E+00 0. -1.
         -6    2    1    2    0  503  0.26084269715E+02 -0.51763196147E+02 -0.80626793945E+03  0.82653149003E+03  0.17241373562E+03 0.  0.
        -24    2    3    3    0    0  0.59242566221E+02 -0.59610707080E+02 -0.34629617471E+03  0.36527541104E+03  0.80261866645E+02 0.  0.
          6    2    1    2  501    0 -0.26084269715E+02  0.51763196147E+02 -0.82068793145E+02  0.19876078972E+03  0.17149561837E+03 0.  0.
         24    2    5    5    0    0 -0.76061937782E+00 -0.16782753268E+02  0.42652197393E+01  0.85555285315E+02  0.83781115991E+02 0.  0.
          5    1    5    5  501    0 -0.25323650337E+02  0.68545949415E+02 -0.86334012884E+02  0.11320550441E+03  0.47000000000E+01 0. -1.
        -13    1    6    6    0    0 -0.21062386711E+02  0.18584478086E+02  0.26919036339E+02  0.38905545583E+02  0.00000000000E+00 0.  1.
         14    1    6    6    0    0  0.20301767333E+02 -0.35367231354E+02 -0.22653816600E+02  0.46649739732E+02  0.00000000000E+00 0. -1.
         -5    1    3    3    0  503 -0.33158296506E+02  0.78475109330E+01 -0.45997176473E+03  0.46125607899E+03  0.47000000000E+01 0.  1.
         11    1    4    4    0    0  0.36631752574E+02 -0.10995569756E+02 -0.26592763737E+03  0.26866390931E+03  0.00000000000E+00 0. -1.
        -12    1    4    4    0    0  0.22610813647E+02 -0.48615137324E+02 -0.80368537347E+02  0.96611501728E+02  0.00000000000E+00 0.  1.
</event>
<event>
12    1  0.1628146E-001  0.2121148E+03  0.7818608E-02  0.1140957E+00
         21   -1    0    0  503  502  0.00000000000E+00  0.00000000000E+00  0.18328895880E+04  0.18328895880E+04  0.00000000000E+00 0.  1.
         21   -1    0    0  501  503 -0.00000000000E+00 -0.00000000000E+00 -0.54236324359E+02  0.54236324359E+02  0.00000000000E+00 0.  1.
          6    2    1    2  501    0 -0.36565661788E+02 -0.11024292542E+03  0.17908616341E+03  0.27355608157E+03  0.17108631041E+03 0.  0.
         24    2    3    3    0    0  0.32628441500E+02 -0.12552009710E+02  0.88809000136E+02  0.12354476482E+03  0.78448086452E+02 0.  0.
         -6    2    1    2    0  502  0.36565661788E+02  0.11024292542E+03  0.15995671002E+04  0.16135698308E+04  0.17748842349E+03 0.  0.
        -24    2    5    5    0    0  0.39712793123E+02  0.20521171481E+02  0.12218384924E+04  0.12252904356E+04  0.80306448159E+02 0.  0.
          5    1    3    3  501    0 -0.69194103289E+02 -0.97690915710E+02  0.90277163273E+02  0.15001131674E+03  0.47000000000E+01 0. -1.
        -13    1    4    4    0    0  0.38451420829E+02 -0.40385443826E+02  0.69803557655E+02  0.89342221251E+02  0.00000000000E+00 0.  1.
         14    1    4    4    0    0 -0.58229793289E+01  0.27833434117E+02  0.19005442481E+02  0.34202543573E+02  0.00000000000E+00 0. -1.
         -5    1    5    5    0  502 -0.31471313351E+01  0.89721753939E+02  0.37772860780E+03  0.38827939517E+03  0.47000000000E+01 0.  1.
         11    1    6    6    0    0 -0.76852411794E+00  0.44733039821E+02  0.59664806364E+03  0.59832311281E+03  0.00000000000E+00 0. -1.
        -12    1    6    6    0    0  0.40481317241E+02 -0.24211868341E+02  0.62519042878E+03  0.62696732280E+03  0.00000000000E+00 0.  1.
</event>
<event>
12    1  0.1628146E-001  0.2413810E+03  0.7818608E-02  0.1121343E+00
         21   -1    0    0  501  502  0.00000000000E+00  0.00000000000E+00  0.16882239172E+03  0.16882239172E+03  0.00000000000E+00 0. -1.
         21   -1    0    0  502  503 -0.00000000000E+00 -0.00000000000E+00 -0.37694064671E+03  0.37694064671E+03  0.00000000000E+00 0.  1.
         -6    2    1    2    0  503 -0.14892736341E+03  0.80380945156E+02 -0.20275529976E+03  0.30432251908E+03  0.15120194483E+03 0.  0.
        -24    2    3    3    0    0 -0.16734533168E+03  0.59154074019E+02 -0.15639265178E+03  0.24990389413E+03  0.80558241437E+02 0.  0.
          6    2    1    2  501    0  0.14892736341E+03 -0.80380945156E+02 -0.53629552247E+01  0.24144051935E+03  0.17211713215E+03 0.  0.
         24    2    5    5    0    0  0.45563341628E+02 -0.38178438225E+02  0.52128424913E+02  0.11577222032E+03  0.84570816886E+02 0.  0.
          5    1    5    5  501    0  0.10336402178E+03 -0.42202506931E+02 -0.57491380138E+02  0.12566829903E+03  0.47000000000E+01 0. -1.
        -13    1    6    6    0    0 -0.10220520346E+02  0.18366966181E+02  0.47671792835E+00  0.21024550954E+02  0.00000000000E+00 0.  1.
         14    1    6    6    0    0  0.55783861973E+02 -0.56545404407E+02  0.51651706985E+02  0.94747669368E+02  0.00000000000E+00 0. -1.
         -5    1    3    3    0  503  0.18417968268E+02  0.21226871137E+02 -0.46362647981E+02  0.54418624947E+02  0.47000000000E+01 0.  1.
         11    1    4    4    0    0 -0.34100624860E+02 -0.14316465862E+01  0.20578501054E+01  0.34192645040E+02  0.00000000000E+00 0. -1.
        -12    1    4    4    0    0 -0.13324470682E+03  0.60585720605E+02 -0.15845050189E+03  0.21571124909E+03  0.00000000000E+00 0.  1.
</event>
<event>
12    1  0.1628146E-001  0.2158309E+03  0.7818608E-02  0.1139115E+00
         21   -1    0    0  501  502  0.00000000000E+00  0.00000000000E+00  0.60788638454E+03  0.60788638454E+03  0.00000000000E+00 0. -1.
         21   -1    0    0  502  503 -0.00000000000E+00 -0.00000000000E+00 -0.78063084688E+02  0.78063084688E+02  0.00000000000E+00 0.  1.
         -6    2    1    2    0  503 -0.82168581975E+02  0.97207159408E+02  0.34680067037E+03  0.40296487449E+03  0.16096296904E+03 0.  0.
        -24    2    3    3    0    0 -0.10297067155E+03  0.11362347620E+03  0.32357041331E+03  0.36741269832E+03  0.82346979104E+02 0.  0.
          6    2    1    2  501    0  0.82168581975E+02 -0.97207159408E+02  0.18302262948E+03  0.28298459473E+03  0.17430459044E+03 0.  0.
         24    2    5    5    0    0  0.42042854621E+02  0.12532493995E+02  0.11385612869E+03  0.14712083814E+03  0.82198892588E+02 0.  0.
          5    1    5    5  501    0  0.40125727354E+02 -0.10973965340E+03  0.69166500786E+02  0.13586375659E+03  0.47000000000E+01 0. -1.
        -13    1    6    6    0    0  0.32431967096E+02 -0.33127529685E+02  0.52532464888E+02  0.70063725137E+02  0.00000000000E+00 0.  1.
         14    1    6    6    0    0  0.96108875248E+01  0.45660023680E+02  0.61323663803E+02  0.77057112999E+02  0.00000000000E+00 0. -1.
         -5    1    3    3    0  503  0.20802089579E+02 -0.16416316796E+02  0.23230257059E+02  0.35552176179E+02  0.47000000000E+01 0.  1.
         11    1    4    4    0    0 -0.10256294172E+03  0.71509740816E+02  0.28084486600E+03  0.30741932080E+03  0.00000000000E+00 0. -1.
        -12    1    4    4    0    0 -0.40772983069E+00  0.42113735388E+02  0.42725547316E+02  0.59993377513E+02  0.00000000000E+00 0.  1.
</event>
<event>
12    1  0.1628146E-001  0.1976701E+03  0.7818608E-02  0.1151811E+00
         21   -1    0    0  503  502  0.00000000000E+00  0.00000000000E+00  0.10531783931E+04  0.10531783931E+04  0.00000000000E+00 0.  1.
         21   -1    0    0  501  503 -0.00000000000E+00 -0.00000000000E+00 -0.85430284935E+02  0.85430284935E+02  0.00000000000E+00 0.  1.
          6    2    1    2  501    0 -0.10174549297E+02 -0.95285556634E+02  0.55547884189E+02  0.20532670441E+03  0.17288906660E+03 0.  0.
         24    2    3    3    0    0 -0.20888675037E+02 -0.91402243607E+02 -0.23107771239E+02  0.12571090987E+03  0.80489483080E+02 0.  0.
         -6    2    1    2    0  502  0.10174549297E+02  0.95285556634E+02  0.91220022402E+03  0.93328197367E+03  0.17240398752E+03 0.  0.
        -24    2    5    5    0    0  0.48392239601E+02  0.11977159695E+02  0.31207162373E+03  0.32617629280E+03  0.80728027601E+02 0.  0.
          5    1    3    3  501    0  0.10714125740E+02 -0.38833130266E+01  0.78655655429E+02  0.79615794547E+02  0.47000000000E+01 0. -1.
        -11    1    4    4    0    0  0.10844721844E+02 -0.22347312674E+02 -0.40721087580E+02  0.47699238456E+02  0.00000000000E+00 0.  1.
         12    1    4    4    0    0 -0.31733396881E+02 -0.69054930933E+02  0.17613316340E+02  0.78011671410E+02  0.00000000000E+00 0. -1.
         -5    1    5    5    0  502 -0.38217690304E+02  0.83308396938E+02  0.60012860029E+03  0.60710568087E+03  0.47000000000E+01 0.  1.
         13    1    6    6    0    0 -0.25486146315E-01  0.37152143554E+02  0.87333463026E+02  0.94907408479E+02  0.00000000000E+00 0. -1.
        -14    1    6    6    0    0  0.48417725748E+02 -0.25174983859E+02  0.22473816070E+03  0.23126888432E+03  0.00000000000E+00 0.  1.
</event>
<event>
12    1  0.1628146E-001  0.2123788E+03  0.7818608E-02  0.1141771E+00
         21   -1    0    0  503  502  0.00000000000E+00  0.00000000000E+00  0.49238591621E+03  0.49238591621E+03  0.00000000000E+00 0. -1.
         21   -1    0    0  501  503 -0.00000000000E+00 -0.00000000000E+00 -0.10319804483E+03  0.10319804483E+03  0.00000000000E+00 0.  1.
          6    2    1    2  501    0 -0.20617794551E+02  0.10141839696E+03  0.81458309212E+02  0.22746470000E+03  0.18545605655E+03 0.  0.
         24    2    3    3    0    0  0.57625344669E+02  0.67410774808E+02  0.66332399166E+02  0.14069264024E+03  0.86772915882E+02 0.  0.
         -6    2    1    2    0  502  0.20617794551E+02 -0.10141839696E+03  0.30772956217E+03  0.36811926104E+03  0.17350366629E+03 0.  0.
        -24    2    5    5    0    0  0.81274570279E+01 -0.13210341553E+03  0.29207939777E+03  0.33117881516E+03  0.82774785138E+02 0.  0.
          5    1    3    3  501    0 -0.78243139220E+02  0.34007622154E+02  0.15125910046E+02  0.86772059756E+02  0.47000000000E+01 0. -1.
        -13    1    4    4    0    0  0.19721648330E+02  0.49543025636E+02 -0.93941446740E+01  0.54145219144E+02  0.00000000000E+00 0.  1.
         14    1    4    4    0    0  0.37903696340E+02  0.17867749172E+02  0.75726543840E+02  0.86547421098E+02  0.00000000000E+00 0. -1.
         -5    1    5    5    0  502  0.12490337523E+02  0.30685018568E+02  0.15650164401E+02  0.36940445879E+02  0.47000000000E+01 0.  1.
         11    1    6    6    0    0 -0.19751295020E+02 -0.99344813545E+02  0.25502698190E+03  0.27440529720E+03  0.00000000000E+00 0. -1.
        -12    1    6    6    0    0  0.27878752048E+02 -0.32758601985E+02  0.37052415874E+02  0.56773517962E+02  0.00000000000E+00 0.  1.
</event>
<event>
12    1  0.1628146E-001  0.2774826E+03  0.7818608E-02  0.1097224E+00
         21   -1    0    0  501  502  0.00000000000E+00  0.00000000000E+00  0.72430764536E+02  0.72430764536E+02  0.00000000000E+00 0. -1.
         21   -1    0    0  502  503 -0.00000000000E+00 -0.00000000000E+00 -0.10837910189E+04  0.10837910189E+04  0.00000000000E+00 0.  1.
         -6    2    1    2    0  503 -0.99123031780E+02  0.19256992726E+03 -0.41893501784E+03  0.50249688603E+03  0.17345898357E+03 0.  0.
        -24    2    3    3    0    0 -0.12191598347E+03  0.13530488323E+03 -0.23308352963E+03  0.30663553307E+03  0.80786755749E+02 0.  0.
          6    2    1    2  501    0  0.99123031780E+02 -0.19256992726E+03 -0.59242523655E+03  0.65372489743E+03  0.17169749068E+03 0.  0.
         24    2    5    5    0    0  0.66145007880E+02 -0.14697035826E+03 -0.25718807622E+03  0.31376473150E+03  0.79543396393E+02 0.  0.
          5    1    5    5  501    0  0.32978023900E+02 -0.45599569004E+02 -0.33523716033E+03  0.33996016593E+03  0.47000000000E+01 0. -1.
        -13    1    6    6    0    0 -0.27029397687E+01 -0.22550119297E+02 -0.96750192576E+02  0.99380146544E+02  0.00000000000E+00 0.  1.
         14    1    6    6    0    0  0.68847947649E+02 -0.12442023896E+03 -0.16043788365E+03  0.21438458496E+03  0.00000000000E+00 0. -1.
         -5    1    3    3    0  503  0.22792951686E+02  0.57265044038E+02 -0.18585148821E+03  0.19586135296E+03  0.47000000000E+01 0.  1.
         11    1    4    4    0    0 -0.48287437883E+02  0.13437966943E+02 -0.29362048843E+02  0.58089461395E+02  0.00000000000E+00 0. -1.
        -12    1    4    4    0    0 -0.73628545583E+02  0.12186691628E+03 -0.20372148079E+03  0.24854607167E+03  0.00000000000E+00 0.  1.
</event>
<event>
12    1  0.1628146E-001  0.2238225E+03  0.7818608E-02  0.1131148E+00
         21   -1    0    0  501  502  0.00000000000E+00  0.00000000000E+00  0.21217978670E+03  0.21217978670E+03  0.00000000000E+00 0. -1.
         21   -1    0    0  502  503 -0.00000000000E+00 -0.00000000000E+00 -0.25612143413E+03  0.25612143413E+03  0.00000000000E+00 0. -1.
         -6    2    1    2    0  503  0.13454764972E+03 -0.45842737419E+02 -0.88231771057E+02  0.24058547201E+03  0.17289273350E+03 0.  0.
        -24    2    3    3    0    0  0.13100700311E+03 -0.42051996402E+02 -0.12577222280E+03  0.20239802102E+03  0.78835915807E+02 0.  0.
          6    2    1    2  501    0 -0.13454764972E+03  0.45842737419E+02  0.44290123636E+02  0.22771574882E+03  0.17230270047E+03 0.  0.
         24    2    5    5    0    0 -0.15428739344E+03  0.37865059237E+02 -0.12542382881E+01  0.17722139533E+03  0.78533351933E+02 0.  0.
          5    1    5    5  501    0  0.19739743717E+02  0.79776781823E+01  0.45544361924E+02  0.50494353488E+02  0.47000000000E+01 0. -1.
        -11    1    6    6    0    0 -0.40503168050E+01  0.21419869845E+02 -0.13418368167E+02  0.25598212724E+02  0.00000000000E+00 0.  1.
         12    1    6    6    0    0 -0.15023707663E+03  0.16445189392E+02  0.12164129879E+02  0.15162318261E+03  0.00000000000E+00 0. -1.
         -5    1    3    3    0  503  0.35406466095E+01 -0.37907410168E+01  0.37540451741E+02  0.38187450986E+02  0.47000000000E+01 0.  1.
         11    1    4    4    0    0  0.62338414343E+02 -0.57864958653E+02 -0.48876833205E+02  0.98098808183E+02  0.00000000000E+00 0. -1.
        -12    1    4    4    0    0  0.68668588768E+02  0.15812962251E+02 -0.76895389593E+02  0.10429921284E+03  0.00000000000E+00 0.  1.
</event>
<event>
12    1  0.1628146E-001  0.1753566E+03  0.7818608E-02  0.1172588E+00
         21   -1    0    0  501  502  0.00000000000E+00  0.00000000000E+00  0.62354674247E+02  0.62354674247E+02  0.00000000000E+00 0.  1.
         21   -1    0    0  502  503 -0.00000000000E+00 -0.00000000000E+00 -0.71541761127E+03  0.71541761127E+03  0.00000000000E+00 0.  1.
         -6    2    1    2    0  503 -0.15840980678E+02 -0.28034287459E+02 -0.54391280927E+03  0.57122035883E+03  0.17150713198E+03 0.  0.
        -24    2    3    3    0    0  0.27079377016E+02  0.41419008658E+02 -0.26475398673E+03  0.28032921829E+03  0.77723678510E+02 0.  0.
          6    2    1    2  501    0  0.15840980678E+02  0.28034287459E+02 -0.10915012776E+03  0.20655192669E+03  0.17237485340E+03 0.  0.
         24    2    5    5    0    0 -0.42180073942E+02  0.52594339354E+02 -0.38065927655E+02  0.11144833878E+03  0.80164794009E+02 0.  0.
          5    1    5    5  501    0  0.58021054619E+02 -0.24560051896E+02 -0.71084200105E+02  0.95103587907E+02  0.47000000000E+01 0. -1.
        -11    1    6    6    0    0 -0.19242646848E+02  0.65975120801E+02 -0.48116632293E+01  0.68892293658E+02  0.00000000000E+00 0.  1.
         12    1    6    6    0    0 -0.22937427094E+02 -0.13380781447E+02 -0.33254264426E+02  0.42556045121E+02  0.00000000000E+00 0. -1.
         -5    1    3    3    0  503 -0.42920357694E+02 -0.69453296116E+02 -0.27915882254E+03  0.29089114054E+03  0.47000000000E+01 0.  1.
         13    1    4    4    0    0 -0.24629571267E+02  0.15594295757E+02 -0.49459098753E+02  0.57410802907E+02  0.00000000000E+00 0. -1.
        -14    1    4    4    0    0  0.51708948283E+02  0.25824712900E+02 -0.21529488798E+03  0.22291841539E+03  0.00000000000E+00 0.  1.
</event>
<event>
12    1  0.1628146E-001  0.1942796E+03  0.7818608E-02  0.1154774E+00
         21   -1    0    0  501  502  0.00000000000E+00  0.00000000000E+00  0.70370564197E+02  0.70370564197E+02  0.00000000000E+00 0.  1.
         21   -1    0    0  502  503 -0.00000000000E+00 -0.00000000000E+00 -0.53555872250E+03  0.53555872250E+03  0.00000000000E+00 0.  1.
         -6    2    1    2    0  503 -0.86028776680E+02  0.10144998754E+02 -0.22161711976E+03  0.29436644522E+03  0.17330200485E+03 0.  0.
        -24    2    3    3    0    0 -0.10485803123E+03 -0.20726011606E+02 -0.98377802166E+02  0.16584570950E+03  0.80011456248E+02 0.  0.
          6    2    1    2  501    0  0.86028776680E+02 -0.10144998754E+02 -0.24357103854E+03  0.31156284148E+03  0.17389848175E+03 0.  0.
         24    2    5    5    0    0  0.87432822263E+02 -0.21501250035E+02 -0.72491159353E+02  0.14003631044E+03  0.79046808248E+02 0.  0.
          5    1    5    5  501    0 -0.14040455829E+01  0.11356251281E+02 -0.17107987919E+03  0.17152653104E+03  0.47000000000E+01 0. -1.
        -13    1    6    6    0    0  0.42249579387E+02 -0.19906710359E+02  0.83180328285E+01  0.47439369155E+02  0.00000000000E+00 0.  1.
         14    1    6    6    0    0  0.45183242876E+02 -0.15945396760E+01 -0.80809192181E+02  0.92596941281E+02  0.00000000000E+00 0. -1.
         -5    1    3    3    0  503  0.18829254553E+02  0.30871010360E+02 -0.12323931760E+03  0.12852073572E+03  0.47000000000E+01 0.  1.
         13    1    4    4    0    0 -0.79784139832E+02  0.18212842356E+02 -0.39315761872E+02  0.90790669824E+02  0.00000000000E+00 0. -1.
        -14    1    4    4    0    0 -0.25073891401E+02 -0.38938853962E+02 -0.59062040294E+02  0.75055039681E+02  0.00000000000E+00 0.  1.
</event>
<event>
12    1  0.1628146E-001  0.2161878E+03  0.7818608E-02  0.1136980E+00
         21   -1    0    0  503  502  0.00000000000E+00  0.00000000000E+00  0.10215617735E+03  0.10215617735E+03  0.00000000000E+00 0. -1.
         21   -1    0    0  501  503 -0.00000000000E+00 -0.00000000000E+00 -0.50943354632E+03  0.50943354632E+03  0.00000000000E+00 0.  1.
          6    2    1    2  501    0  0.95886451474E+02 -0.84546142430E+02 -0.30306007039E+03  0.37159299938E+03  0.17289791538E+03 0.  0.
         24    2    3    3    0    0  0.42824094940E+02 -0.67514776198E+02 -0.29398097093E+03  0.31493436223E+03  0.79791560514E+02 0.  0.
         -6    2    1    2    0  502 -0.95886451474E+02  0.84546142430E+02 -0.10421729858E+03  0.23999672429E+03  0.17434139087E+03 0.  0.
        -24    2    5    5    0    0 -0.81979410044E+02  0.10492460578E+03 -0.25435673626E+02  0.15730862357E+03  0.79807474504E+02 0.  0.
          5    1    3    3  501    0  0.53062356534E+02 -0.17031366231E+02 -0.90790994609E+01  0.56658637150E+02  0.47000000000E+01 0. -1.
        -13    1    4    4    0    0  0.67733909052E+01 -0.75549399705E+02 -0.20560472489E+03  0.21915039018E+03  0.00000000000E+00 0.  1.
         14    1    4    4    0    0  0.36050704035E+02  0.80346235065E+01 -0.88376246043E+02  0.95783972047E+02  0.00000000000E+00 0. -1.
         -5    1    5    5    0  502 -0.13907041431E+02 -0.20378463355E+02 -0.78781624950E+02  0.82688100715E+02  0.47000000000E+01 0.  1.
         11    1    6    6    0    0 -0.63392943161E+02  0.21825908927E+02  0.41244694432E+01  0.67171770792E+02  0.00000000000E+00 0. -1.
        -12    1    6    6    0    0 -0.18586466882E+02  0.83098696857E+02 -0.29560143070E+02  0.90136852779E+02  0.00000000000E+00 0.  1.
</event>
<event>
12    1  0.1628146E-001  0.1823494E+03  0.7818608E-02  0.1165816E+00
         21   -1    0    0  501  502  0.00000000000E+00  0.00000000000E+00  0.47033998751E+03  0.47033998751E+03  0.00000000000E+00 0. -1.
         21   -1    0    0  502  503 -0.00000000000E+00 -0.00000000000E+00 -0.72107319344E+02  0.72107319344E+02  0.00000000000E+00 0. -1.
         -6    2    1    2    0  503 -0.15512009547E+02  0.58692736494E+02  0.15632777167E+03  0.24018671729E+03  0.17194716402E+03 0.  0.
        -24    2    3    3    0    0 -0.34600616391E+01 -0.26448528662E+02  0.33123772177E+02  0.89868388502E+02  0.79168467674E+02 0.  0.
          6    2    1    2  501    0  0.15512009547E+02 -0.58692736494E+02  0.24190489650E+03  0.30226058956E+03  0.17075721154E+03 0.  0.
         24    2    5    5    0    0  0.48395423720E+02 -0.16460668945E+02  0.60396229750E+02  0.11296623528E+03  0.80626267964E+02 0.  0.
          5    1    5    5  501    0 -0.32883414173E+02 -0.42232067548E+02  0.18150866675E+03  0.18929435428E+03  0.47000000000E+01 0. -1.
        -13    1    6    6    0    0 -0.12373687177E+01  0.28317918865E+02  0.21963183610E+02  0.35858291155E+02  0.00000000000E+00 0.  1.
         14    1    6    6    0    0  0.49632792438E+02 -0.44778587811E+02  0.38433046139E+02  0.77107944124E+02  0.00000000000E+00 0. -1.
         -5    1    3    3    0  503 -0.12051947908E+02  0.85141265155E+02  0.12320399949E+03  0.15031832879E+03  0.47000000000E+01 0.  1.
         13    1    4    4    0    0  0.29863217444E+02  0.45813545833E+01 -0.48237108672E+01  0.30595240683E+02  0.00000000000E+00 0. -1.
        -14    1    4    4    0    0 -0.33323279083E+02 -0.31029883245E+02  0.37947483044E+02  0.59273147819E+02  0.00000000000E+00 0.  1.
</event>
<event>
12    1  0.1628146E-001  0.2527169E+03  0.7818608E-02  0.1112169E+00
         21   -1    0    0  501  502  0.00000000000E+00  0.00000000000E+00  0.19272525454E+03  0.19272525454E+03  0.00000000000E+00 0. -1.
         21   -1    0    0  502  503 -0.00000000000E+00 -0.00000000000E+00 -0.34816524592E+03  0.34816524592E+03  0.00000000000E+00 0. -1.
         -6    2    1    2    0  503  0.99408786800E+02 -0.15062004753E+03 -0.14442434285E+03  0.28793360778E+03  0.17169410610E+03 0.  0.
        -24    2    3    3    0    0  0.54628884782E+02 -0.65506177677E+02 -0.15178889438E+03  0.19136271628E+03  0.79400543813E+02 0.  0.
          6    2    1    2  501    0 -0.99408786800E+02  0.15062004753E+03 -0.11015648529E+02  0.25295689268E+03  0.17691054076E+03 0.  0.
         24    2    5    5    0    0  0.19429768238E+02  0.36956247049E+02  0.32864627247E+01  0.87824515211E+02  0.77194977460E+02 0.  0.
          5    1    5    5  501    0 -0.11883855504E+03  0.11366380048E+03 -0.14302111254E+02  0.16513237747E+03  0.47000000000E+01 0. -1.
        -13    1    6    6    0    0  0.11186478809E+02 -0.21894402597E+02 -0.10638656062E+02  0.26789609479E+02  0.00000000000E+00 0.  1.
         14    1    6    6    0    0  0.82432894293E+01  0.58850649647E+02  0.13925118787E+02  0.61034905732E+02  0.00000000000E+00 0. -1.
         -5    1    3    3    0  503  0.44779902018E+02 -0.85113869853E+02  0.73645515271E+01  0.96570891501E+02  0.47000000000E+01 0.  1.
         11    1    4    4    0    0  0.32545591887E+02 -0.66625951395E+02 -0.55640066983E+02  0.92704099179E+02  0.00000000000E+00 0. -1.
        -12    1    4    4    0    0  0.22083292895E+02  0.11197737177E+01 -0.96148827396E+02  0.98658617099E+02  0.00000000000E+00 0.  1.
</event>
<event>
12    1  0.1628146E-001  0.2693663E+03  0.7818608E-02  0.1101695E+00
         21   -1    0    0  501  502  0.00000000000E+00  0.00000000000E+00  0.84031583698E+03  0.84031583698E+03  0.00000000000E+00 0. -1.
         21   -1    0    0  502  503 -0.00000000000E+00 -0.00000000000E+00 -0.10377508721E+03  0.10377508721E+03  0.00000000000E+00 0.  1.
         -6    2    1    2    0  503 -0.11146795679E+03 -0.17403112489E+03  0.17438521542E+03  0.32088691407E+03  0.17276073177E+03 0.  0.
        -24    2    3    3    0    0 -0.12320670909E+03 -0.94102613841E+02  0.16528610120E+03  0.23945443244E+03  0.77354604699E+02 0.  0.
          6    2    1    2  501    0  0.11146795679E+03  0.17403112489E+03  0.56215553435E+03  0.62320401013E+03  0.17219888391E+03 0.  0.
         24    2    5    5    0    0  0.44356227927E+02  0.67102350320E+02  0.12666073200E+03  0.16975549061E+03  0.79396380188E+02 0.  0.
          5    1    5    5  501    0  0.67111728863E+02  0.10692877457E+03  0.43549480235E+03  0.45344851952E+03  0.47000000000E+01 0. -1.
        -13    1    6    6    0    0  0.61961339204E+01  0.72036442033E+02  0.97958248514E+02  0.12175163041E+03  0.00000000000E+00 0.  1.
         14    1    6    6    0    0  0.38160094006E+02 -0.49340917124E+01  0.28702483491E+02  0.48003860200E+02  0.00000000000E+00 0. -1.
         -5    1    3    3    0  503  0.11738752302E+02 -0.79928511048E+02  0.90991142195E+01  0.81432481625E+02  0.47000000000E+01 0.  1.
         13    1    4    4    0    0 -0.13088462661E+03 -0.98800422166E+02  0.15346953729E+03  0.22460010637E+03  0.00000000000E+00 0. -1.
        -14    1    4    4    0    0  0.76779175192E+01  0.46978083248E+01  0.11816563909E+02  0.14854326074E+02  0.00000000000E+00 0.  1.
</event>
<event>
12    1  0.1628146E-001  0.1896609E+03  0.7818608E-02  0.1158972E+00
         21   -1    0    0  501  502  0.00000000000E+00  0.00000000000E+00  0.15518844990E+03  0.15518844990E+03  0.00000000000E+00 0.  1.
         21   -1    0    0  502  503 -0.00000000000E+00 -0.00000000000E+00 -0.29827383425E+03  0.29827383425E+03  0.00000000000E+00 0.  1.
         -6    2    1    2    0  503  0.64037853431E+02  0.45470012993E+02 -0.17960206386E+03  0.26120518317E+03  0.17263509960E+03 0.  0.
        -24    2    3    3    0    0  0.67440356720E+02 -0.12450021848E+02 -0.44053529747E+02  0.11368636211E+03  0.79250682573E+02 0.  0.
          6    2    1    2  501    0 -0.64037853431E+02 -0.45470012993E+02  0.36516679508E+02  0.19225710099E+03  0.17164194197E+03 0.  0.
         24    2    5    5    0    0 -0.23087440101E+02 -0.10271598135E+03  0.26453456396E+02  0.12100125418E+03  0.53459474765E+02 0.  0.
          5    1    5    5  501    0 -0.40950413331E+02  0.57245968357E+02  0.10063223112E+02  0.71255846809E+02  0.47000000000E+01 0. -1.
        -13    1    6    6    0    0 -0.17749545560E+02 -0.38995567483E+02  0.36485909351E+02  0.56275414100E+02  0.00000000000E+00 0.  1.
         14    1    6    6    0    0 -0.53378945406E+01 -0.63720413866E+02 -0.10032452955E+02  0.64725840077E+02  0.00000000000E+00 0. -1.
         -5    1    3    3    0  503 -0.34025032882E+01  0.57920034841E+02 -0.13554853412E+03  0.14751882106E+03  0.47000000000E+01 0.  1.
         13    1    4    4    0    0  0.14318221086E+02 -0.39669726246E+02 -0.31629182001E+02  0.52717205821E+02  0.00000000000E+00 0. -1.
        -14    1    4    4    0    0  0.53122135633E+02  0.27219704398E+02 -0.12424347746E+02  0.60969156289E+02  0.00000000000E+00 0.  1.
</event>
<event>
12    1  0.1628146E-001  0.1772527E+03  0.7818608E-02  0.1171414E+00
         21   -1    0    0  503  502  0.00000000000E+00  0.00000000000E+00  0.13239217248E+03  0.13239217248E+03  0.00000000000E+00 0. -1.
         21   -1    0    0  501  503 -0.00000000000E+00 -0.00000000000E+00 -0.27311963505E+03  0.27311963505E+03  0.00000000000E+00 0. -1.
          6    2    1    2  501    0 -0.13372197370E+02 -0.18634642419E+02 -0.14803855624E+03  0.22810838178E+03  0.17202312096E+03 0.  0.
         24    2    3    3    0    0 -0.59788424497E+02 -0.23564732428E+02 -0.15532092979E+03  0.18063317886E+03  0.66134724281E+02 0.  0.
         -6    2    1    2    0  502  0.13372197370E+02  0.18634642419E+02  0.73110936686E+01  0.17740342575E+03  0.17576250401E+03 0.  0.
        -24    2    5    5    0    0  0.18773808962E+02 -0.18932288899E+02  0.65537110532E+02  0.10774130709E+03  0.81253854866E+02 0.  0.
          5    1    3    3  501    0  0.46416227127E+02  0.49300900083E+01  0.72823735450E+01  0.47475202924E+02  0.47000000000E+01 0. -1.
        -13    1    4    4    0    0 -0.35116022502E+01 -0.24715323863E+02 -0.14244023021E+02  0.28741447003E+02  0.00000000000E+00 0.  1.
         14    1    4    4    0    0 -0.56276822247E+02  0.11505914352E+01 -0.14107690677E+03  0.15189173185E+03  0.00000000000E+00 0. -1.
         -5    1    5    5    0  502 -0.54016115922E+01  0.37566931318E+02 -0.58226016863E+02  0.69662118660E+02  0.47000000000E+01 0.  1.
         11    1    6    6    0    0  0.21808091089E+02  0.19272640328E+02 -0.29573809328E+01  0.29253608396E+02  0.00000000000E+00 0. -1.
        -12    1    6    6    0    0 -0.30342821271E+01 -0.38204929227E+02  0.68494491465E+02  0.78487698694E+02  0.00000000000E+00 0.  1.
</event>
<event>
12    1  0.1628146E-001  0.1947055E+03  0.7818608E-02  0.1154385E+00
         21   -1    0    0  503  502  0.00000000000E+00  0.00000000000E+00  0.72599012853E+02  0.72599012853E+02  0.00000000000E+00 0. -1.
         21   -1    0    0  501  503 -0.00000000000E+00 -0.00000000000E+00 -0.54133143640E+03  0.54133143640E+03  0.00000000000E+00 0.  1.
          6    2    1    2  501    0  0.12787690943E+01  0.90551671397E+02 -0.29365005423E+03  0.35208303047E+03  0.17184546998E+03 0.  0.
         24    2    3    3    0    0  0.56317565215E+02  0.43717586287E+02 -0.10952961202E+03  0.15423175338E+03  0.81901174224E+02 0.  0.
         -6    2    1    2    0  502 -0.12787690943E+01 -0.90551671397E+02 -0.17508236932E+03  0.26184741878E+03  0.17236297234E+03 0.  0.
        -24    2    5    5    0    0 -0.10812504764E+02 -0.18650631599E+02 -0.12438501596E+02  0.83702058621E+02  0.79915968224E+02 0.  0.
          5    1    3    3  501    0 -0.55038796121E+02  0.46834085110E+02 -0.18412044221E+03  0.19785127709E+03  0.47000000000E+01 0. -1.
        -11    1    4    4    0    0  0.57117404256E+01  0.11436660374E+02 -0.90301934728E+02  0.91202305863E+02  0.00000000000E+00 0.  1.
         12    1    4    4    0    0  0.50605824789E+02  0.32280925913E+02 -0.19227677293E+02  0.63029447519E+02  0.00000000000E+00 0. -1.
         -5    1    5    5    0  502  0.95337356697E+01 -0.71901039797E+02 -0.16264386772E+03  0.17814536016E+03  0.47000000000E+01 0.  1.
         11    1    6    6    0    0 -0.28826929765E+02  0.20754266010E+02 -0.18337457370E+02  0.39974914385E+02  0.00000000000E+00 0. -1.
        -12    1    6    6    0    0  0.18014425001E+02 -0.39404897610E+02  0.58989557739E+01  0.43727144236E+02  0.00000000000E+00 0.  1.
</event>
<event>
12    1  0.1628146E-001  0.1891571E+03  0.7818608E-02  0.1159954E+00
         21   -1    0    0  501  502  0.00000000000E+00  0.00000000000E+00  0.37154909662E+03  0.37154909662E+03  0.00000000000E+00 0. -1.
         21   -1    0    0  502  503 -0.00000000000E+00 -0.00000000000E+00 -0.13209271725E+03  0.13209271725E+03  0.00000000000E+00 0. -1.
         -6    2    1    2    0  503 -0.59262886326E+02  0.43463123977E+02 -0.15010516962E+02  0.18657116163E+03  0.17082842237E+03 0.  0.
        -24    2    3    3    0    0 -0.74032510499E+01  0.30479615420E+02 -0.67544882050E+02  0.11147160916E+03  0.82944520464E+02 0.  0.
          6    2    1    2  501    0  0.59262886326E+02 -0.43463123977E+02  0.25446689633E+03  0.31707065224E+03  0.17429648402E+03 0.  0.
         24    2    5    5    0    0 -0.53089446277E+01  0.27525910143E+02  0.17053891218E+03  0.18949729749E+03  0.77716436914E+02 0.  0.
          5    1    5    5  501    0  0.64571830954E+02 -0.70989034120E+02  0.83927984150E+02  0.12757335475E+03  0.47000000000E+01 0. -1.
        -13    1    6    6    0    0 -0.32438913314E+01 -0.14359418218E+02  0.89670429596E+00  0.14748552509E+02  0.00000000000E+00 0.  1.
         14    1    6    6    0    0 -0.20650532964E+01  0.41885328360E+02  0.16964220789E+03  0.17474874498E+03  0.00000000000E+00 0. -1.
         -5    1    3    3    0  503 -0.51859635276E+02  0.12983508557E+02  0.52534365089E+02  0.75099552467E+02  0.47000000000E+01 0.  1.
         11    1    4    4    0    0 -0.12197018869E+02 -0.22378539040E+02  0.10437539155E+00  0.25486803901E+02  0.00000000000E+00 0. -1.
        -12    1    4    4    0    0  0.47937678188E+01  0.52858154460E+02 -0.67649257442E+02  0.85984805258E+02  0.00000000000E+00 0.  1.
</event>
<event>
12    1  0.1628146E-001  0.1895369E+03  0.7818608E-02  0.1159218E+00
         21   -1    0    0  501  502  0.00000000000E+00  0.00000000000E+00  0.70026450683E+03  0.70026450683E+03  0.00000000000E+00 0.  1.
         21   -1    0    0  502  503 -0.00000000000E+00 -0.00000000000E+00 -0.74856048801E+02  0.74856048801E+02  0.00000000000E+00 0. -1.
         -6    2    1    2    0  503  0.54410726586E+02  0.62550018284E+02  0.94291484064E+02  0.21169578097E+03  0.17044408983E+03 0.  0.
        -24    2    3    3    0    0  0.47419069499E+02  0.60449531243E+02  0.12878912363E+03  0.17612230138E+03  0.92356443722E+02 0.  0.
          6    2    1    2  501    0 -0.54410726586E+02 -0.62550018284E+02  0.53111697396E+03  0.56342477466E+03  0.16878745424E+03 0.  0.
         24    2    5    5    0    0 -0.61981306058E+02  0.11537553734E+02  0.39805668628E+03  0.41086851566E+03  0.79931309391E+02 0.  0.
          5    1    5    5  501    0  0.75705794724E+01 -0.74087572017E+02  0.13306028769E+03  0.15255625900E+03  0.47000000000E+01 0. -1.
        -11    1    6    6    0    0  0.17086041848E+02  0.14094762015E+01  0.13253943795E+03  0.13364363831E+03  0.00000000000E+00 0.  1.
         12    1    6    6    0    0 -0.79067347906E+02  0.10128077532E+02  0.26551724833E+03  0.27722487735E+03  0.00000000000E+00 0. -1.
         -5    1    3    3    0  503  0.69916570861E+01  0.21004870408E+01 -0.34497639568E+02  0.35573479594E+02  0.47000000000E+01 0.  1.
         13    1    4    4    0    0 -0.27713046735E+02  0.94965996848E+01  0.29065896871E+02  0.41267720144E+02  0.00000000000E+00 0. -1.
        -14    1    4    4    0    0  0.75132116235E+02  0.50952931558E+02  0.99723226761E+02  0.13485458123E+03  0.00000000000E+00 0.  1.
</event>
<event>
12    1  0.1628146E-001  0.2002924E+03  0.7818608E-02  0.1149738E+00
         21   -1    0    0  503  502  0.00000000000E+00  0.00000000000E+00  0.53979445068E+03  0.53979445068E+03  0.00000000000E+00 0.  1.
         21   -1    0    0  501  503 -0.00000000000E+00 -0.00000000000E+00 -0.73939576860E+02  0.73939576860E+02  0.00000000000E+00 0. -1.
          6    2    1    2  501    0  0.31355870491E+02 -0.97006674894E+02  0.24033919001E+03  0.31211444462E+03  0.17105266645E+03 0.  0.
         24    2    3    3    0    0  0.58830462394E+02 -0.17299559970E+02  0.18392366299E+03  0.21056209822E+03  0.82147339098E+02 0.  0.
         -6    2    1    2    0  502 -0.31355870491E+02  0.97006674894E+02  0.22551568381E+03  0.30161958292E+03  0.17240523068E+03 0.  0.
        -24    2    5    5    0    0  0.23302192683E+02 -0.32004799139E+01  0.67975003548E+02  0.10701708118E+03  0.79239001140E+02 0.  0.
          5    1    3    3  501    0 -0.27474591903E+02 -0.79707114924E+02  0.56415527019E+02  0.10155234640E+03  0.47000000000E+01 0. -1.
        -13    1    4    4    0    0  0.32073672841E+01  0.26155311749E+02  0.23544861768E+02  0.35337629423E+02  0.00000000000E+00 0.  1.
         14    1    4    4    0    0  0.55623095110E+02 -0.43454871719E+02  0.16037880122E+03  0.17522446880E+03  0.00000000000E+00 0. -1.
         -5    1    5    5    0  502 -0.54658063174E+02  0.10020715481E+03  0.15754068027E+03  0.19460250174E+03  0.47000000000E+01 0.  1.
         13    1    6    6    0    0 -0.20144325346E+02 -0.12010035178E+01 -0.61310689253E+01  0.21090904657E+02  0.00000000000E+00 0. -1.
        -14    1    6    6    0    0  0.43446518029E+02 -0.19994763961E+01  0.74106072473E+02  0.85926176524E+02  0.00000000000E+00 0.  1.
</event>
<event>
12    1  0.1628146E-001  0.2720917E+03  0.7818608E-02  0.1100446E+00
         21   -1    0    0  503  502  0.00000000000E+00  0.00000000000E+00  0.18577477370E+03  0.18577477370E+03  0.00000000000E+00 0.  1.
         21   -1    0    0  501  503 -0.00000000000E+00 -0.00000000000E+00 -0.17240671069E+04  0.17240671069E+04  0.00000000000E+00 0. -1.
          6    2    1    2  501    0 -0.19517758272E+03  0.70636108952E+02 -0.16068002079E+04  0.16292581533E+04  0.17202172305E+03 0.  0.
         24    2    3    3    0    0 -0.11102359189E+03  0.59679402730E+02 -0.57742010502E+03  0.59637508642E+03  0.79758366028E+02 0.  0.
         -6    2    1    2    0  502  0.19517758272E+03 -0.70636108952E+02  0.68507874665E+02  0.28058372736E+03  0.17592654854E+03 0.  0.
        -24    2    5    5    0    0  0.68506985627E+02 -0.31903848079E+02 -0.32158817473E+02  0.11414604801E+03  0.79272114475E+02 0.  0.
          5    1    3    3  501    0 -0.84153990829E+02  0.10956706222E+02 -0.10293801029E+04  0.10328830668E+04  0.47000000000E+01 0. -1.
        -11    1    4    4    0    0 -0.30901869126E+01 -0.15432562592E+02 -0.37424515543E+02  0.40599354760E+02  0.00000000000E+00 0.  1.
         12    1    4    4    0    0 -0.10793340498E+03  0.75111965321E+02 -0.53999558948E+03  0.55577573166E+03  0.00000000000E+00 0. -1.
         -5    1    5    5    0  502  0.12667059709E+03 -0.38732260872E+02  0.10066669214E+03  0.16643767934E+03  0.47000000000E+01 0.  1.
         13    1    6    6    0    0  0.39222217832E+02 -0.55483590724E+02 -0.57293260342E+01  0.68188242301E+02  0.00000000000E+00 0. -1.
        -14    1    6    6    0    0  0.29284767795E+02  0.23579742645E+02 -0.26429491439E+02  0.45957805711E+02  0.00000000000E+00 0.  1.
</event>
<event>
12    1  0.1628146E-001  0.1750566E+03  0.7818608E-02  0.1172919E+00
         21   -1    0    0  501  502  0.00000000000E+00  0.00000000000E+00  0.40329262978E+02  0.40329262978E+02  0.00000000000E+00 0.  1.
         21   -1    0    0  502  503 -0.00000000000E+00 -0.00000000000E+00 -0.10160018561E+04  0.10160018561E+04  0.00000000000E+00 0. -1.
         -6    2    1    2    0  503  0.21004707098E+02 -0.19540828879E+02 -0.75418524854E+03  0.77401664667E+03  0.17170713003E+03 0.  0.
        -24    2    3    3    0    0  0.65352889934E+01  0.18845334475E+02 -0.70603270922E+03  0.71058464655E+03  0.77784939346E+02 0.  0.
          6    2    1    2  501    0 -0.21004707098E+02  0.19540828879E+02 -0.22148734459E+03  0.28231447241E+03  0.17268982542E+03 0.  0.
         24    2    5    5    0    0 -0.12884829070E+02  0.44824050092E+02 -0.42271464293E+02  0.10108093400E+03  0.79090228458E+02 0.  0.
          5    1    5    5  501    0 -0.81198780285E+01 -0.25283221214E+02 -0.17921588030E+03  0.18123353841E+03  0.47000000000E+01 0. -1.
        -11    1    6    6    0    0 -0.31342349844E+02  0.51522630866E+02 -0.69993699480E+01  0.60711741573E+02  0.00000000000E+00 0.  1.
         12    1    6    6    0    0  0.18457520775E+02 -0.66985807738E+01 -0.35272094345E+02  0.40369192425E+02  0.00000000000E+00 0. -1.
         -5    1    3    3    0  503  0.14469418105E+02 -0.38386163354E+02 -0.48152539320E+02  0.63432000128E+02  0.47000000000E+01 0.  1.
         13    1    4    4    0    0  0.35905433901E+02  0.22342222099E+02 -0.24651472365E+03  0.25011574130E+03  0.00000000000E+00 0. -1.
        -14    1    4    4    0    0 -0.29370144908E+02 -0.34968876247E+01 -0.45951798557E+03  0.46046890524E+03  0.00000000000E+00 0.  1.
</event>
<event>
12    1  0.1628146E-001  0.2158970E+03  0.7818608E-02  0.1137011E+00
         21   -1    0    0  503  502  0.00000000000E+00  0.00000000000E+00  0.67390662750E+02  0.67390662750E+02  0.00000000000E+00 0. -1.
         21   -1    0    0  501  503 -0.00000000000E+00 -0.00000000000E+00 -0.69119224357E+03  0.69119224357E+03  0.00000000000E+00 0. -1.
          6    2    1    2  501    0  0.10637251139E+03  0.74948147726E+02 -0.31546030015E+03  0.38217107169E+03  0.17206740259E+03 0.  0.
         24    2    3    3    0    0 -0.39414502705E+01 -0.41357467841E+01 -0.12171852267E+03  0.14556718573E+03  0.79635214372E+02 0.  0.
         -6    2    1    2    0  502 -0.10637251139E+03 -0.74948147726E+02 -0.30834128066E+03  0.37641183463E+03  0.17227648667E+03 0.  0.
        -24    2    5    5    0    0 -0.53120411063E+02 -0.10387209238E+03 -0.27100976312E+03  0.30508082478E+03  0.77568217046E+02 0.  0.
          5    1    3    3  501    0  0.11031396166E+03  0.79083894510E+02 -0.19374177748E+03  0.23660388596E+03  0.47000000000E+01 0. -1.
        -11    1    4    4    0    0 -0.29031546282E+02  0.19322680009E+01 -0.11537297658E+03  0.11898524305E+03  0.00000000000E+00 0.  1.
         12    1    4    4    0    0  0.25090096012E+02 -0.60680147849E+01 -0.63455460925E+01  0.26581942678E+02  0.00000000000E+00 0. -1.
         -5    1    5    5    0  502 -0.53252100330E+02  0.28923944657E+02 -0.37331517546E+02  0.71331009851E+02  0.47000000000E+01 0.  1.
         11    1    6    6    0    0 -0.27268686996E+02 -0.68931903341E+02 -0.79492014941E+02  0.10869300358E+03  0.00000000000E+00 0. -1.
        -12    1    6    6    0    0 -0.25851724067E+02 -0.34940189042E+02 -0.19151774817E+03  0.19638782119E+03  0.00000000000E+00 0.  1.
</event>
<event>
12    1  0.1628146E-001  0.1890158E+03  0.7818608E-02  0.1159355E+00
         21   -1    0    0  503  502  0.00000000000E+00  0.00000000000E+00  0.72686325202E+03  0.72686325202E+03  0.00000000000E+00 0. -1.
         21   -1    0    0  501  503 -0.00000000000E+00 -0.00000000000E+00 -0.17420700924E+03  0.17420700924E+03  0.00000000000E+00 0. -1.
          6    2    1    2  501    0 -0.65660882947E+02  0.42112516986E+02 -0.10539510195E+03  0.21641416410E+03  0.17216894979E+03 0.  0.
         24    2    3    3    0    0  0.14087075380E+02  0.29899103141E+01 -0.61331264591E+01  0.83127461879E+02  0.81640519486E+02 0.  0.
         -6    2    1    2    0  502  0.65660882947E+02 -0.42112516986E+02  0.65805134473E+03  0.68465609717E+03  0.17215569538E+03 0.  0.
        -24    2    5    5    0    0  0.31168606813E+02 -0.29802865269E+02  0.16533296596E+03  0.19055617264E+03  0.84362150697E+02 0.  0.
          5    1    3    3  501    0 -0.79747958327E+02  0.39122606672E+02 -0.99261975492E+02  0.13328670222E+03  0.47000000000E+01 0. -1.
        -13    1    4    4    0    0 -0.10341021800E+02  0.80460081492E+01  0.33683273608E+02  0.36141913341E+02  0.00000000000E+00 0.  1.
         14    1    4    4    0    0  0.24428097180E+02 -0.50560978351E+01 -0.39816400067E+02  0.46985548538E+02  0.00000000000E+00 0. -1.
         -5    1    5    5    0  502  0.34492276133E+02 -0.12309651717E+02  0.49271837877E+03  0.49409992453E+03  0.47000000000E+01 0.  1.
         13    1    6    6    0    0 -0.82740696126E+01 -0.49150545006E+02  0.10134736145E+03  0.11294035583E+03  0.00000000000E+00 0. -1.
        -14    1    6    6    0    0  0.39442676426E+02  0.19347679737E+02  0.63985604504E+02  0.77615816807E+02  0.00000000000E+00 0.  1.
</event>
<event>
12    1  0.1628146E-001  0.1826417E+03  0.7818608E-02  0.1165607E+00
         21   -1    0    0  503  502  0.00000000000E+00  0.00000000000E+00  0.68387783854E+03  0.68387783854E+03  0.00000000000E+00 0. -1.
         21   -1    0    0  501  503 -0.00000000000E+00 -0.00000000000E+00 -0.55187545607E+02  0.55187545607E+02  0.00000000000E+00 0. -1.
          6    2    1    2  501    0  0.49589503459E+02  0.34266606925E+02  0.18583265357E+03  0.26056049464E+03  0.17240845985E+03 0.  0.
         24    2    3    3    0    0 -0.34142519458E+02  0.41139108400E+02  0.70214137477E+02  0.11756394152E+03  0.77673144460E+02 0.  0.
         -6    2    1    2    0  502 -0.49589503459E+02 -0.34266606925E+02  0.44285763936E+03  0.47850488951E+03  0.17091144298E+03 0.  0.
        -24    2    5    5    0    0 -0.86510960818E+02  0.88533951392E+01  0.35086436596E+03  0.37030423820E+03  0.80354816817E+02 0.  0.
          5    1    3    3  501    0  0.83732022917E+02 -0.68725014742E+01  0.11561851609E+03  0.14299655311E+03  0.47000000000E+01 0. -1.
        -11    1    4    4    0    0 -0.35061135968E+02  0.46998219277E+02  0.84066540535E+02  0.10249536140E+03  0.00000000000E+00 0.  1.
         12    1    4    4    0    0  0.91861651002E+00 -0.58591108771E+01 -0.13852403058E+02  0.15068580127E+02  0.00000000000E+00 0. -1.
         -5    1    5    5    0  502  0.36921457359E+02 -0.43120002065E+02  0.91993273406E+02  0.10820065131E+03  0.47000000000E+01 0.  1.
         13    1    6    6    0    0 -0.81409742397E+02 -0.18809312605E+02  0.19855554847E+03  0.21541968858E+03  0.00000000000E+00 0. -1.
        -14    1    6    6    0    0 -0.51012184216E+01  0.27662707744E+02  0.15230881749E+03  0.15488454963E+03  0.00000000000E+00 0.  1.
</event>
<event>
12    1  0.1628146E-001  0.1937708E+03  0.7818608E-02  0.1155365E+00
         21   -1    0    0  503  502  0.00000000000E+00  0.00000000000E+00  0.32035420808E+03  0.32035420808E+03  0.00000000000E+00 0.  1.
         21   -1    0    0  501  503 -0.00000000000E+00 -0.00000000000E+00 -0.13820809975E+03  0.13820809975E+03  0.00000000000E+00 0.  1.
          6    2    1    2  501    0  0.49879613662E+02  0.72340249516E+02 -0.51651944616E-01  0.19258644805E+03  0.17137225489E+03 0.  0.
         24    2    3    3    0    0  0.97170544423E+02  0.37045825251E+02 -0.13787312806E+02  0.13181732023E+03  0.79819847451E+02 0.  0.
         -6    2    1    2    0  502 -0.49879613662E+02 -0.72340249516E+02  0.18219776027E+03  0.26597585978E+03  0.17270219043E+03 0.  0.
        -24    2    5    5    0    0 -0.95257994375E+02 -0.31572877014E+02  0.10309589131E+03  0.16597400095E+03  0.82750674506E+02 0.  0.
          5    1    3    3  501    0 -0.47290930761E+02  0.35294424265E+02  0.13735660861E+02  0.60769127818E+02  0.47000000000E+01 0. -1.
        -13    1    4    4    0    0  0.63936394520E+02  0.50496844011E+02 -0.36606239583E+02  0.89318590314E+02  0.00000000000E+00 0.  1.
         14    1    4    4    0    0  0.33234149903E+02 -0.13451018760E+02  0.22818926777E+02  0.42498729919E+02  0.00000000000E+00 0. -1.
         -5    1    5    5    0  502  0.45378380714E+02 -0.40767372502E+02  0.79101868958E+02  0.10000185883E+03  0.47000000000E+01 0.  1.
         11    1    6    6    0    0 -0.30816656676E+02  0.25007365988E+02  0.13419993749E+02  0.41894282600E+02  0.00000000000E+00 0. -1.
        -12    1    6    6    0    0 -0.64441337699E+02 -0.56580243002E+02  0.89675897560E+02  0.12407971835E+03  0.00000000000E+00 0.  1.
</event>
<event>
12    1  0.1628146E-001  0.1748340E+03  0.7818608E-02  0.1173166E+00
         21   -1    0    0  503  502  0.00000000000E+00  0.00000000000E+00  0.10057754409E+03  0.10057754409E+03  0.00000000000E+00 0.  1.
         21   -1    0    0  501  503 -0.00000000000E+00 -0.00000000000E+00 -0.41914963357E+03  0.41914963357E+03  0.00000000000E+00 0.  1.
          6    2    1    2  501    0  0.24931834899E+02 -0.18509930284E+02 -0.21598571652E+02  0.17511117758E+03  0.17097722745E+03 0.  0.
         24    2    3    3    0    0 -0.50036643693E+02  0.18683183080E+02 -0.57302050832E+01  0.89802939280E+02  0.71965308385E+02 0.  0.
         -6    2    1    2    0  502 -0.24931834899E+02  0.18509930284E+02 -0.29697351782E+03  0.34461600008E+03  0.17205436150E+03 0.  0.
        -24    2    5    5    0    0  0.44732278358E+01 -0.26757465777E+02 -0.27261456517E+03  0.28520856422E+03  0.79304805787E+02 0.  0.
          5    1    3    3  501    0  0.74968478592E+02 -0.37193113364E+02 -0.15868366568E+02  0.85308238299E+02  0.47000000000E+01 0. -1.
        -13    1    4    4    0    0 -0.10873763760E+02  0.12592001139E+02  0.31373502077E+02  0.35511883414E+02  0.00000000000E+00 0.  1.
         14    1    4    4    0    0 -0.39162879933E+02  0.60911819412E+01 -0.37103707160E+02  0.54291055867E+02  0.00000000000E+00 0. -1.
         -5    1    5    5    0  502 -0.29405062735E+02  0.45267396061E+02 -0.24358952653E+02  0.59407435855E+02  0.47000000000E+01 0.  1.
         13    1    6    6    0    0 -0.10547878089E+02  0.24946277802E+02 -0.59109693251E+02  0.65019461276E+02  0.00000000000E+00 0. -1.
        -14    1    6    6    0    0  0.15021105925E+02 -0.51703743579E+02 -0.21350487192E+03  0.22018910295E+03  0.00000000000E+00 0.  1.
</event>
<event>
12    1  0.1628146E-001  0.2514928E+03  0.7818608E-02  0.1112433E+00
         21   -1    0    0  501  502  0.00000000000E+00  0.00000000000E+00  0.32550335372E+03  0.32550335372E+03  0.00000000000E+00 0. -1.
         21   -1    0    0  502  503 -0.00000000000E+00 -0.00000000000E+00 -0.65068211031E+03  0.65068211031E+03  0.00000000000E+00 0.  1.
         -6    2    1    2    0  503 -0.24460408000E+02 -0.18124203949E+03 -0.57146615723E+03  0.62418243264E+03  0.17199753465E+03 0.  0.
        -24    2    3    3    0    0 -0.76827736385E+02 -0.87517301963E+02 -0.36193694167E+03  0.38870155087E+03  0.80800783941E+02 0.  0.
          6    2    1    2  501    0  0.24460408000E+02  0.18124203949E+03  0.24628740065E+03  0.35200303138E+03  0.17263157865E+03 0.  0.
         24    2    5    5    0    0  0.33085189277E+02  0.20659442407E+03  0.22501619207E+03  0.31748224677E+03  0.79917485657E+02 0.  0.
          5    1    5    5  501    0 -0.86247812765E+01 -0.25352384582E+02  0.21271208573E+02  0.34520784612E+02  0.47000000000E+01 0. -1.
        -11    1    6    6    0    0 -0.11118313816E+02  0.54638289800E+02  0.21692540528E+02  0.59829139463E+02  0.00000000000E+00 0.  1.
         12    1    6    6    0    0  0.44203503093E+02  0.15195613427E+03  0.20332365154E+03  0.25765310731E+03  0.00000000000E+00 0. -1.
         -5    1    3    3    0  503  0.52367328385E+02 -0.93724737526E+02 -0.20952921556E+03  0.23548088177E+03  0.47000000000E+01 0.  1.
         11    1    4    4    0    0 -0.49060049202E+02  0.87058329367E+00 -0.12890616555E+03  0.13792913347E+03  0.00000000000E+00 0. -1.
        -12    1    4    4    0    0 -0.27767687184E+02 -0.88387885256E+02 -0.23303077612E+03  0.25077241740E+03  0.00000000000E+00 0.  1.
</event>
<event>
12    1  0.1628146E-001  0.2234869E+03  0.7818608E-02  0.1133911E+00
         21   -1    0    0  501  502  0.00000000000E+00  0.00000000000E+00  0.42602966060E+02  0.42602966060E+02  0.00000000000E+00 0.  1.
         21   -1    0    0  502  503 -0.00000000000E+00 -0.00000000000E+00 -0.11992616162E+04  0.11992616162E+04  0.00000000000E+00 0. -1.
         -6    2    1    2    0  503 -0.11554228889E+03  0.28696961211E+02 -0.73887794196E+03  0.76806388028E+03  0.17264986233E+03 0.  0.
        -24    2    3    3    0    0 -0.11363994368E+03  0.66412653292E+02 -0.68483140765E+03  0.70196387863E+03  0.80215663563E+02 0.  0.
          6    2    1    2  501    0  0.11554228889E+03 -0.28696961211E+02 -0.41778070813E+03  0.47380070194E+03  0.18913711684E+03 0.  0.
         24    2    5    5    0    0  0.69516454555E+02  0.42949434063E+02 -0.12888370335E+03  0.17257793926E+03  0.80591220306E+02 0.  0.
          5    1    5    5  501    0  0.46025834335E+02 -0.71646395274E+02 -0.28889700479E+03  0.30122276268E+03  0.47000000000E+01 0. -1.
        -11    1    6    6    0    0  0.33521061552E+02  0.36296305802E+02 -0.13055351463E+02  0.51103087816E+02  0.00000000000E+00 0.  1.
         12    1    6    6    0    0  0.35995393003E+02  0.66531282609E+01 -0.11582835189E+03  0.12147485144E+03  0.00000000000E+00 0. -1.
         -5    1    3    3    0  503 -0.19023452089E+01 -0.37715692081E+02 -0.54046534314E+02  0.66100001647E+02  0.47000000000E+01 0.  1.
         11    1    4    4    0    0 -0.64237597147E+02  0.62301690419E+02 -0.27616426356E+03  0.29030099894E+03  0.00000000000E+00 0. -1.
        -12    1    4    4    0    0 -0.49402346535E+02  0.41109628732E+01 -0.40866714409E+03  0.41166287969E+03  0.00000000000E+00 0.  1.
</event>
<event>
12    1  0.1628146E-001  0.2563065E+03  0.7818608E-02  0.1109615E+00
         21   -1    0    0  501  502  0.00000000000E+00  0.00000000000E+00  0.42894257303E+03  0.42894257303E+03  0.00000000000E+00 0. -1.
         21   -1    0    0  502  503 -0.00000000000E+00 -0.00000000000E+00 -0.27592032149E+03  0.27592032149E+03  0.00000000000E+00 0. -1.
         -6    2    1    2    0  503 -0.92521133856E+02  0.16417852938E+03 -0.15931213424E+03  0.30178369714E+03  0.17371900882E+03 0.  0.
        -24    2    3    3    0    0 -0.13137633418E+03  0.14602174739E+03 -0.14441079878E+03  0.25613794024E+03  0.78549816913E+02 0.  0.
          6    2    1    2  501    0  0.92521133856E+02 -0.16417852938E+03  0.31233438577E+03  0.40307919738E+03  0.17147979794E+03 0.  0.
         24    2    5    5    0    0  0.11192855478E+03 -0.16571178002E+03  0.21683876508E+03  0.30550613544E+03  0.79539633740E+02 0.  0.
          5    1    5    5  501    0 -0.19407420926E+02  0.15332506385E+01  0.95495620690E+02  0.97573061936E+02  0.47000000000E+01 0. -1.
        -11    1    6    6    0    0  0.87049248301E+02 -0.63519024670E+02  0.87573935730E+02  0.13885759736E+03  0.00000000000E+00 0.  1.
         12    1    6    6    0    0  0.24879306481E+02 -0.10219275535E+03  0.12926482935E+03  0.16664853808E+03  0.00000000000E+00 0. -1.
         -5    1    3    3    0  503  0.38855200320E+02  0.18156781998E+02 -0.14901335460E+02  0.45645756899E+02  0.47000000000E+01 0.  1.
         13    1    4    4    0    0 -0.59791897357E+02  0.67651874090E+02 -0.11459043226E+03  0.14588630581E+03  0.00000000000E+00 0. -1.
        -14    1    4    4    0    0 -0.71584436819E+02  0.78369873296E+02 -0.29820366511E+02  0.11025163443E+03  0.00000000000E+00 0.  1.
</event>
<event>
12    1  0.1628146E-001  0.1817116E+03  0.7818608E-02  0.1167736E+00
         21   -1    0    0  501  502  0.00000000000E+00  0.00000000000E+00  0.89838007374E+03  0.89838007374E+03  0.00000000000E+00 0.  1.
         21   -1    0    0  502  503 -0.00000000000E+00 -0.00000000000E+00 -0.59844808545E+02  0.59844808545E+02  0.00000000000E+00 0.  1.
         -6    2    1    2    0  503  0.32455357703E+02 -0.22240592464E+02  0.11794330853E+03  0.21663272299E+03  0.17740101027E+03 0.  0.
        -24    2    3    3    0    0  0.59573455302E+00 -0.21877337262E+02 -0.19877775129E+02  0.75098597621E+02  0.69034054171E+02 0.  0.
          6    2    1    2  501    0 -0.32455357703E+02  0.22240592464E+02  0.72059195666E+03  0.74159215929E+03  0.17075763095E+03 0.  0.
         24    2    5    5    0    0 -0.60155296606E+02 -0.37873935758E+02  0.50264830976E+03  0.51377081187E+03  0.79069773646E+02 0.  0.
          5    1    5    5  501    0  0.27699938903E+02  0.60114528222E+02  0.21794364690E+03  0.22782134742E+03  0.47000000000E+01 0. -1.
        -11    1    6    6    0    0 -0.54945982424E+02 -0.44770700334E+02  0.22307533488E+03  0.23406426815E+03  0.00000000000E+00 0.  1.
         12    1    6    6    0    0 -0.52093141819E+01  0.68967645752E+01  0.27957297488E+03  0.27970654372E+03  0.00000000000E+00 0. -1.
         -5    1    3    3    0  503  0.31859623150E+02 -0.36325520209E+00  0.13782108366E+03  0.14153412537E+03  0.47000000000E+01 0.  1.
         11    1    4    4    0    0 -0.85016082650E+01 -0.24025475693E+02  0.21088705600E+02  0.33079212947E+02  0.00000000000E+00 0. -1.
        -12    1    4    4    0    0  0.90973428180E+01  0.21481384309E+01 -0.40966480729E+02  0.42019384674E+02  0.00000000000E+00 0.  1.
</event>
<event>
12    1  0.1628146E-001  0.1930324E+03  0.7818608E-02  0.1155756E+00
         21   -1    0    0  503  502  0.00000000000E+00  0.00000000000E+00  0.37876216744E+03  0.37876216744E+03  0.00000000000E+00 0. -1.
         21   -1    0    0  501  503 -0.00000000000E+00 -0.00000000000E+00 -0.10314731013E+03  0.10314731013E+03  0.00000000000E+00 0.  1.
          6    2    1    2  501    0 -0.21617850202E+02  0.84931982060E+02  0.18965176624E+03  0.27060913700E+03  0.17199052173E+03 0.  0.
         24    2    3    3    0    0 -0.13054092339E+02  0.11673170575E+03  0.11122041807E+03  0.18541449660E+03  0.90619278862E+02 0.  0.
         -6    2    1    2    0  502  0.21617850202E+02 -0.84931982060E+02  0.85963091069E+02  0.21130034057E+03  0.17198083578E+03 0.  0.
        -24    2    5    5    0    0 -0.10890287853E+02 -0.39839486708E+02 -0.15197060131E+02  0.95777276348E+02  0.85067931428E+02 0.  0.
          5    1    3    3  501    0 -0.85637578627E+01 -0.31799723693E+02  0.78431348177E+02  0.85194640398E+02  0.47000000000E+01 0. -1.
        -11    1    4    4    0    0 -0.22157886607E+02  0.91378003226E+01 -0.73263045172E+01  0.25062842447E+02  0.00000000000E+00 0.  1.
         12    1    4    4    0    0  0.91037942676E+01  0.10759390543E+03  0.11854672258E+03  0.16035165416E+03  0.00000000000E+00 0. -1.
         -5    1    5    5    0  502  0.32508138055E+02 -0.45092495352E+02  0.10116015120E+03  0.11552306422E+03  0.47000000000E+01 0.  1.
         11    1    6    6    0    0 -0.11988437542E+02  0.14000209371E+02  0.23206312051E+02  0.29635475635E+02  0.00000000000E+00 0. -1.
        -12    1    6    6    0    0  0.10981496891E+01 -0.53839696079E+02 -0.38403372182E+02  0.66141800713E+02  0.00000000000E+00 0.  1.
</event>
<event>
12    1  0.1628146E-001  0.2374607E+03  0.7818608E-02  0.1121911E+00
         21   -1    0    0  501  502  0.00000000000E+00  0.00000000000E+00  0.42441137676E+03  0.42441137676E+03  0.00000000000E+00 0. -1.
         21   -1    0    0  502  503 -0.00000000000E+00 -0.00000000000E+00 -0.13229391549E+03  0.13229391549E+03  0.00000000000E+00 0. -1.
         -6    2    1    2    0  503 -0.49840684506E+02 -0.15537065250E+03  0.12518464294E+03  0.26843764263E+03  0.17252083834E+03 0.  0.
        -24    2    3    3    0    0  0.38797142526E+02 -0.94008360032E+02  0.66802017683E+02  0.14574853859E+03  0.80233016334E+02 0.  0.
          6    2    1    2  501    0  0.49840684506E+02  0.15537065250E+03  0.16693281833E+03  0.28826764962E+03  0.16913763179E+03 0.  0.
         24    2    5    5    0    0  0.67507853525E+02  0.16433150704E+03  0.17882192456E+03  0.26469082578E+03  0.80757650124E+02 0.  0.
          5    1    5    5  501    0 -0.17667169019E+02 -0.89608545403E+01 -0.11889106232E+02  0.23576823837E+02  0.47000000000E+01 0. -1.
        -11    1    6    6    0    0  0.37488029779E+02  0.62634111820E+02  0.23614685732E+02  0.76720516959E+02  0.00000000000E+00 0.  1.
         12    1    6    6    0    0  0.30019823746E+02  0.10169739522E+03  0.15520723883E+03  0.18797030882E+03  0.00000000000E+00 0. -1.
         -5    1    3    3    0  503 -0.88637827033E+02 -0.61362292467E+02  0.58382625259E+02  0.12268910404E+03  0.47000000000E+01 0.  1.
         11    1    4    4    0    0  0.17971105286E+02 -0.10306606155E+03  0.43785777488E+02  0.11341414364E+03  0.00000000000E+00 0. -1.
        -12    1    4    4    0    0  0.20826037240E+02  0.90577015137E+01  0.23016240195E+02  0.32334394947E+02  0.00000000000E+00 0.  1.
</event>
<event>
12    1  0.1628146E-001  0.1903912E+03  0.7818608E-02  0.1158774E+00
         21   -1    0    0  501  502  0.00000000000E+00  0.00000000000E+00  0.77655436967E+02  0.77655436967E+02  0.00000000000E+00 0. -1.
         21   -1    0    0  502  503 -0.00000000000E+00 -0.00000000000E+00 -0.49517331982E+03  0.49517331982E+03  0.00000000000E+00 0. -1.
         -6    2    1    2    0  503 -0.60154981932E+02 -0.54274577799E+02 -0.28700323173E+03  0.34441205560E+03  0.17229177974E+03 0.  0.
        -24    2    3    3    0    0 -0.10083005422E+03 -0.97946494614E+01 -0.17590834775E+03  0.21793245733E+03  0.79298008536E+02 0.  0.
          6    2    1    2  501    0  0.60154981932E+02  0.54274577799E+02 -0.13051465112E+03  0.22841670119E+03  0.16904367359E+03 0.  0.
         24    2    5    5    0    0  0.87385393147E+02  0.56422211108E+02 -0.14642640250E+03  0.19645764214E+03  0.79594226948E+02 0.  0.
          5    1    5    5  501    0 -0.27230411216E+02 -0.21476333085E+01  0.15911751378E+02  0.31959059056E+02  0.47000000000E+01 0. -1.
        -11    1    6    6    0    0  0.22809497447E+02  0.61570120340E+02 -0.64819689937E+02  0.92264538670E+02  0.00000000000E+00 0.  1.
         12    1    6    6    0    0  0.64575895701E+02 -0.51479092318E+01 -0.81606712563E+02  0.10419310347E+03  0.00000000000E+00 0. -1.
         -5    1    3    3    0  503  0.40675072286E+02 -0.44479928338E+02 -0.11109488398E+03  0.12647959826E+03  0.47000000000E+01 0.  1.
         11    1    4    4    0    0 -0.29298759918E+02  0.32503769442E+02 -0.44191748825E+02  0.62191824421E+02  0.00000000000E+00 0. -1.
        -12    1    4    4    0    0 -0.71531294300E+02 -0.42298418904E+02 -0.13171659893E+03  0.15574063291E+03  0.00000000000E+00 0.  1.
</event>
<event>
12    1  0.1628146E-001  0.2619147E+03  0.7818608E-02  0.1106061E+00
         21   -1    0    0  503  502  0.00000000000E+00  0.00000000000E+00  0.58592492928E+03  0.58592492928E+03  0.00000000000E+00 0.  1.
         21   -1    0    0  501  503 -0.00000000000E+00 -0.00000000000E+00 -0.11701195597E+03  0.11701195597E+03  0.00000000000E+00 0. -1.
          6    2    1    2  501    0 -0.11672180578E+02 -0.19641878243E+03  0.24592384329E+03  0.35927407923E+03  0.17286627611E+03 0.  0.
         24    2    3    3    0    0 -0.39940852441E+02 -0.29657578994E+02  0.95219580990E+02  0.13268572680E+03  0.77870981807E+02 0.  0.
         -6    2    1    2    0  502  0.11672180578E+02  0.19641878243E+03  0.22298913001E+03  0.34366280602E+03  0.17223064258E+03 0.  0.
        -24    2    5    5    0    0  0.45938418898E+02  0.16700692686E+03  0.22870124715E+03  0.29790310083E+03  0.80251760633E+02 0.  0.
          5    1    3    3  501    0  0.28268671862E+02 -0.16676120344E+03  0.15070426230E+03  0.22658835243E+03  0.47000000000E+01 0. -1.
        -13    1    4    4    0    0 -0.54657971632E+01  0.25207905075E+02  0.39766185874E+02  0.47398976317E+02  0.00000000000E+00 0.  1.
         14    1    4    4    0    0 -0.34475055278E+02 -0.54865484068E+02  0.55453395116E+02  0.85286750485E+02  0.00000000000E+00 0. -1.
         -5    1    5    5    0  502 -0.34266238319E+02  0.29411855576E+02 -0.57121171397E+01  0.45759705192E+02  0.47000000000E+01 0.  1.
         13    1    6    6    0    0  0.59129545672E+01 -0.24218323419E+01 -0.38094094599E+01  0.74390795156E+01  0.00000000000E+00 0. -1.
        -14    1    6    6    0    0  0.40025464331E+02  0.16942875920E+03  0.23251065661E+03  0.29046402131E+03  0.00000000000E+00 0.  1.
</event>
<event>
12    1  0.1628146E-001  0.2180042E+03  0.7818608E-02  0.1135791E+00
         21   -1    0    0  503  502  0.00000000000E+00  0.00000000000E+00  0.24727318163E+03  0.24727318163E+03  0.00000000000E+00 0. -1.
         21   -1    0    0  501  503 -0.00000000000E+00 -0.00000000000E+00 -0.39025262539E+03  0.39025262539E+03  0.00000000000E+00 0.  1.
          6    2    1    2  501    0 -0.21242475466E+02 -0.13000504654E+03 -0.29948747349E+03  0.36915930153E+03  0.17097744950E+03 0.  0.
         24    2    3    3    0    0 -0.30896069336E+02 -0.11718688315E+03 -0.31472256085E+03  0.34653862351E+03  0.79695637234E+02 0.  0.
         -6    2    1    2    0  502  0.21242475466E+02  0.13000504654E+03  0.15650802972E+03  0.26836650549E+03  0.17370452790E+03 0.  0.
        -24    2    5    5    0    0  0.54110787043E+02  0.94269710999E+02  0.37633104255E+02  0.13987262230E+03  0.79582311148E+02 0.  0.
          5    1    3    3  501    0  0.96535938699E+01 -0.12818163387E+02  0.15235087358E+02  0.22620678019E+02  0.47000000000E+01 0. -1.
        -11    1    4    4    0    0 -0.43510253424E+02 -0.77365012584E+02 -0.13176190880E+03  0.15887003473E+03  0.00000000000E+00 0.  1.
         12    1    4    4    0    0  0.12614184088E+02 -0.39821870564E+02 -0.18296065205E+03  0.18766858878E+03  0.00000000000E+00 0. -1.
         -5    1    5    5    0  502 -0.32868311576E+02  0.35735335537E+02  0.11887492547E+03  0.12849388319E+03  0.47000000000E+01 0.  1.
         13    1    6    6    0    0 -0.10628233946E+02  0.41128173349E+02 -0.98311974614E+01  0.43602046321E+02  0.00000000000E+00 0. -1.
        -14    1    6    6    0    0  0.64739020989E+02  0.53141537650E+02  0.47464301716E+02  0.96270575981E+02  0.00000000000E+00 0.  1.
</event>
<event>
12    1  0.1628146E-001  0.1900594E+03  0.7818608E-02  0.1158737E+00
         21   -1    0    0  501  502  0.00000000000E+00  0.00000000000E+00  0.68877817744E+02  0.68877817744E+02  0.00000000000E+00 0.  1.
         21   -1    0    0  502  503 -0.00000000000E+00 -0.00000000000E+00 -0.87620247138E+03  0.87620247138E+03  0.00000000000E+00 0. -1.
         -6    2    1    2    0  503 -0.22805744925E+02 -0.77773373739E+02 -0.70384414220E+03  0.72867608699E+03  0.17030403277E+03 0.  0.
        -24    2    3    3    0    0  0.50926838416E+02 -0.61417956737E+02 -0.51008811421E+03  0.52066771722E+03  0.67374173211E+02 0.  0.
          6    2    1    2  501    0  0.22805744925E+02  0.77773373739E+02 -0.10348051144E+03  0.21640420214E+03  0.17191207866E+03 0.  0.
         24    2    5    5    0    0 -0.36730466036E+02  0.72629937714E+02 -0.93733422592E+02  0.15567438170E+03  0.93937871053E+02 0.  0.
          5    1    5    5  501    0  0.59536210961E+02  0.51434360253E+01 -0.97470888444E+01  0.60729820440E+02  0.47000000000E+01 0. -1.
        -13    1    6    6    0    0  0.17555589411E+02  0.32599632670E+02  0.36587971455E+01  0.37206472103E+02  0.00000000000E+00 0.  1.
         14    1    6    6    0    0 -0.54286055447E+02  0.40030305044E+02 -0.97392219737E+02  0.11846790959E+03  0.00000000000E+00 0. -1.
         -5    1    3    3    0  503 -0.73732583341E+02 -0.16355417002E+02 -0.19375602798E+03  0.20800836976E+03  0.47000000000E+01 0.  1.
         13    1    4    4    0    0  0.78093788595E+01 -0.55523957687E+02 -0.36203424117E+03  0.36635049891E+03  0.00000000000E+00 0. -1.
        -14    1    4    4    0    0  0.43117459557E+02 -0.58939990508E+01 -0.14805387305E+03  0.15431721831E+03  0.00000000000E+00 0.  1.
</event>
<event>
12    1  0.1628146E-001  0.1753195E+03  0.7818608E-02  0.1173289E+00
         21   -1    0    0  501  502  0.00000000000E+00  0.00000000000E+00  0.95017240706E+02  0.95017240706E+02  0.00000000000E+00 0.  1.
         21   -1    0    0  502  503 -0.00000000000E+00 -0.00000000000E+00 -0.52765102378E+03  0.52765102378E+03  0.00000000000E+00 0.  1.
         -6    2    1    2    0  503 -0.18175526906E+02  0.29376410297E+02 -0.41426756067E+03  0.44983836526E+03  0.17188257556E+03 0.  0.
        -24    2    3    3    0    0 -0.39817570825E+01  0.39322404635E+02 -0.11502171273E+03  0.15005418720E+03  0.87887193623E+02 0.  0.
          6    2    1    2  501    0  0.18175526906E+02 -0.29376410297E+02 -0.18366222407E+02  0.17282989922E+03  0.16834349610E+03 0.  0.
         24    2    5    5    0    0  0.29891890933E+02 -0.79063264081E+02  0.10690412847E+02  0.11390253141E+03  0.75597465994E+02 0.  0.
          5    1    5    5  501    0 -0.11716364027E+02  0.49686853783E+02 -0.29056635254E+02  0.58927367812E+02  0.47000000000E+01 0. -1.
        -11    1    6    6    0    0  0.31635496804E+02 -0.45463857670E+02  0.40768055358E+02  0.68773551238E+02  0.00000000000E+00 0.  1.
         12    1    6    6    0    0 -0.17436058710E+01 -0.33599406410E+02 -0.30077642510E+02  0.45128980174E+02  0.00000000000E+00 0. -1.
         -5    1    3    3    0  503 -0.14193769823E+02 -0.99459943373E+01 -0.29924584794E+03  0.29978417806E+03  0.47000000000E+01 0.  1.
         13    1    4    4    0    0 -0.27855781612E+02  0.57755981431E+02 -0.91851717671E+02  0.11201980182E+03  0.00000000000E+00 0. -1.
        -14    1    4    4    0    0  0.23874024530E+02 -0.18433576796E+02 -0.23169995058E+02  0.38034385387E+02  0.00000000000E+00 0.  1.
</event>
<event>
12    1  0.1628146E-001  0.2844993E+03  0.7818608E-02  0.1093516E+00
         21   -1    0    0  501  502  0.00000000000E+00  0.00000000000E+00  0.27383128402E+03  0.27383128402E+03  0.00000000000E+00 0.  1.
         21   -1    0    0  502  503 -0.00000000000E+00 -0.00000000000E+00 -0.40496155145E+03  0.40496155145E+03  0.00000000000E+00 0. -1.
         -6    2    1    2    0  503 -0.21225418208E+03  0.79298104652E+02 -0.24339890233E+03  0.37294305379E+03  0.16882970267E+03 0.  0.
        -24    2    3    3    0    0 -0.21230033058E+03  0.49800581857E+02 -0.25115476053E+03  0.34208289635E+03  0.79940389821E+02 0.  0.
          6    2    1    2  501    0  0.21225418208E+03 -0.79298104652E+02  0.11226863490E+03  0.30584978168E+03  0.17204596874E+03 0.  0.
         24    2    5    5    0    0  0.14943182057E+03 -0.65376676001E+02  0.14607448772E+03  0.23301173554E+03  0.79704041124E+02 0.  0.
          5    1    5    5  501    0  0.62822361508E+02 -0.13921428650E+02 -0.33805852819E+02  0.72838046143E+02  0.47000000000E+01 0. -1.
        -11    1    6    6    0    0  0.15207399193E+03 -0.71702166922E+02  0.12133489415E+03  0.20733995347E+03  0.00000000000E+00 0.  1.
         12    1    6    6    0    0 -0.26421713632E+01  0.63254909208E+01  0.24739593566E+02  0.25671782072E+02  0.00000000000E+00 0. -1.
         -5    1    3    3    0  503  0.46148504264E-01  0.29497522794E+02  0.77558581930E+01  0.30860157436E+02  0.47000000000E+01 0.  1.
         11    1    4    4    0    0 -0.94168166744E+02 -0.15222098585E+02 -0.12660522576E+03  0.15851889194E+03  0.00000000000E+00 0. -1.
        -12    1    4    4    0    0 -0.11813216384E+03  0.65022680442E+02 -0.12454953477E+03  0.18356400441E+03  0.00000000000E+00 0.  1.
</event>
<event>
12    1  0.1628146E-001  0.2947761E+03  0.7818608E-02  0.1087884E+00
         21   -1    0    0  503  502  0.00000000000E+00  0.00000000000E+00  0.32441890958E+03  0.32441890958E+03  0.00000000000E+00 0. -1.
         21   -1    0    0  501  503 -0.00000000000E+00 -0.00000000000E+00 -0.28365244451E+03  0.28365244451E+03  0.00000000000E+00 0.  1.
          6    2    1    2  501    0  0.85882681048E+02  0.22353045596E+03 -0.51433617288E+02  0.29921246216E+03  0.17187489892E+03 0.  0.
         24    2    3    3    0    0  0.23220447593E+02  0.10999155565E+03 -0.92518987127E+02  0.16309583937E+03  0.73506178925E+02 0.  0.
         -6    2    1    2    0  502 -0.85882681048E+02 -0.22353045596E+03  0.92200082357E+02  0.30885889194E+03  0.17190480011E+03 0.  0.
        -24    2    5    5    0    0  0.55127540375E+01 -0.15559285919E+03  0.10255564310E+03  0.19441252788E+03  0.55127513788E+02 0.  0.
          5    1    3    3  501    0  0.62662233455E+02  0.11353890030E+03  0.41085369839E+02  0.13611662278E+03  0.47000000000E+01 0. -1.
        -11    1    4    4    0    0  0.40273918804E+02  0.37851767353E+02 -0.18355919549E+02  0.58238171418E+02  0.00000000000E+00 0.  1.
         12    1    4    4    0    0 -0.17053471211E+02  0.72139788302E+02 -0.74163067578E+02  0.10485766796E+03  0.00000000000E+00 0. -1.
         -5    1    5    5    0  502 -0.91395435085E+02 -0.67937596767E+02 -0.10355560742E+02  0.11444636406E+03  0.47000000000E+01 0.  1.
         13    1    6    6    0    0 -0.20249166589E+02 -0.91276000791E+02  0.42411887841E+02  0.10266501497E+03  0.00000000000E+00 0. -1.
        -14    1    6    6    0    0  0.25761920627E+02 -0.64316858397E+02  0.60143755259E+02  0.91747512909E+02  0.00000000000E+00 0.  1.
</event>
<event>
12    1  0.1628146E-001  0.4478630E+03  0.7818608E-02  0.1029073E+00
         21   -1    0    0  501  502  0.00000000000E+00  0.00000000000E+00  0.54607863757E+03  0.54607863757E+03  0.00000000000E+00 0. -1.
         21   -1    0    0  502  503 -0.00000000000E+00 -0.00000000000E+00 -0.45122759291E+03  0.45122759291E+03  0.00000000000E+00 0.  1.
         -6    2    1    2    0  503 -0.29662308393E+03 -0.27357321285E+03 -0.17759677147E+03  0.47308385411E+03  0.17158135994E+03 0.  0.
        -24    2    3    3    0    0 -0.15213913838E+03 -0.12714528177E+03 -0.15874503947E+03  0.26645803937E+03  0.80546005997E+02 0.  0.
          6    2    1    2  501    0  0.29662308393E+03  0.27357321285E+03  0.27244781612E+03  0.52422237636E+03  0.19430319262E+03 0.  0.
         24    2    5    5    0    0  0.58591650490E+02  0.21673771114E+02  0.40103530365E+02  0.10694758779E+03  0.76985450092E+02 0.  0.
          5    1    5    5  501    0  0.23803143344E+03  0.25189944174E+03  0.23234428576E+03  0.41727478857E+03  0.47000000000E+01 0. -1.
        -11    1    6    6    0    0  0.28730084148E+02  0.23202822128E+02 -0.18389787389E+02  0.41254975095E+02  0.00000000000E+00 0.  1.
         12    1    6    6    0    0  0.29861566342E+02 -0.15290510145E+01  0.58493317754E+02  0.65692612700E+02  0.00000000000E+00 0. -1.
         -5    1    3    3    0  503 -0.14448394554E+03 -0.14642793108E+03 -0.18851731995E+02  0.20662581475E+03  0.47000000000E+01 0.  1.
         13    1    4    4    0    0 -0.14653683401E+03 -0.80902074402E+02 -0.12200451599E+03  0.20713109686E+03  0.00000000000E+00 0. -1.
        -14    1    4    4    0    0 -0.56023043769E+01 -0.46243207364E+02 -0.36740523485E+02  0.59326942511E+02  0.00000000000E+00 0.  1.
</event>
<event>
12    1  0.1628146E-001  0.2140787E+03  0.7818608E-02  0.1138659E+00
         21   -1    0    0  503  502  0.00000000000E+00  0.00000000000E+00  0.38857923556E+02  0.38857923556E+02  0.00000000000E+00 0. -1.
         21   -1    0    0  501  503 -0.00000000000E+00 -0.00000000000E+00 -0.11740483919E+04  0.11740483919E+04  0.00000000000E+00 0. -1.
          6    2    1    2  501    0 -0.94927359375E+02 -0.80053247413E+02 -0.59833149860E+03  0.63547641913E+03  0.17438454939E+03 0.  0.
         24    2    3    3    0    0 -0.23606924497E+02 -0.30488195196E+02 -0.48331585305E+03  0.49127521402E+03  0.79185258532E+02 0.  0.
         -6    2    1    2    0  502  0.94927359375E+02  0.80053247413E+02 -0.53685896973E+03  0.57742989632E+03  0.17259202127E+03 0.  0.
        -24    2    5    5    0    0  0.10790287541E+03  0.13456878663E+02 -0.42155666326E+03  0.44356372351E+03  0.84939027339E+02 0.  0.
          5    1    3    3  501    0 -0.71320434878E+02 -0.49565052217E+02 -0.11501564555E+03  0.14420120511E+03  0.47000000000E+01 0. -1.
        -11    1    4    4    0    0  0.25808323333E+02 -0.27551400642E+02 -0.24287619955E+03  0.24579259049E+03  0.00000000000E+00 0.  1.
         12    1    4    4    0    0 -0.49415247831E+02 -0.29367945534E+01 -0.24043965350E+03  0.24548262353E+03  0.00000000000E+00 0. -1.
         -5    1    5    5    0  502 -0.12975516033E+02  0.66596368750E+02 -0.11530230647E+03  0.13386617281E+03  0.47000000000E+01 0.  1.
         13    1    6    6    0    0  0.10088902811E+03  0.41033391926E+02 -0.31618981097E+03  0.33442238533E+03  0.00000000000E+00 0. -1.
        -14    1    6    6    0    0  0.70138472953E+01 -0.27576513263E+02 -0.10536685229E+03  0.10914133818E+03  0.00000000000E+00 0.  1.
</event>
<event>
12    1  0.1628146E-001  0.2743821E+03  0.7818608E-02  0.1099568E+00
         21   -1    0    0  501  502  0.00000000000E+00  0.00000000000E+00  0.73018299552E+02  0.73018299552E+02  0.00000000000E+00 0. -1.
         21   -1    0    0  502  503 -0.00000000000E+00 -0.00000000000E+00 -0.11264819599E+04  0.11264819599E+04  0.00000000000E+00 0.  1.
         -6    2    1    2    0  503  0.20481527076E+03 -0.55915781405E+02 -0.32973656820E+03  0.42550645205E+03  0.16508684556E+03 0.  0.
        -24    2    3    3    0    0  0.55236327938E+02 -0.24654798164E+02 -0.63047782321E+02  0.11810425992E+03  0.79464975679E+02 0.  0.
          6    2    1    2  501    0 -0.20481527076E+03  0.55915781405E+02 -0.72372709219E+03  0.77399380745E+03  0.17380920648E+03 0.  0.
         24    2    5    5    0    0 -0.22295384818E+03  0.74092743593E+02 -0.66362991422E+03  0.70847151548E+03  0.79555465734E+02 0.  0.
          5    1    5    5  501    0  0.18138577418E+02 -0.18176962189E+02 -0.60097177969E+02  0.65522291970E+02  0.47000000000E+01 0. -1.
        -11    1    6    6    0    0 -0.11559437583E+03  0.28903490387E+02 -0.22456606412E+03  0.25421917440E+03  0.00000000000E+00 0.  1.
         12    1    6    6    0    0 -0.10735947234E+03  0.45189253206E+02 -0.43906385010E+03  0.45425234108E+03  0.00000000000E+00 0. -1.
         -5    1    3    3    0  503  0.14957894282E+03 -0.31260983240E+02 -0.26668878588E+03  0.30740219212E+03  0.47000000000E+01 0.  1.
         13    1    4    4    0    0  0.74040274328E+02 -0.23148129949E+02 -0.37009135049E+02  0.85950417217E+02  0.00000000000E+00 0. -1.
        -14    1    4    4    0    0 -0.18803946390E+02 -0.15066682147E+01 -0.26038647272E+02  0.32153842705E+02  0.00000000000E+00 0.  1.
</event>
<event>
12    1  0.1628146E-001  0.2234843E+03  0.7818608E-02  0.1131382E+00
         21   -1    0    0  503  502  0.00000000000E+00  0.00000000000E+00  0.17022235434E+04  0.17022235434E+04  0.00000000000E+00 0.  1.
         21   -1    0    0  501  503 -0.00000000000E+00 -0.00000000000E+00 -0.30060195822E+02  0.30060195822E+02  0.00000000000E+00 0.  1.
          6    2    1    2  501    0  0.69046310035E+02 -0.12580615614E+03  0.69682066928E+03  0.73166464207E+03  0.17082014363E+03 0.  0.
         24    2    3    3    0    0  0.87092207747E+02 -0.13613710387E+03  0.46968184035E+03  0.50352757688E+03  0.82587080268E+02 0.  0.
         -6    2    1    2    0  502 -0.69046310035E+02  0.12580615614E+03  0.97534267829E+03  0.10006190971E+04  0.17132033044E+03 0.  0.
        -24    2    5    5    0    0 -0.26412765401E+02  0.87664259766E+01  0.23328134969E+03  0.24816110964E+03  0.79932870713E+02 0.  0.
          5    1    3    3  501    0 -0.18045897712E+02  0.10330947726E+02  0.22713882894E+03  0.22813706520E+03  0.47000000000E+01 0. -1.
        -11    1    4    4    0    0  0.34548161655E+02 -0.11720042823E+03  0.36453255339E+03  0.38446521082E+03  0.00000000000E+00 0.  1.
         12    1    4    4    0    0  0.52544046092E+02 -0.18936675639E+02  0.10514928696E+03  0.11906236606E+03  0.00000000000E+00 0. -1.
         -5    1    5    5    0  502 -0.42633544635E+02  0.11703973016E+03  0.74206132859E+03  0.75245798750E+03  0.47000000000E+01 0.  1.
         11    1    6    6    0    0  0.28083882818E+02  0.82978028737E+01  0.65439268166E+02  0.71692787816E+02  0.00000000000E+00 0. -1.
        -12    1    6    6    0    0 -0.54496648218E+02  0.46862310283E+00  0.16784208153E+03  0.17646832182E+03  0.00000000000E+00 0.  1.
</event>
<event>
12    1  0.1628146E-001  0.2107178E+03  0.7818608E-02  0.1141338E+00
         21   -1    0    0  503  502  0.00000000000E+00  0.00000000000E+00  0.70742370061E+02  0.70742370061E+02  0.00000000000E+00 0. -1.
         21   -1    0    0  501  503 -0.00000000000E+00 -0.00000000000E+00 -0.84972138509E+03  0.84972138509E+03  0.00000000000E+00 0.  1.
          6    2    1    2  501    0 -0.57689514668E+02  0.99760992661E+02 -0.62860706341E+03  0.66298477638E+03  0.17641325852E+03 0.  0.
         24    2    3    3    0    0 -0.10177029452E+03  0.10450344309E+03 -0.48392230797E+03  0.51158671019E+03  0.79132796167E+02 0.  0.
         -6    2    1    2    0  502  0.57689514668E+02 -0.99760992661E+02 -0.15037195162E+03  0.25747897877E+03  0.17436560704E+03 0.  0.
        -24    2    5    5    0    0  0.96314949163E+02 -0.85474156438E+02 -0.15112800811E+03  0.21602177794E+03  0.85107772023E+02 0.  0.
          5    1    3    3  501    0  0.44080779853E+02 -0.47424504266E+01 -0.14468475544E+03  0.15139806619E+03  0.47000000000E+01 0. -1.
        -13    1    4    4    0    0 -0.59199083793E+02  0.87372481731E+02 -0.41897796053E+03  0.43206598280E+03  0.00000000000E+00 0.  1.
         14    1    4    4    0    0 -0.42571210728E+02  0.17130961356E+02 -0.64944347436E+02  0.79520727385E+02  0.00000000000E+00 0. -1.
         -5    1    5    5    0  502 -0.38625434495E+02 -0.14286836223E+02  0.75605649326E+00  0.41457200830E+02  0.47000000000E+01 0.  1.
         13    1    6    6    0    0  0.92537065862E+02 -0.33580857072E+02 -0.74750917529E+02  0.12360615758E+03  0.00000000000E+00 0. -1.
        -14    1    6    6    0    0  0.37778833017E+01 -0.51893299366E+02 -0.76377090585E+02  0.92415620366E+02  0.00000000000E+00 0.  1.
</event>
<event>
12    1  0.1628146E-001  0.2078779E+03  0.7818608E-02  0.1143734E+00
         21   -1    0    0  503  502  0.00000000000E+00  0.00000000000E+00  0.27620986997E+03  0.27620986997E+03  0.00000000000E+00 0. -1.
         21   -1    0    0  501  503 -0.00000000000E+00 -0.00000000000E+00 -0.19105920279E+03  0.19105920279E+03  0.00000000000E+00 0. -1.
          6    2    1    2  501    0 -0.83683633844E+02 -0.77632954427E+02 -0.59173983829E+02  0.21613601977E+03  0.17373368267E+03 0.  0.
         24    2    3    3    0    0  0.87844915833E+01 -0.76580175765E+02 -0.12819023747E+02  0.11258731197E+03  0.81054826102E+02 0.  0.
         -6    2    1    2    0  502  0.83683633844E+02  0.77632954427E+02  0.14432465101E+03  0.25113305298E+03  0.17090459100E+03 0.  0.
        -24    2    5    5    0    0  0.55158715555E+02  0.11243336450E+03  0.71400129428E+02  0.16531455060E+03  0.80914626622E+02 0.  0.
          5    1    3    3  501    0 -0.92468125427E+02 -0.10527786620E+01 -0.46354960082E+02  0.10354870780E+03  0.47000000000E+01 0. -1.
        -13    1    4    4    0    0  0.15625995853E+02  0.67482808625E+01  0.16772605303E+02  0.23896261834E+02  0.00000000000E+00 0.  1.
         14    1    4    4    0    0 -0.68415042701E+01 -0.83328456628E+02 -0.29591629049E+02  0.88691050137E+02  0.00000000000E+00 0. -1.
         -5    1    5    5    0  502  0.28524918289E+02 -0.34800410075E+02  0.72924521577E+02  0.85818502388E+02  0.47000000000E+01 0.  1.
         11    1    6    6    0    0  0.71125853409E+02  0.72628854039E+02  0.67979263498E+02  0.12229070990E+03  0.00000000000E+00 0. -1.
        -12    1    6    6    0    0 -0.15967137855E+02  0.39804510463E+02  0.34208659298E+01  0.43023840695E+02  0.00000000000E+00 0.  1.
</event>
<event>
12    1  0.1628146E-001  0.2081652E+03  0.7818608E-02  0.1143924E+00
         21   -1    0    0  503  502  0.00000000000E+00  0.00000000000E+00  0.21542048462E+03  0.21542048462E+03  0.00000000000E+00 0. -1.
         21   -1    0    0  501  503 -0.00000000000E+00 -0.00000000000E+00 -0.20282330799E+03  0.20282330799E+03  0.00000000000E+00 0. -1.
          6    2    1    2  501    0 -0.50008985085E+02 -0.96763772813E+02 -0.29366915717E+02  0.21022645850E+03  0.17739397339E+03 0.  0.
         24    2    3    3    0    0 -0.16885552010E+02  0.23231826653E+00 -0.63084640909E+02  0.10222470622E+03  0.78645043097E+02 0.  0.
         -6    2    1    2    0  502  0.50008985085E+02  0.96763772813E+02  0.41964092347E+02  0.20801733412E+03  0.17218042842E+03 0.  0.
        -24    2    5    5    0    0  0.64800316275E+01  0.10314779143E+03  0.77262035776E+02  0.15141733153E+03  0.79223282118E+02 0.  0.
          5    1    3    3  501    0 -0.33123433075E+02 -0.96996091079E+02  0.33717725192E+02  0.10800175228E+03  0.47000000000E+01 0. -1.
        -11    1    4    4    0    0  0.31368748948E+02  0.54023841888E+01 -0.27182008290E+02  0.41857445456E+02  0.00000000000E+00 0.  1.
         12    1    4    4    0    0 -0.48254300958E+02 -0.51700659223E+01 -0.35902632620E+02  0.60367260759E+02  0.00000000000E+00 0. -1.
         -5    1    5    5    0  502  0.43528953457E+02 -0.63840186199E+01 -0.35297943430E+02  0.56600002590E+02  0.47000000000E+01 0.  1.
         11    1    6    6    0    0  0.37565106157E+02  0.23619513654E+02  0.20466778416E+02  0.48866221918E+02  0.00000000000E+00 0. -1.
        -12    1    6    6    0    0 -0.31085074530E+02  0.79528277778E+02  0.56795257361E+02  0.10255110962E+03  0.00000000000E+00 0.  1.
</event>
<event>
12    1  0.1628146E-001  0.1816501E+03  0.7818608E-02  0.1166578E+00
         21   -1    0    0  501  502  0.00000000000E+00  0.00000000000E+00  0.10480801227E+04  0.10480801227E+04  0.00000000000E+00 0. -1.
         21   -1    0    0  502  503 -0.00000000000E+00 -0.00000000000E+00 -0.56573974345E+02  0.56573974345E+02  0.00000000000E+00 0. -1.
         -6    2    1    2    0  503  0.46281117960E+02  0.36191367445E+02  0.12715769306E+03  0.22173370589E+03  0.17188659187E+03 0.  0.
        -24    2    3    3    0    0  0.52484995502E+02 -0.39419383017E+02  0.52504997199E+02  0.11519456434E+03  0.78768333819E+02 0.  0.
          6    2    1    2  501    0 -0.46281117960E+02 -0.36191367445E+02  0.86434845533E+03  0.88292039119E+03  0.17028918931E+03 0.  0.
         24    2    5    5    0    0 -0.54756258495E+02 -0.69177201700E+02  0.51657066264E+03  0.53344739316E+03  0.99685197926E+02 0.  0.
          5    1    5    5  501    0  0.84751405355E+01  0.32985834255E+02  0.34777779269E+03  0.34947299803E+03  0.47000000000E+01 0. -1.
        -11    1    6    6    0    0 -0.17860203500E+02 -0.79588931114E+02  0.44341664184E+03  0.45085663252E+03  0.00000000000E+00 0.  1.
         12    1    6    6    0    0 -0.36896054995E+02  0.10411729414E+02  0.73154020801E+02  0.82590760639E+02  0.00000000000E+00 0. -1.
         -5    1    3    3    0  503 -0.62038775420E+01  0.75610750462E+02  0.74652695865E+02  0.10653914155E+03  0.47000000000E+01 0.  1.
         11    1    4    4    0    0  0.56590138539E+02 -0.25758150178E+02  0.69336467446E+02  0.93131475874E+02  0.00000000000E+00 0. -1.
        -12    1    4    4    0    0 -0.41051430374E+01 -0.13661232839E+02 -0.16831470247E+02  0.22063088468E+02  0.00000000000E+00 0.  1.
</event>
<event>
12    1  0.1628146E-001  0.1848929E+03  0.7818608E-02  0.1163357E+00
         21   -1    0    0  501  502  0.00000000000E+00  0.00000000000E+00  0.27349253413E+02  0.27349253413E+02  0.00000000000E+00 0.  1.
         21   -1    0    0  502  503 -0.00000000000E+00 -0.00000000000E+00 -0.25935292404E+04  0.25935292404E+04  0.00000000000E+00 0.  1.
         -6    2    1    2    0  503 -0.65272023752E+02 -0.81094568375E+00 -0.22298535748E+04  0.22375058301E+04  0.17298635737E+03 0.  0.
        -24    2    3    3    0    0 -0.52340809380E+02 -0.16906356020E+02 -0.21917532816E+04  0.21939168305E+04  0.80394195746E+02 0.  0.
          6    2    1    2  501    0  0.65272023752E+02  0.81094568375E+00 -0.33632641217E+03  0.38337266373E+03  0.17204083542E+03 0.  0.
         24    2    5    5    0    0  0.42191649460E+02 -0.56251459794E+02 -0.28109808106E+03  0.30054102512E+03  0.79777281196E+02 0.  0.
          5    1    5    5  501    0  0.23080374292E+02  0.57062405477E+02 -0.55228331116E+02  0.82831638606E+02  0.47000000000E+01 0. -1.
        -13    1    6    6    0    0 -0.39765843334E+01 -0.30008048557E+02 -0.25786438070E+02  0.39764765679E+02  0.00000000000E+00 0.  1.
         14    1    6    6    0    0  0.46168233793E+02 -0.26243411237E+02 -0.25531164299E+03  0.26077625945E+03  0.00000000000E+00 0. -1.
         -5    1    3    3    0  503 -0.12931214373E+02  0.16095410336E+02 -0.38100293258E+02  0.43588999591E+02  0.47000000000E+01 0.  1.
         13    1    4    4    0    0 -0.99991548882E+01 -0.18828778879E+02 -0.13066510702E+03  0.13239288578E+03  0.00000000000E+00 0. -1.
        -14    1    4    4    0    0 -0.42341654492E+02  0.19224228594E+01 -0.20610881745E+04  0.20615239447E+04  0.00000000000E+00 0.  1.
</event>
<event>
12    1  0.1628146E-001  0.2184574E+03  0.7818608E-02  0.1135771E+00
         21   -1    0    0  501  502  0.00000000000E+00  0.00000000000E+00  0.34441834282E+03  0.34441834282E+03  0.00000000000E+00 0.  1.
         21   -1    0    0  502  503 -0.00000000000E+00 -0.00000000000E+00 -0.15029879211E+03  0.15029879211E+03  0.00000000000E+00 0.  1.
         -6    2    1    2    0  503 -0.58670508035E+02  0.11339390103E+03  0.21889437634E+02  0.21955132753E+03  0.17726599402E+03 0.  0.
        -24    2    3    3    0    0 -0.88662272207E+02  0.10508313951E+03  0.59938035702E+02  0.17017156963E+03  0.80388620245E+02 0.  0.
          6    2    1    2  501    0  0.58670508035E+02 -0.11339390103E+03  0.17223011307E+03  0.27516580740E+03  0.17248943275E+03 0.  0.
         24    2    5    5    0    0  0.85382547067E+02 -0.13476045939E+03  0.13874020512E+03  0.22706459348E+03  0.82818623134E+02 0.  0.
          5    1    5    5  501    0 -0.26712039032E+02  0.21366558366E+02  0.33489907959E+02  0.48101213922E+02  0.47000000000E+01 0. -1.
        -11    1    6    6    0    0  0.12290404812E+02 -0.33266594654E+01  0.51822394270E+02  0.53363669865E+02  0.00000000000E+00 0.  1.
         12    1    6    6    0    0  0.73092142255E+02 -0.13143379993E+03  0.86917810846E+02  0.17370092362E+03  0.00000000000E+00 0. -1.
         -5    1    3    3    0  503  0.29991764172E+02  0.83107615186E+01 -0.38048598068E+02  0.49379757899E+02  0.47000000000E+01 0.  1.
         13    1    4    4    0    0 -0.21393229948E+02  0.37509153458E+02  0.61096701874E+02  0.74815866369E+02  0.00000000000E+00 0. -1.
        -14    1    4    4    0    0 -0.67269042259E+02  0.67573986050E+02 -0.11586661716E+01  0.95355703261E+02  0.00000000000E+00 0.  1.
</event>
<event>
12    1  0.1628146E-001  0.2768439E+03  0.7818608E-02  0.1097674E+00
         21   -1    0    0  501  502  0.00000000000E+00  0.00000000000E+00  0.79410122647E+02  0.79410122647E+02  0.00000000000E+00 0. -1.
         21   -1    0    0  502  503 -0.00000000000E+00 -0.00000000000E+00 -0.12205719489E+04  0.12205719489E+04  0.00000000000E+00 0.  1.
         -6    2    1    2    0  503  0.18239419387E+03  0.11338704257E+03 -0.87298063124E+03  0.91582624706E+03  0.17469478786E+03 0.  0.
        -24    2    3    3    0    0  0.92137429747E+02  0.12849851468E+03 -0.67645019032E+03  0.69898311421E+03  0.77403874089E+02 0.  0.
          6    2    1    2  501    0 -0.18239419387E+03 -0.11338704257E+03 -0.26818119503E+03  0.38415582450E+03  0.17184376845E+03 0.  0.
         24    2    5    5    0    0 -0.12522176437E+03 -0.14192857698E+03 -0.23828149723E+03  0.31344947536E+03  0.75155109249E+02 0.  0.
          5    1    5    5  501    0 -0.57172429498E+02  0.28541534406E+02 -0.29899697801E+02  0.70706349146E+02  0.47000000000E+01 0. -1.
        -13    1    6    6    0    0 -0.47599817638E+02 -0.10549765969E+03 -0.11396777818E+03  0.16243199593E+03  0.00000000000E+00 0.  1.
         14    1    6    6    0    0 -0.77621946730E+02 -0.36430917290E+02 -0.12431371905E+03  0.15101747943E+03  0.00000000000E+00 0. -1.
         -5    1    3    3    0  503  0.90256764119E+02 -0.15111472107E+02 -0.19653044092E+03  0.21684313286E+03  0.47000000000E+01 0.  1.
         13    1    4    4    0    0 -0.67424673018E+01  0.28459920837E+02 -0.20248941145E+03  0.20459078598E+03  0.00000000000E+00 0. -1.
        -14    1    4    4    0    0  0.98879897049E+02  0.10003859384E+03 -0.47396077887E+03  0.49439232822E+03  0.00000000000E+00 0.  1.
</event>
<event>
12    1  0.1628146E-001  0.1841023E+03  0.7818608E-02  0.1163990E+00
         21   -1    0    0  503  502  0.00000000000E+00  0.00000000000E+00  0.14975043100E+03  0.14975043100E+03  0.00000000000E+00 0. -1.
         21   -1    0    0  501  503 -0.00000000000E+00 -0.00000000000E+00 -0.30526134052E+03  0.30526134052E+03  0.00000000000E+00 0. -1.
          6    2    1    2  501    0 -0.61673493234E+02  0.23810103984E+01 -0.19388407215E+03  0.26736623129E+03  0.17344849154E+03 0.  0.
         24    2    3    3    0    0  0.34014184616E+02 -0.60928630740E+01 -0.90544859638E+02  0.12619604652E+03  0.80826869383E+02 0.  0.
         -6    2    1    2    0  502  0.61673493234E+02 -0.23810103984E+01  0.38373162632E+02  0.18764554024E+03  0.17300017394E+03 0.  0.
        -24    2    5    5    0    0 -0.33213778019E+02 -0.17122534366E+02  0.98399137752E+01  0.87360231918E+02  0.78349537230E+02 0.  0.
          5    1    3    3  501    0 -0.95687677851E+02  0.84738734724E+01 -0.10333921252E+03  0.14117018477E+03  0.47000000000E+01 0. -1.
        -11    1    4    4    0    0  0.26337780325E+02  0.31761237252E+02 -0.20189250142E+02  0.45935396869E+02  0.00000000000E+00 0.  1.
         12    1    4    4    0    0  0.76764042910E+01 -0.37854100326E+02 -0.70355609497E+02  0.80260649648E+02  0.00000000000E+00 0. -1.
         -5    1    5    5    0  502  0.94887271254E+02  0.14741523968E+02  0.28533248857E+02  0.10028530832E+03  0.47000000000E+01 0.  1.
         11    1    6    6    0    0 -0.22725484564E+01  0.25396314869E+02  0.21668104409E+02  0.33461082381E+02  0.00000000000E+00 0. -1.
        -12    1    6    6    0    0 -0.30941229563E+02 -0.42518849235E+02 -0.11828190634E+02  0.53899149537E+02  0.00000000000E+00 0.  1.
</event>
<event>
12    1  0.1628146E-001  0.1975891E+03  0.7818608E-02  0.1151942E+00
         21   -1    0    0  503  502  0.00000000000E+00  0.00000000000E+00  0.62308714086E+02  0.62308714086E+02  0.00000000000E+00 0.  1.
         21   -1    0    0  501  503 -0.00000000000E+00 -0.00000000000E+00 -0.15368456609E+04  0.15368456609E+04  0.00000000000E+00 0.  1.
          6    2    1    2  501    0  0.92820323267E+02  0.29996615624E+02 -0.13539290635E+04  0.13682709428E+04  0.17183147124E+03 0.  0.
         24    2    3    3    0    0  0.48644677106E+02  0.82535887316E+02 -0.69544929705E+03  0.70620632690E+03  0.76806080973E+02 0.  0.
         -6    2    1    2    0  502 -0.92820323267E+02 -0.29996615624E+02 -0.12060788331E+03  0.23088343220E+03  0.17101312344E+03 0.  0.
        -24    2    5    5    0    0 -0.52756423617E+02 -0.83535096513E+02 -0.52973723981E+02  0.13565762425E+03  0.76389940460E+02 0.  0.
          5    1    3    3  501    0  0.44175646160E+02 -0.52539271692E+02 -0.65847976648E+03  0.66206461592E+03  0.47000000000E+01 0. -1.
        -11    1    4    4    0    0  0.43177376017E+02  0.74385744628E+02 -0.68925571424E+03  0.69460129889E+03  0.00000000000E+00 0.  1.
         12    1    4    4    0    0  0.54673010890E+01  0.81501426883E+01 -0.61935828088E+01  0.11605028007E+02  0.00000000000E+00 0. -1.
         -5    1    5    5    0  502 -0.40063899649E+02  0.53538480888E+02 -0.67634159326E+02  0.95225807945E+02  0.47000000000E+01 0.  1.
         11    1    6    6    0    0 -0.32829326388E+01 -0.49796177963E+02 -0.56854033874E+02  0.75649310335E+02  0.00000000000E+00 0. -1.
        -12    1    6    6    0    0 -0.49473490979E+02 -0.33738918550E+02  0.38803098931E+01  0.60008313919E+02  0.00000000000E+00 0.  1.
</event>
<event>
12    1  0.1628146E-001  0.2007634E+03  0.7818608E-02  0.1149203E+00
         21   -1    0    0  501  502  0.00000000000E+00  0.00000000000E+00  0.59700350746E+03  0.59700350746E+03  0.00000000000E+00 0. -1.
         21   -1    0    0  502  503 -0.00000000000E+00 -0.00000000000E+00 -0.86082072491E+02  0.86082072491E+02  0.00000000000E+00 0. -1.
         -6    2    1    2    0  503 -0.44041935523E+02  0.92999251234E+02  0.95859114165E+02  0.22201868118E+03  0.17179863855E+03 0.  0.
        -24    2    3    3    0    0 -0.52346262176E+02  0.11139067869E+03  0.12046369193E+03  0.18985221273E+03  0.79902109744E+02 0.  0.
          6    2    1    2  501    0  0.44041935523E+02 -0.92999251234E+02  0.41506232080E+03  0.46106689877E+03  0.17238736084E+03 0.  0.
         24    2    5    5    0    0  0.11098019302E+02 -0.11613997641E+03  0.20103936467E+03  0.24323964949E+03  0.71673152457E+02 0.  0.
          5    1    5    5  501    0  0.32943916221E+02  0.23140725180E+02  0.21402295614E+03  0.21782724928E+03  0.47000000000E+01 0. -1.
        -13    1    6    6    0    0 -0.29248399283E+02 -0.37502497967E+02  0.56882083924E+02  0.74144977482E+02  0.00000000000E+00 0.  1.
         14    1    6    6    0    0  0.40346418585E+02 -0.78637478447E+02  0.14415728074E+03  0.16909467201E+03  0.00000000000E+00 0. -1.
         -5    1    3    3    0  503  0.83043266535E+01 -0.18391427459E+02 -0.24604577768E+02  0.32166468446E+02  0.47000000000E+01 0.  1.
         11    1    4    4    0    0 -0.25451165426E+02  0.64295270451E+01 -0.20111678755E+01  0.26327655342E+02  0.00000000000E+00 0. -1.
        -12    1    4    4    0    0 -0.26895096750E+02  0.10496115165E+03  0.12247485981E+03  0.16352455739E+03  0.00000000000E+00 0.  1.
</event>
<event>
12    1  0.1628146E-001  0.2845663E+03  0.7818608E-02  0.1093623E+00
         21   -1    0    0  503  502  0.00000000000E+00  0.00000000000E+00  0.93342932150E+03  0.93342932150E+03  0.00000000000E+00 0. -1.
         21   -1    0    0  501  503 -0.00000000000E+00 -0.00000000000E+00 -0.89580251064E+02  0.89580251064E+02  0.00000000000E+00 0.  1.
          6    2    1    2  501    0  0.22402621387E+03  0.36027636138E+02  0.31959928556E+03  0.42792716692E+03  0.17173299563E+03 0.  0.
         24    2    3    3    0    0  0.20178864926E+03 -0.23413430837E+02  0.27305788312E+03  0.34908592223E+03  0.77675773901E+02 0.  0.
         -6    2    1    2    0  502 -0.22402621387E+03 -0.36027636138E+02  0.52424978487E+03  0.59508240564E+03  0.16673181310E+03 0.  0.
        -24    2    5    5    0    0 -0.16405096342E+03 -0.10652468512E+02  0.23027656654E+03  0.29394577072E+03  0.79690810889E+02 0.  0.
          5    1    3    3  501    0  0.22237564613E+02  0.59441066976E+02  0.46541402443E+02  0.78841244691E+02  0.47000000000E+01 0. -1.
        -13    1    4    4    0    0  0.59448538670E+02 -0.21306379531E+02  0.36340741849E+02  0.72861101260E+02  0.00000000000E+00 0.  1.
         14    1    4    4    0    0  0.14234011059E+03 -0.21070513059E+01  0.23671714127E+03  0.27622482097E+03  0.00000000000E+00 0. -1.
         -5    1    5    5    0  502 -0.59975250450E+02 -0.25375167627E+02  0.29397321833E+03  0.30113663492E+03  0.47000000000E+01 0.  1.
         13    1    6    6    0    0 -0.12394391122E+03 -0.36155756372E+01  0.21904425895E+03  0.25170528976E+03  0.00000000000E+00 0. -1.
        -14    1    6    6    0    0 -0.40107052203E+02 -0.70368928746E+01  0.11232307595E+02  0.42240480959E+02  0.00000000000E+00 0.  1.
</event>
<event>
12    1  0.1628146E-001  0.1990257E+03  0.7818608E-02  0.1150583E+00
         21   -1    0    0  503  502  0.00000000000E+00  0.00000000000E+00  0.15076541721E+03  0.15076541721E+03  0.00000000000E+00 0. -1.
         21   -1    0    0  501  503 -0.00000000000E+00 -0.00000000000E+00 -0.39116157479E+03  0.39116157479E+03  0.00000000000E+00 0.  1.
          6    2    1    2  501    0 -0.45091299958E+02  0.89183032605E+02  0.35118077212E+02  0.20210022485E+03  0.17211735212E+03 0.  0.
         24    2    3    3    0    0  0.89753636211E+00  0.48396606662E+02 -0.42345382626E+02  0.10309929952E+03  0.80580996664E+02 0.  0.
         -6    2    1    2    0  502  0.45091299958E+02 -0.89183032605E+02 -0.27551423479E+03  0.33982676715E+03  0.17200959118E+03 0.  0.
        -24    2    5    5    0    0  0.16624657353E+02  0.22835232710E+02 -0.11840242754E+03  0.14472512317E+03  0.78284093807E+02 0.  0.
          5    1    3    3  501    0 -0.45988836320E+02  0.40786425943E+02  0.77463459838E+02  0.99000925336E+02  0.47000000000E+01 0. -1.
        -11    1    4    4    0    0 -0.22890978721E+02  0.23051833966E+02 -0.56815681884E+02  0.65447732306E+02  0.00000000000E+00 0.  1.
         12    1    4    4    0    0  0.23788515083E+02  0.25344772696E+02  0.14470299258E+02  0.37651567211E+02  0.00000000000E+00 0. -1.
         -5    1    5    5    0  502  0.28466642605E+02 -0.11201826531E+03 -0.15711180725E+03  0.19510164398E+03  0.47000000000E+01 0.  1.
         11    1    6    6    0    0 -0.28650033310E+02  0.22669194365E+02 -0.66303314305E+02  0.75702353132E+02  0.00000000000E+00 0. -1.
        -12    1    6    6    0    0  0.45274690663E+02  0.16603834489E+00 -0.52099113235E+02  0.69022770035E+02  0.00000000000E+00 0.  1.
</event>
<event>
12    1  0.1628146E-001  0.1795311E+03  0.7818608E-02  0.1168385E+00
         21   -1    0    0  503  502  0.00000000000E+00  0.00000000000E+00  0.22785644959E+03  0.22785644959E+03  0.00000000000E+00 0.  1.
         21   -1    0    0  501  503 -0.00000000000E+00 -0.00000000000E+00 -0.22805883251E+03  0.22805883251E+03  0.00000000000E+00 0.  1.
          6    2    1    2  501    0 -0.17660863915E+02  0.45653339813E+02 -0.14090902035E+03  0.22781488570E+03  0.17218634261E+03 0.  0.
         24    2    3    3    0    0 -0.26950768594E+02  0.54149678934E+02 -0.16870082361E+03  0.19694476365E+03  0.81662355980E+02 0.  0.
         -6    2    1    2    0  502  0.17660863915E+02 -0.45653339813E+02  0.14070663744E+03  0.22810039640E+03  0.17272897692E+03 0.  0.
        -24    2    5    5    0    0  0.62303056652E+02 -0.28438292766E+02  0.34905265696E+02  0.11188807571E+03  0.81302869258E+02 0.  0.
          5    1    3    3  501    0  0.92899046790E+01 -0.84963391206E+01  0.27791803259E+02  0.30870122056E+02  0.47000000000E+01 0. -1.
        -13    1    4    4    0    0 -0.11351318433E+02  0.35216522805E+02 -0.16839396118E+03  0.17241108453E+03  0.00000000000E+00 0.  1.
         14    1    4    4    0    0 -0.15599450162E+02  0.18933156129E+02 -0.30686243412E+00  0.24533679114E+02  0.00000000000E+00 0. -1.
         -5    1    5    5    0  502 -0.44642192737E+02 -0.17215047047E+02  0.10580137174E+03  0.11621232069E+03  0.47000000000E+01 0.  1.
         11    1    6    6    0    0  0.76935616590E+02 -0.32083674333E+02  0.44020971801E+02  0.94267158741E+02  0.00000000000E+00 0. -1.
        -12    1    6    6    0    0 -0.14632559938E+02  0.36453815672E+01 -0.91157061052E+01  0.17620916971E+02  0.00000000000E+00 0.  1.
</event>
<event>
12    1  0.1628146E-001  0.2076415E+03  0.7818608E-02  0.1143936E+00
         21   -1    0    0  503  502  0.00000000000E+00  0.00000000000E+00  0.75114943481E+02  0.75114943481E+02  0.00000000000E+00 0.  1.
         21   -1    0    0  501  503 -0.00000000000E+00 -0.00000000000E+00 -0.11578223189E+04  0.11578223189E+04  0.00000000000E+00 0.  1.
          6    2    1    2  501    0 -0.12248168328E+03  0.26250706488E+02 -0.98314933284E+03  0.10048371060E+04  0.16560234499E+03 0.  0.
         24    2    3    3    0    0 -0.39648721209E+02  0.32987990261E+02 -0.80146376133E+03  0.80499109658E+03  0.54829519933E+02 0.  0.
         -6    2    1    2    0  502  0.12248168328E+03 -0.26250706488E+02 -0.99558042589E+02  0.22810015636E+03  0.16256388023E+03 0.  0.
        -24    2    5    5    0    0  0.11797623894E+02 -0.44888734672E+02 -0.56110456409E+02  0.10765049948E+03  0.79284704010E+02 0.  0.
          5    1    3    3  501    0 -0.82832962073E+02 -0.67372837726E+01 -0.18168557151E+03  0.19984600945E+03  0.47000000000E+01 0. -1.
        -13    1    4    4    0    0 -0.52156949637E+02  0.23790265055E+02 -0.53183300013E+03  0.53491369784E+03  0.00000000000E+00 0.  1.
         14    1    4    4    0    0  0.12508228428E+02  0.91977252062E+01 -0.26963076119E+03  0.27007739874E+03  0.00000000000E+00 0. -1.
         -5    1    5    5    0  502  0.11068405939E+03  0.18638028184E+02 -0.43447586181E+02  0.12044965688E+03  0.47000000000E+01 0.  1.
         11    1    6    6    0    0 -0.65642283708E+01  0.15198372290E+02 -0.39248310806E+02  0.42597059940E+02  0.00000000000E+00 0. -1.
        -12    1    6    6    0    0  0.18361852265E+02 -0.60087106962E+02 -0.16862145602E+02  0.65053439540E+02  0.00000000000E+00 0.  1.
</event>
<event>
12    1  0.1628146E-001  0.1895001E+03  0.7818608E-02  0.1159026E+00
         21   -1    0    0  503  502  0.00000000000E+00  0.00000000000E+00  0.18914202699E+03  0.18914202699E+03  0.00000000000E+00 0. -1.
         21   -1    0    0  501  503 -0.00000000000E+00 -0.00000000000E+00 -0.52255972874E+03  0.52255972874E+03  0.00000000000E+00 0. -1.
          6    2    1    2  501    0  0.65718266449E+02  0.41226115563E+02 -0.45094136815E+03  0.48914046676E+03  0.17289243929E+03 0.  0.
         24    2    3    3    0    0  0.10389199080E+01  0.29061907596E+02 -0.82730481891E+02  0.11506462875E+03  0.74497398128E+02 0.  0.
         -6    2    1    2    0  502 -0.65718266449E+02 -0.41226115563E+02  0.11752366639E+03  0.22256128898E+03  0.17234625624E+03 0.  0.
        -24    2    5    5    0    0 -0.43516724046E+02  0.29313506292E+02  0.11069611976E+02  0.92856615049E+02  0.75807834200E+02 0.  0.
          5    1    3    3  501    0  0.64679346541E+02  0.12164207967E+02 -0.36821088626E+03  0.37407583801E+03  0.47000000000E+01 0. -1.
        -13    1    4    4    0    0 -0.18125235736E+02 -0.10123260481E+01  0.62538225505E+01  0.19200501842E+02  0.00000000000E+00 0.  1.
         14    1    4    4    0    0  0.19164155644E+02  0.30074233644E+02 -0.88984304442E+02  0.95864126908E+02  0.00000000000E+00 0. -1.
         -5    1    5    5    0  502 -0.22201542403E+02 -0.70539621855E+02  0.10645405442E+03  0.12970467393E+03  0.47000000000E+01 0.  1.
         13    1    6    6    0    0 -0.56400411603E+02  0.14223488061E+02  0.29987734544E+02  0.65441410931E+02  0.00000000000E+00 0. -1.
        -14    1    6    6    0    0  0.12883687557E+02  0.15090018231E+02 -0.18918122568E+02  0.27415204117E+02  0.00000000000E+00 0.  1.
</event>
<event>
12    1  0.1628146E-001  0.2334876E+03  0.7818608E-02  0.1124210E+00
         21   -1    0    0  503  502  0.00000000000E+00  0.00000000000E+00  0.84364515094E+03  0.84364515094E+03  0.00000000000E+00 0. -1.
         21   -1    0    0  501  503 -0.00000000000E+00 -0.00000000000E+00 -0.70571700048E+02  0.70571700048E+02  0.00000000000E+00 0.  1.
          6    2    1    2  501    0  0.10825044287E+03 -0.11510759698E+03  0.25376305366E+03  0.34483143154E+03  0.17188691490E+03 0.  0.
         24    2    3    3    0    0  0.11073036027E+03 -0.48786342574E+02  0.23493222520E+03  0.27568413314E+03  0.78531973840E+02 0.  0.
         -6    2    1    2    0  502 -0.10825044287E+03  0.11510759698E+03  0.51931039723E+03  0.56938541945E+03  0.17189691662E+03 0.  0.
        -24    2    5    5    0    0 -0.76854174242E+02  0.59366438288E+02  0.47489648846E+03  0.49136306529E+03  0.80498752087E+02 0.  0.
          5    1    3    3  501    0 -0.24799174077E+01 -0.66321254403E+02  0.18830828451E+02  0.69147298401E+02  0.47000000000E+01 0. -1.
        -13    1    4    4    0    0  0.41656312340E+02  0.14017836730E+01  0.23928533193E+02  0.48060254431E+02  0.00000000000E+00 0.  1.
         14    1    4    4    0    0  0.69074047934E+02 -0.50188126247E+02  0.21100369201E+03  0.22762387870E+03  0.00000000000E+00 0. -1.
         -5    1    5    5    0  502 -0.31396268624E+02  0.55741158689E+02  0.44413908772E+02  0.78022354155E+02  0.47000000000E+01 0.  1.
         11    1    6    6    0    0 -0.34093621125E+01  0.48416996899E+02  0.13529111615E+03  0.14373418330E+03  0.00000000000E+00 0. -1.
        -12    1    6    6    0    0 -0.73444812130E+02  0.10949441389E+02  0.33960537231E+03  0.34762888199E+03  0.00000000000E+00 0.  1.
</event>
<event>
12    1  0.1628146E-001  0.1897086E+03  0.7818608E-02  0.1160517E+00
         21   -1    0    0  503  502  0.00000000000E+00  0.00000000000E+00  0.37884230742E+03  0.37884230742E+03  0.00000000000E+00 0.  1.
         21   -1    0    0  501  503 -0.00000000000E+00 -0.00000000000E+00 -0.25510188603E+03  0.25510188603E+03  0.00000000000E+00 0. -1.
          6    2    1    2  501    0  0.27586610912E+01  0.60466203354E+02 -0.19267951353E+03  0.26501203457E+03  0.17158732930E+03 0.  0.
         24    2    3    3    0    0 -0.29681293902E+02 -0.43036558112E+01 -0.16491380084E+03  0.18729131573E+03  0.83558210733E+02 0.  0.
         -6    2    1    2    0  502 -0.27586610912E+01 -0.60466203354E+02  0.31641993492E+03  0.36893215887E+03  0.17979318863E+03 0.  0.
        -24    2    5    5    0    0  0.60197370084E+02 -0.56887731296E+02  0.14074957361E+03  0.18222802618E+03  0.80849698301E+02 0.  0.
          5    1    3    3  501    0  0.32439954993E+02  0.64769859165E+02 -0.27765712691E+02  0.77720718843E+02  0.47000000000E+01 0. -1.
        -13    1    4    4    0    0 -0.32934610905E+02 -0.18281189967E+01 -0.13209556915E+02  0.35531999780E+02  0.00000000000E+00 0.  1.
         14    1    4    4    0    0  0.32533170028E+01 -0.24755368145E+01 -0.15170424392E+03  0.15175931595E+03  0.00000000000E+00 0. -1.
         -5    1    5    5    0  502 -0.62956031175E+02 -0.35784720577E+01  0.17567036130E+03  0.18670413269E+03  0.47000000000E+01 0.  1.
         13    1    6    6    0    0  0.62804590881E+02 -0.51461745639E+02  0.15036305821E+03  0.17088527489E+03  0.00000000000E+00 0. -1.
        -14    1    6    6    0    0 -0.26072207970E+01 -0.54259856579E+01 -0.96134845981E+01  0.11342751287E+02  0.00000000000E+00 0.  1.
</event>
<event>
12    1  0.1628146E-001  0.2795618E+03  0.7818608E-02  0.1096116E+00
         21   -1    0    0  503  502  0.00000000000E+00  0.00000000000E+00  0.64219052032E+03  0.64219052032E+03  0.00000000000E+00 0. -1.
         21   -1    0    0  501  503 -0.00000000000E+00 -0.00000000000E+00 -0.20434411769E+03  0.20434411769E+03  0.00000000000E+00 0. -1.
          6    2    1    2  501    0  0.23303830612E+02 -0.21484978860E+03 -0.51535077527E+02  0.28293101098E+03  0.17518730711E+03 0.  0.
         24    2    3    3    0    0  0.16589891817E+02 -0.19769309178E+03  0.14026699326E+02  0.21466780124E+03  0.80794390567E+02 0.  0.
         -6    2    1    2    0  502 -0.23303830612E+02  0.21484978860E+03  0.48938148016E+03  0.56360362703E+03  0.17734518626E+03 0.  0.
        -24    2    5    5    0    0  0.50578148087E+01  0.21575852686E+03  0.33517912801E+03  0.40674170001E+03  0.80724465171E+02 0.  0.
          5    1    3    3  501    0  0.67139387945E+01 -0.17156696826E+02 -0.65561776853E+02  0.68263209742E+02  0.47000000000E+01 0. -1.
        -13    1    4    4    0    0 -0.22943945531E+02 -0.15227980354E+03  0.10165943522E+02  0.15433376044E+03  0.00000000000E+00 0.  1.
         14    1    4    4    0    0  0.39533837348E+02 -0.45413288235E+02  0.38607558035E+01  0.60334040799E+02  0.00000000000E+00 0. -1.
         -5    1    5    5    0  502 -0.28361645420E+02 -0.90873825569E+00  0.15420235215E+03  0.15686192701E+03  0.47000000000E+01 0.  1.
         13    1    6    6    0    0 -0.29311066270E+02  0.17119539083E+03  0.26383480418E+03  0.31587308265E+03  0.00000000000E+00 0. -1.
        -14    1    6    6    0    0  0.34368881079E+02  0.44563136032E+02  0.71344323829E+02  0.90868617368E+02  0.00000000000E+00 0.  1.
</event>
<event>
12    1  0.1628146E-001  0.1755077E+03  0.7818608E-02  0.1172413E+00
         21   -1    0    0  501  502  0.00000000000E+00  0.00000000000E+00  0.15123150634E+03  0.15123150634E+03  0.00000000000E+00 0. -1.
         21   -1    0    0  502  503 -0.00000000000E+00 -0.00000000000E+00 -0.60662481693E+03  0.60662481693E+03  0.00000000000E+00 0. -1.
         -6    2    1    2    0  503  0.35390456691E+02 -0.30459496961E+01 -0.53702886661E+03  0.56498047834E+03  0.17187546393E+03 0.  0.
        -24    2    3    3    0    0 -0.13027099991E+02  0.18897836010E+02 -0.17319169442E+03  0.19725045864E+03  0.91572631698E+02 0.  0.
          6    2    1    2  501    0 -0.35390456691E+02  0.30459496961E+01  0.81635556023E+02  0.19287584493E+03  0.17109928496E+03 0.  0.
         24    2    5    5    0    0 -0.89627936744E+02  0.45540814697E+01  0.53622083791E+02  0.13163187926E+03  0.79985730385E+02 0.  0.
          5    1    5    5  501    0  0.54237480053E+02 -0.15081317737E+01  0.28013472232E+02  0.61243965665E+02  0.47000000000E+01 0. -1.
        -11    1    6    6    0    0 -0.25068995052E+02 -0.17474945303E+02 -0.15717386160E+02  0.34363708385E+02  0.00000000000E+00 0.  1.
         12    1    6    6    0    0 -0.64558941692E+02  0.22029026773E+02  0.69339469951E+02  0.97268170878E+02  0.00000000000E+00 0. -1.
         -5    1    3    3    0  503  0.48417556683E+02 -0.21943785706E+02 -0.36383717219E+03  0.36773001970E+03  0.47000000000E+01 0.  1.
         13    1    4    4    0    0 -0.47313769175E+02  0.27694863056E+02 -0.75207798324E+02  0.93068851514E+02  0.00000000000E+00 0. -1.
        -14    1    4    4    0    0  0.34286669184E+02 -0.87970270461E+01 -0.97983896096E+02  0.10418160712E+03  0.00000000000E+00 0.  1.
</event>
<event>
12    1  0.1628146E-001  0.1960465E+03  0.7818608E-02  0.1153426E+00
         21   -1    0    0  501  502  0.00000000000E+00  0.00000000000E+00  0.28667645331E+04  0.28667645331E+04  0.00000000000E+00 0.  1.
         21   -1    0    0  502  503 -0.00000000000E+00 -0.00000000000E+00 -0.13364976119E+02  0.13364976119E+02  0.00000000000E+00 0.  1.
         -6    2    1    2    0  503 -0.35950860178E+02  0.87286614562E+02  0.13396144771E+04  0.13538837348E+04  0.17182200880E+03 0.  0.
        -24    2    3    3    0    0 -0.55951246130E+02  0.56751558578E+01  0.95775410610E+03  0.96285959416E+03  0.81504116376E+02 0.  0.
          6    2    1    2  501    0  0.35950860178E+02 -0.87286614562E+02  0.15137850799E+04  0.15262457745E+04  0.17020422553E+03 0.  0.
         24    2    5    5    0    0  0.32968621316E+02 -0.62514998514E+02  0.43022417036E+03  0.44238745278E+03  0.74958432382E+02 0.  0.
          5    1    5    5  501    0  0.29822388616E+01 -0.24771616048E+02  0.10835609096E+04  0.10838583217E+04  0.47000000000E+01 0. -1.
        -13    1    6    6    0    0  0.22546214819E+02  0.12258459145E+02  0.76285056257E+02  0.80486094647E+02  0.00000000000E+00 0.  1.
         14    1    6    6    0    0  0.10422406497E+02 -0.74773457659E+02  0.35393911410E+03  0.36190135814E+03  0.00000000000E+00 0. -1.
         -5    1    3    3    0  503  0.20000385952E+02  0.81611458704E+02  0.38186037097E+03  0.39102414062E+03  0.47000000000E+01 0.  1.
         13    1    4    4    0    0 -0.10964906267E+02  0.40568288540E+02  0.42435637666E+03  0.42643211607E+03  0.00000000000E+00 0. -1.
        -14    1    4    4    0    0 -0.44986339863E+02 -0.34893132682E+02  0.53339772944E+03  0.53642747809E+03  0.00000000000E+00 0.  1.
</event>
<event>
12    1  0.1628146E-001  0.3113369E+03  0.7818608E-02  0.1079767E+00
         21   -1    0    0  501  502  0.00000000000E+00  0.00000000000E+00  0.15457291071E+04  0.15457291071E+04  0.00000000000E+00 0. -1.
         21   -1    0    0  502  503 -0.00000000000E+00 -0.00000000000E+00 -0.15134420956E+03  0.15134420956E+03  0.00000000000E+00 0.  1.
         -6    2    1    2    0  503 -0.88433233098E+02  0.24346475178E+03  0.47218931189E+02  0.31439953516E+03  0.17181943479E+03 0.  0.
        -24    2    3    3    0    0  0.22018113719E+01  0.73902941812E+02 -0.23841838712E+02  0.10936870406E+03  0.76984331991E+02 0.  0.
          6    2    1    2  501    0  0.88433233098E+02 -0.24346475178E+03  0.13471659664E+04  0.13826737815E+04  0.17272846631E+03 0.  0.
         24    2    5    5    0    0  0.86482238833E+02 -0.92968332050E+02  0.85419591490E+03  0.86721811865E+03  0.79336724761E+02 0.  0.
          5    1    5    5  501    0  0.19509942643E+01 -0.15049641973E+03  0.49297005150E+03  0.51545566289E+03  0.47000000000E+01 0. -1.
        -13    1    6    6    0    0  0.82933848793E+02 -0.66320651949E+02  0.79672422606E+03  0.80376983306E+03  0.00000000000E+00 0.  1.
         14    1    6    6    0    0  0.35483900402E+01 -0.26647680101E+02  0.57471688840E+02  0.63448285594E+02  0.00000000000E+00 0. -1.
         -5    1    3    3    0  503 -0.90635044469E+02  0.16956180996E+03  0.71060769901E+02  0.20503083110E+03  0.47000000000E+01 0.  1.
         11    1    4    4    0    0  0.13700480944E+02  0.70965043029E+02  0.10499817616E+02  0.73034147357E+02  0.00000000000E+00 0. -1.
        -12    1    4    4    0    0 -0.11498669572E+02  0.29378987826E+01 -0.34341656328E+02  0.36334556699E+02  0.00000000000E+00 0.  1.
</event>
<event>
12    1  0.1628146E-001  0.1726362E+03  0.7818608E-02  0.1175205E+00
         21   -1    0    0  501  502  0.00000000000E+00  0.00000000000E+00  0.66817652623E+02  0.66817652623E+02  0.00000000000E+00 0.  1.
         21   -1    0    0  502  503 -0.00000000000E+00 -0.00000000000E+00 -0.48069942372E+03  0.48069942372E+03  0.00000000000E+00 0.  1.
         -6    2    1    2    0  503  0.16511102083E+02  0.41476315120E+01 -0.13242375991E+03  0.21733247880E+03  0.17148625254E+03 0.  0.
        -24    2    3    3    0    0 -0.25010268712E+02  0.48250634445E+02 -0.12110668296E+03  0.15553227385E+03  0.81054440262E+02 0.  0.
          6    2    1    2  501    0 -0.16511102083E+02 -0.41476315120E+01 -0.28145801118E+03  0.33018459755E+03  0.17179475271E+03 0.  0.
         24    2    5    5    0    0  0.34707204772E+02  0.35288656599E+02 -0.99611606814E+02  0.13713346298E+03  0.80207450451E+02 0.  0.
          5    1    5    5  501    0 -0.51218306855E+02 -0.39436288111E+02 -0.18184640437E+03  0.19305113457E+03  0.47000000000E+01 0. -1.
        -13    1    6    6    0    0  0.18702668754E+02  0.42092200645E+02 -0.11706413025E+02  0.47524554491E+02  0.00000000000E+00 0.  1.
         14    1    6    6    0    0  0.16004536018E+02 -0.68035440458E+01 -0.87905193789E+02  0.89608908485E+02  0.00000000000E+00 0. -1.
         -5    1    3    3    0  503  0.41521370795E+02 -0.44103002933E+02 -0.11317076951E+02  0.61800204944E+02  0.47000000000E+01 0.  1.
         11    1    4    4    0    0 -0.37690370588E+02  0.60909663592E+02 -0.65322113797E+02  0.96940856737E+02  0.00000000000E+00 0. -1.
        -12    1    4    4    0    0  0.12680101876E+02 -0.12659029147E+02 -0.55784569168E+02  0.58591417117E+02  0.00000000000E+00 0.  1.
</event>
<event>
12    1  0.1628146E-001  0.3059831E+03  0.7818608E-02  0.1083548E+00
         21   -1    0    0  503  502  0.00000000000E+00  0.00000000000E+00  0.84195694725E+03  0.84195694725E+03  0.00000000000E+00 0. -1.
         21   -1    0    0  501  503 -0.00000000000E+00 -0.00000000000E+00 -0.13169246707E+03  0.13169246707E+03  0.00000000000E+00 0.  1.
          6    2    1    2  501    0  0.25205643757E+03 -0.18256456233E+02  0.15156038359E+03  0.34146188236E+03  0.17251064117E+03 0.  0.
         24    2    3    3    0    0  0.21241399653E+03  0.44751469252E+02  0.12013161757E+03  0.26052129218E+03  0.79481684786E+02 0.  0.
         -6    2    1    2    0  502 -0.25205643757E+03  0.18256456233E+02  0.55870409659E+03  0.63218753196E+03  0.15376950966E+03 0.  0.
        -24    2    5    5    0    0 -0.13311092939E+03  0.43177403459E+01  0.42624076853E+03  0.45355118348E+03  0.79311543125E+02 0.  0.
          5    1    3    3  501    0  0.39642441038E+02 -0.63007925484E+02  0.31428766019E+02  0.80940590181E+02  0.47000000000E+01 0. -1.
        -11    1    4    4    0    0  0.14748885283E+03  0.33055796933E+02  0.39275593693E+02  0.15616728108E+03  0.00000000000E+00 0.  1.
         12    1    4    4    0    0  0.64925143705E+02  0.11695672319E+02  0.80856023878E+02  0.10435401110E+03  0.00000000000E+00 0. -1.
         -5    1    5    5    0  502 -0.11894550818E+03  0.13938715887E+02  0.13246332806E+03  0.17863634848E+03  0.47000000000E+01 0.  1.
         11    1    6    6    0    0 -0.10788461028E+03 -0.59251689080E+01  0.21560684869E+03  0.24116490201E+03  0.00000000000E+00 0. -1.
        -12    1    6    6    0    0 -0.25226319103E+02  0.10242909254E+02  0.21063391985E+03  0.21238628147E+03  0.00000000000E+00 0.  1.
</event>
<event>
12    1  0.1628146E-001  0.2487545E+03  0.7818608E-02  0.1114789E+00
         21   -1    0    0  501  502  0.00000000000E+00  0.00000000000E+00  0.30504398182E+03  0.30504398182E+03  0.00000000000E+00 0. -1.
         21   -1    0    0  502  503 -0.00000000000E+00 -0.00000000000E+00 -0.51498935030E+03  0.51498935030E+03  0.00000000000E+00 0. -1.
         -6    2    1    2    0  503  0.15827088295E+03 -0.90055369662E+02 -0.42561104410E+03  0.49080621156E+03  0.16305316450E+03 0.  0.
        -24    2    3    3    0    0  0.33676334180E+02 -0.91864286537E+02 -0.16196695051E+03  0.19916024151E+03  0.62115747720E+02 0.  0.
          6    2    1    2  501    0 -0.15827088295E+03  0.90055369662E+02  0.21566567561E+03  0.32922712056E+03  0.16946731625E+03 0.  0.
         24    2    5    5    0    0 -0.10282490837E+02  0.19473754745E+02  0.86306716401E+02  0.12032963639E+03  0.80903741293E+02 0.  0.
          5    1    5    5  501    0 -0.14798839212E+03  0.70581614917E+02  0.12935895921E+03  0.20889748417E+03  0.47000000000E+01 0. -1.
        -13    1    6    6    0    0 -0.31417083079E+02  0.35490844876E+02  0.80133762247E+02  0.93102379298E+02  0.00000000000E+00 0.  1.
         14    1    6    6    0    0  0.21134592242E+02 -0.16017090131E+02  0.61729541539E+01  0.27227257088E+02  0.00000000000E+00 0. -1.
         -5    1    3    3    0  503  0.12459454877E+03  0.18089168749E+01 -0.26364409359E+03  0.29164597006E+03  0.47000000000E+01 0.  1.
         11    1    4    4    0    0  0.46907941542E+02 -0.59362265890E+02 -0.13555325668E+03  0.15523826521E+03  0.00000000000E+00 0. -1.
        -12    1    4    4    0    0 -0.13231607362E+02 -0.32502020646E+02 -0.26413693833E+02  0.43921976292E+02  0.00000000000E+00 0.  1.
</event>
<event>
12    1  0.1628146E-001  0.2149927E+03  0.7818608E-02  0.1137748E+00
         21   -1    0    0  503  502  0.00000000000E+00  0.00000000000E+00  0.43379884098E+02  0.43379884098E+02  0.00000000000E+00 0.  1.
         21   -1    0    0  501  503 -0.00000000000E+00 -0.00000000000E+00 -0.12027932431E+04  0.12027932431E+04  0.00000000000E+00 0.  1.
          6    2    1    2  501    0 -0.10124375791E+03 -0.80543554435E+02 -0.79122770316E+03  0.81981351620E+03  0.17121729009E+03 0.  0.
         24    2    3    3    0    0 -0.43455960065E+02 -0.25741108734E+02 -0.65546014627E+03  0.66234079749E+03  0.80723624359E+02 0.  0.
         -6    2    1    2    0  502  0.10124375791E+03  0.80543554435E+02 -0.36818565586E+03  0.42635961101E+03  0.17170986590E+03 0.  0.
        -24    2    5    5    0    0  0.13428181176E+03  0.77995770070E+02 -0.26900582618E+03  0.32168519760E+03  0.83679667292E+02 0.  0.
          5    1    3    3  501    0 -0.57787797844E+02 -0.54802445700E+02 -0.13576755689E+03  0.15747271871E+03  0.47000000000E+01 0. -1.
        -11    1    4    4    0    0 -0.56465134683E+02  0.41570630529E+01 -0.29322054210E+03  0.29863670056E+03  0.00000000000E+00 0.  1.
         12    1    4    4    0    0  0.13009174619E+02 -0.29898171787E+02 -0.36223960417E+03  0.36370409693E+03  0.00000000000E+00 0. -1.
         -5    1    5    5    0  502 -0.33038053856E+02  0.25477843647E+01 -0.99179829678E+02  0.10467441341E+03  0.47000000000E+01 0.  1.
         13    1    6    6    0    0  0.54471885005E+01 -0.88184641857E+01  0.74999605156E+00  0.10392288835E+02  0.00000000000E+00 0. -1.
        -14    1    6    6    0    0  0.12883462326E+03  0.86814234256E+02 -0.26975582223E+03  0.31129290877E+03  0.00000000000E+00 0.  1.
</event>
<event>
12    1  0.1628146E-001  0.2179803E+03  0.7818608E-02  0.1135986E+00
         21   -1    0    0  503  502  0.00000000000E+00  0.00000000000E+00  0.36620989751E+03  0.36620989751E+03  0.00000000000E+00 0. -1.
         21   -1    0    0  501  503 -0.00000000000E+00 -0.00000000000E+00 -0.16395039618E+03  0.16395039618E+03  0.00000000000E+00 0.  1.
          6    2    1    2  501    0  0.32163099149E+02  0.13005031864E+03 -0.23712349332E+02  0.21618789047E+03  0.16801005372E+03 0.  0.
         24    2    3    3    0    0  0.23322963111E+01  0.27159575282E+02 -0.59400721048E+02  0.10317403405E+03  0.79833285702E+02 0.  0.
         -6    2    1    2    0  502 -0.32163099149E+02 -0.13005031864E+03  0.22597185067E+03  0.31397240322E+03  0.17195302371E+03 0.  0.
        -24    2    5    5    0    0 -0.18991697753E+02 -0.80463481725E+02  0.23522055880E+03  0.26162769181E+03  0.79279766430E+02 0.  0.
          5    1    3    3  501    0  0.29830802838E+02  0.10289074336E+03  0.35688371717E+02  0.11301385642E+03  0.47000000000E+01 0. -1.
        -11    1    4    4    0    0  0.14437149688E+02  0.47245002983E+02 -0.12843098448E+02  0.51043773134E+02  0.00000000000E+00 0.  1.
         12    1    4    4    0    0 -0.12104853377E+02 -0.20085427701E+02 -0.46557622601E+02  0.52130260919E+02  0.00000000000E+00 0. -1.
         -5    1    5    5    0  502 -0.13171401396E+02 -0.49586836915E+02 -0.92487081371E+01  0.52344711406E+02  0.47000000000E+01 0.  1.
         13    1    6    6    0    0  0.21709124201E+02  0.26690196746E+01  0.40583288729E+02  0.46102202373E+02  0.00000000000E+00 0. -1.
        -14    1    6    6    0    0 -0.40700821954E+02 -0.83132501400E+02  0.19463727007E+03  0.21552548944E+03  0.00000000000E+00 0.  1.
</event>
<event>
12    1  0.1628146E-001  0.1738171E+03  0.7818608E-02  0.1174656E+00
         21   -1    0    0  501  502  0.00000000000E+00  0.00000000000E+00  0.16331231958E+03  0.16331231958E+03  0.00000000000E+00 0.  1.
         21   -1    0    0  502  503 -0.00000000000E+00 -0.00000000000E+00 -0.19280714064E+03  0.19280714064E+03  0.00000000000E+00 0.  1.
         -6    2    1    2    0  503 -0.14537501206E+02  0.18602071059E+02 -0.57086591591E+02  0.18295150309E+03  0.17220626456E+03 0.  0.
        -24    2    3    3    0    0  0.20508436220E+02  0.62618490068E+02  0.34228559781E+01  0.10019193496E+03  0.75399181910E+02 0.  0.
          6    2    1    2  501    0  0.14537501206E+02 -0.18602071059E+02  0.27591770531E+02  0.17316795713E+03  0.16931762929E+03 0.  0.
         24    2    5    5    0    0 -0.19813893214E+02  0.46971866580E+02  0.28669196457E+02  0.98984330618E+02  0.79856297610E+02 0.  0.
          5    1    5    5  501    0  0.34351394420E+02 -0.65573937639E+02 -0.10774259265E+01  0.74183626514E+02  0.47000000000E+01 0. -1.
        -11    1    6    6    0    0 -0.41121449677E+02  0.19276934541E+01  0.26796259844E+02  0.49119539567E+02  0.00000000000E+00 0.  1.
         12    1    6    6    0    0  0.21307556463E+02  0.45044173126E+02  0.18729366134E+01  0.49864791051E+02  0.00000000000E+00 0. -1.
         -5    1    3    3    0  503 -0.35045937425E+02 -0.44016419008E+02 -0.60509447569E+02  0.82759568132E+02  0.47000000000E+01 0.  1.
         13    1    4    4    0    0 -0.10313166154E+02  0.64029868610E+02 -0.11584849906E+02  0.65881668298E+02  0.00000000000E+00 0. -1.
        -14    1    4    4    0    0  0.30821602374E+02 -0.14113785426E+01  0.15007705884E+02  0.34310266658E+02  0.00000000000E+00 0.  1.
</event>
<event>
12    1  0.1628146E-001  0.1788626E+03  0.7818608E-02  0.1168991E+00
         21   -1    0    0  501  502  0.00000000000E+00  0.00000000000E+00  0.16653484290E+03  0.16653484290E+03  0.00000000000E+00 0.  1.
         21   -1    0    0  502  503 -0.00000000000E+00 -0.00000000000E+00 -0.19174355703E+03  0.19174355703E+03  0.00000000000E+00 0.  1.
         -6    2    1    2    0  503 -0.24380553285E+02 -0.33574537456E+02 -0.11784280668E+02  0.17925033446E+03  0.17398319514E+03 0.  0.
        -24    2    3    3    0    0  0.47209159846E+02  0.27584590327E+01  0.16053029133E+02  0.94149338716E+02  0.79812808287E+02 0.  0.
          6    2    1    2  501    0  0.24380553285E+02  0.33574537456E+02 -0.13424433468E+02  0.17902806547E+03  0.17363516887E+03 0.  0.
         24    2    5    5    0    0  0.11503768242E+02 -0.34342577882E+02  0.37812605446E+02  0.92854575894E+02  0.76683960477E+02 0.  0.
          5    1    5    5  501    0  0.12876785044E+02  0.67917115338E+02 -0.51237038914E+02  0.86173489575E+02  0.47000000000E+01 0. -1.
        -13    1    6    6    0    0  0.10997066007E+02 -0.12974722316E+02 -0.22879536036E+02  0.28508806520E+02  0.00000000000E+00 0.  1.
         14    1    6    6    0    0  0.50670223513E+00 -0.21367855566E+02  0.60692141483E+02  0.64345769374E+02  0.00000000000E+00 0. -1.
         -5    1    3    3    0  503 -0.71589713131E+02 -0.36332996488E+02 -0.27837309801E+02  0.85100995746E+02  0.47000000000E+01 0.  1.
         13    1    4    4    0    0  0.23324004950E+02 -0.46393939529E+01 -0.32065676138E+02  0.39921682947E+02  0.00000000000E+00 0. -1.
        -14    1    4    4    0    0  0.23885154896E+02  0.73978529856E+01  0.48118705271E+02  0.54227655768E+02  0.00000000000E+00 0.  1.
</event>
<event>
12    1  0.1628146E-001  0.2457232E+03  0.7818608E-02  0.1116131E+00
         21   -1    0    0  503  502  0.00000000000E+00  0.00000000000E+00  0.14268710779E+03  0.14268710779E+03  0.00000000000E+00 0.  1.
         21   -1    0    0  501  503 -0.00000000000E+00 -0.00000000000E+00 -0.69005158104E+03  0.69005158104E+03  0.00000000000E+00 0.  1.
          6    2    1    2  501    0  0.97841967456E+02  0.14595345966E+03 -0.14061217713E+02  0.24554855680E+03  0.17094125575E+03 0.  0.
         24    2    3    3    0    0  0.92226985220E+02  0.16623505133E+03  0.18032887179E+02  0.20688342321E+03  0.79596838413E+02 0.  0.
         -6    2    1    2    0  502 -0.97841967456E+02 -0.14595345966E+03 -0.53330325553E+03  0.58719013204E+03  0.17176852394E+03 0.  0.
        -24    2    5    5    0    0 -0.84038567672E+02 -0.85304348964E+02 -0.21663389137E+03  0.26443569803E+03  0.93041295625E+02 0.  0.
          5    1    3    3  501    0  0.56149822364E+01 -0.20281591671E+02 -0.32094104892E+02  0.38665133583E+02  0.47000000000E+01 0. -1.
        -13    1    4    4    0    0  0.36306768590E+01  0.54329643722E+02  0.32514142306E+02  0.63419724466E+02  0.00000000000E+00 0.  1.
         14    1    4    4    0    0  0.88596308361E+02  0.11190540761E+03 -0.14481255127E+02  0.14346369875E+03  0.00000000000E+00 0. -1.
         -5    1    5    5    0  502 -0.13803399784E+02 -0.60649110698E+02 -0.31666936416E+03  0.32275443401E+03  0.47000000000E+01 0.  1.
         11    1    6    6    0    0  0.18348043385E+02 -0.17285843246E+01 -0.37905368060E+02  0.42148020446E+02  0.00000000000E+00 0. -1.
        -12    1    6    6    0    0 -0.10238661106E+03 -0.83575764640E+02 -0.17872852331E+03  0.22228767758E+03  0.00000000000E+00 0.  1.
</event>
<event>
12    1  0.1628146E-001  0.2397278E+03  0.7818608E-02  0.1120223E+00
         21   -1    0    0  503  502  0.00000000000E+00  0.00000000000E+00  0.79733684542E+03  0.79733684542E+03  0.00000000000E+00 0.  1.
         21   -1    0    0  501  503 -0.00000000000E+00 -0.00000000000E+00 -0.72207391294E+02  0.72207391294E+02  0.00000000000E+00 0. -1.
          6    2    1    2  501    0 -0.16636923438E+03 -0.78922138505E+01  0.40032772610E+03  0.46585430051E+03  0.17034357000E+03 0.  0.
         24    2    3    3    0    0 -0.68143828881E+02  0.41350206421E+02  0.28134225659E+03  0.30382751818E+03  0.82488026252E+02 0.  0.
         -6    2    1    2    0  502  0.16636923438E+03  0.78922138505E+01  0.32480172803E+03  0.40368993620E+03  0.17241923579E+03 0.  0.
        -24    2    5    5    0    0  0.32821248221E+02  0.68227956906E+01  0.55092029881E+02  0.10268890707E+03  0.79913046509E+02 0.  0.
          5    1    3    3  501    0 -0.98225405500E+02 -0.49242420271E+02  0.11898546950E+03  0.16202678233E+03  0.47000000000E+01 0. -1.
        -11    1    4    4    0    0 -0.33541369169E+02  0.28884876969E+02  0.39879204159E+02  0.59579446855E+02  0.00000000000E+00 0.  1.
         12    1    4    4    0    0 -0.34602459711E+02  0.12465329452E+02  0.24146305243E+03  0.24424807133E+03  0.00000000000E+00 0. -1.
         -5    1    5    5    0  502  0.13354798616E+03  0.10694181599E+01  0.26970969815E+03  0.30100102913E+03  0.47000000000E+01 0.  1.
         13    1    6    6    0    0  0.37416500613E+02  0.81232403923E+01  0.73929253410E+02  0.83255726904E+02  0.00000000000E+00 0. -1.
        -14    1    6    6    0    0 -0.45952523924E+01 -0.13004447017E+01 -0.18837223529E+02  0.19433180163E+02  0.00000000000E+00 0.  1.
</event>
<event>
12    1  0.1628146E-001  0.2367766E+03  0.7818608E-02  0.1122005E+00
         21   -1    0    0  503  502  0.00000000000E+00  0.00000000000E+00  0.10588102785E+03  0.10588102785E+03  0.00000000000E+00 0. -1.
         21   -1    0    0  501  503 -0.00000000000E+00 -0.00000000000E+00 -0.83248740184E+03  0.83248740184E+03  0.00000000000E+00 0.  1.
          6    2    1    2  501    0  0.92753209364E+02 -0.13305137890E+03 -0.64650955887E+03  0.68841109682E+03  0.17213192972E+03 0.  0.
         24    2    3    3    0    0  0.28483513787E+02  0.55822284623E+01 -0.20976141375E+03  0.22567909756E+03  0.78030330947E+02 0.  0.
         -6    2    1    2    0  502 -0.92753209364E+02  0.13305137890E+03 -0.80096815112E+02  0.24995733288E+03  0.17250316285E+03 0.  0.
        -24    2    5    5    0    0 -0.45137628642E+02  0.10019738863E+03  0.16962515369E+02  0.13686784690E+03  0.79800741736E+02 0.  0.
          5    1    3    3  501    0  0.64269695577E+02 -0.13863360736E+03 -0.43674814513E+03  0.46273199925E+03  0.47000000000E+01 0. -1.
        -11    1    4    4    0    0  0.31051319176E+02 -0.32467454325E+02 -0.12104590574E+03  0.12911402445E+03  0.00000000000E+00 0.  1.
         12    1    4    4    0    0 -0.25678053881E+01  0.38049682787E+02 -0.88715508002E+02  0.96565073111E+02  0.00000000000E+00 0. -1.
         -5    1    5    5    0  502 -0.47615580723E+02  0.32853990272E+02 -0.97059330482E+02  0.11308948597E+03  0.47000000000E+01 0.  1.
         11    1    6    6    0    0  0.12901741125E+02 -0.20116914566E+01  0.14208497409E+02  0.19297233615E+02  0.00000000000E+00 0. -1.
        -12    1    6    6    0    0 -0.58039369767E+02  0.10220908008E+03  0.27540179607E+01  0.11757061329E+03  0.00000000000E+00 0.  1.
</event>
<event>
12    1  0.1628146E-001  0.1756001E+03  0.7818608E-02  0.1173490E+00
         21   -1    0    0  503  502  0.00000000000E+00  0.00000000000E+00  0.71806898942E+03  0.71806898942E+03  0.00000000000E+00 0.  1.
         21   -1    0    0  501  503 -0.00000000000E+00 -0.00000000000E+00 -0.11725978202E+03  0.11725978202E+03  0.00000000000E+00 0.  1.
          6    2    1    2  501    0  0.31407028218E+00  0.28736975018E+02 -0.33328599228E+02  0.17873495115E+03  0.17323243017E+03 0.  0.
         24    2    3    3    0    0  0.60922784283E+02  0.43942329963E+02 -0.35775300002E+02  0.11602374500E+03  0.80864845924E+02 0.  0.
         -6    2    1    2    0  502 -0.31407028218E+00 -0.28736975018E+02  0.63413780663E+03  0.65659382029E+03  0.16780576472E+03 0.  0.
        -24    2    5    5    0    0 -0.36308521992E+02 -0.58034922052E+02  0.55408318684E+03  0.56393961152E+03  0.79582325603E+02 0.  0.
          5    1    3    3  501    0 -0.60608714001E+02 -0.15205354946E+02  0.24467007746E+01  0.62711206148E+02  0.47000000000E+01 0. -1.
        -11    1    4    4    0    0  0.54316303611E+02  0.41614666863E+02 -0.59877095815E+02  0.90924737774E+02  0.00000000000E+00 0.  1.
         12    1    4    4    0    0  0.66064806717E+01  0.23276631009E+01  0.24101795813E+02  0.25099007227E+02  0.00000000000E+00 0. -1.
         -5    1    5    5    0  502  0.35994451710E+02  0.29297947034E+02  0.80054619785E+02  0.92654208772E+02  0.47000000000E+01 0.  1.
         13    1    6    6    0    0 -0.16743539267E+02  0.13018476519E+02  0.47451202647E+02  0.51975412174E+02  0.00000000000E+00 0. -1.
        -14    1    6    6    0    0 -0.19564982725E+02 -0.71053398571E+02  0.50663198420E+03  0.51196419934E+03  0.00000000000E+00 0.  1.
</event>
<event>
12    1  0.1628146E-001  0.2806011E+03  0.7818608E-02  0.1095780E+00
         21   -1    0    0  501  502  0.00000000000E+00  0.00000000000E+00  0.53388789961E+02  0.53388789961E+02  0.00000000000E+00 0. -1.
         21   -1    0    0  502  503 -0.00000000000E+00 -0.00000000000E+00 -0.31472017962E+04  0.31472017962E+04  0.00000000000E+00 0.  1.
         -6    2    1    2    0  503 -0.78876970308E+01 -0.21667744392E+03 -0.27151170821E+04  0.27292652569E+04  0.17325340532E+03 0.  0.
        -24    2    3    3    0    0 -0.73520160915E+02 -0.14966816445E+03 -0.18740267892E+04  0.18829480382E+04  0.75572047517E+02 0.  0.
          6    2    1    2  501    0  0.78876970308E+01  0.21667744392E+03 -0.37869592417E+03  0.47132532931E+03  0.17811690710E+03 0.  0.
         24    2    5    5    0    0 -0.45662959178E+02  0.56366719935E+02 -0.10104505028E+03  0.14624180346E+03  0.76904160721E+02 0.  0.
          5    1    5    5  501    0  0.53550656208E+02  0.16031072399E+03 -0.27765087389E+03  0.32508352585E+03  0.47000000000E+01 0. -1.
        -11    1    6    6    0    0  0.16466390213E+02 -0.34438954853E+01 -0.30467121038E+02  0.34802986755E+02  0.00000000000E+00 0.  1.
         12    1    6    6    0    0 -0.62129349390E+02  0.59810615420E+02 -0.70577929246E+02  0.11143881671E+03  0.00000000000E+00 0. -1.
         -5    1    3    3    0  503  0.65632463884E+02 -0.67009279477E+02 -0.84109029289E+03  0.84631721868E+03  0.47000000000E+01 0.  1.
         11    1    4    4    0    0 -0.37091352298E+02 -0.13074979577E+03 -0.16127403234E+04  0.16184568664E+04  0.00000000000E+00 0. -1.
        -12    1    4    4    0    0 -0.36428808617E+02 -0.18918368678E+02 -0.26128646576E+03  0.26449117180E+03  0.00000000000E+00 0.  1.
</event>
<event>
12    1  0.1628146E-001  0.3387269E+03  0.7818608E-02  0.1067359E+00
         21   -1    0    0  503  502  0.00000000000E+00  0.00000000000E+00  0.44261338999E+03  0.44261338999E+03  0.00000000000E+00 0. -1.
         21   -1    0    0  501  503 -0.00000000000E+00 -0.00000000000E+00 -0.35696411923E+03  0.35696411923E+03  0.00000000000E+00 0.  1.
          6    2    1    2  501    0 -0.21632110529E+03  0.19527420690E+03 -0.16652743474E+03  0.37728734431E+03  0.17230065926E+03 0.  0.
         24    2    3    3    0    0 -0.15823417123E+03  0.10253315894E+03 -0.17112078215E+03  0.26765987181E+03  0.82512927891E+02 0.  0.
         -6    2    1    2    0  502  0.21632110529E+03 -0.19527420690E+03  0.25217670549E+03  0.42229016491E+03  0.17265299334E+03 0.  0.
        -24    2    5    5    0    0  0.94243301439E+02 -0.15157948416E+03  0.20685077450E+03  0.28485381961E+03  0.80599725484E+02 0.  0.
          5    1    3    3  501    0 -0.58086934062E+02  0.92741047960E+02  0.45933474092E+01  0.10962747250E+03  0.47000000000E+01 0. -1.
        -11    1    4    4    0    0 -0.15899581462E+03  0.72414914551E+02 -0.13611424058E+03  0.22147387071E+03  0.00000000000E+00 0.  1.
         12    1    4    4    0    0  0.76164339293E+00  0.30118244389E+02 -0.35006541565E+02  0.46186001105E+02  0.00000000000E+00 0. -1.
         -5    1    5    5    0  502  0.12207780385E+03 -0.43694722739E+02  0.45325930991E+02  0.13743634530E+03  0.47000000000E+01 0.  1.
         11    1    6    6    0    0  0.64543353808E+02 -0.12797089030E+03  0.10949050101E+03  0.18036231064E+03  0.00000000000E+00 0. -1.
        -12    1    6    6    0    0  0.29699947631E+02 -0.23608593856E+02  0.97360273488E+02  0.10449150897E+03  0.00000000000E+00 0.  1.
</event>
<event>
12    1  0.1628146E-001  0.2177136E+03  0.7818608E-02  0.1135611E+00
         21   -1    0    0  503  502  0.00000000000E+00  0.00000000000E+00  0.23214530455E+04  0.23214530455E+04  0.00000000000E+00 0. -1.
         21   -1    0    0  501  503 -0.00000000000E+00 -0.00000000000E+00 -0.39977471914E+02  0.39977471914E+02  0.00000000000E+00 0. -1.
          6    2    1    2  501    0 -0.13124191950E+03 -0.18950846614E+02  0.31464580409E+03  0.38258778333E+03  0.17259158121E+03 0.  0.
         24    2    3    3    0    0 -0.92991538909E+02  0.35865216989E+02  0.27900263010E+03  0.30669036377E+03  0.79263935871E+02 0.  0.
         -6    2    1    2    0  502  0.13124191950E+03  0.18950846614E+02  0.19668297695E+04  0.19788427340E+04  0.17267208231E+03 0.  0.
        -24    2    5    5    0    0  0.15228732133E+03 -0.11670325148E+01  0.12731495991E+04  0.12845359526E+04  0.77005984443E+02 0.  0.
          5    1    3    3  501    0 -0.38250380594E+02 -0.54816063603E+02  0.35643173988E+02  0.75897419564E+02  0.47000000000E+01 0. -1.
        -11    1    4    4    0    0 -0.75607580689E+02 -0.79721694427E+01  0.13223507912E+03  0.15253254699E+03  0.00000000000E+00 0.  1.
         12    1    4    4    0    0 -0.17383958220E+02  0.43837386431E+02  0.14676755098E+03  0.15415781678E+03  0.00000000000E+00 0. -1.
         -5    1    5    5    0  502 -0.21045401824E+02  0.20117879129E+02  0.69368017039E+03  0.69430678147E+03  0.47000000000E+01 0.  1.
         13    1    6    6    0    0  0.14475957504E+03  0.15152643538E+02  0.12146063527E+04  0.12232961740E+04  0.00000000000E+00 0. -1.
        -14    1    6    6    0    0  0.75277462861E+01 -0.16319676053E+02  0.58543246334E+02  0.61239778592E+02  0.00000000000E+00 0.  1.
</event>
<event>
12    1  0.1628146E-001  0.2669664E+03  0.7818608E-02  0.1103085E+00
         21   -1    0    0  501  502  0.00000000000E+00  0.00000000000E+00  0.26805663932E+03  0.26805663932E+03  0.00000000000E+00 0. -1.
         21   -1    0    0  502  503 -0.00000000000E+00 -0.00000000000E+00 -0.26551781405E+03  0.26551781405E+03  0.00000000000E+00 0.  1.
         -6    2    1    2    0  503  0.19625259809E+03  0.53066660363E+02 -0.11349609930E+01  0.26696879814E+03  0.17303149524E+03 0.  0.
        -24    2    3    3    0    0  0.15461332825E+03 -0.23058238306E+02 -0.20763954659E+02  0.17788335386E+03  0.82306634852E+02 0.  0.
          6    2    1    2  501    0 -0.19625259809E+03 -0.53066660363E+02  0.36737862675E+01  0.26660565524E+03  0.17243528061E+03 0.  0.
         24    2    5    5    0    0 -0.16511757497E+03 -0.10073454268E+03  0.98969272661E+01  0.20913884609E+03  0.78929374276E+02 0.  0.
          5    1    5    5  501    0 -0.31135023122E+02  0.47667882315E+02 -0.62231409987E+01  0.57466809144E+02  0.47000000000E+01 0. -1.
        -11    1    6    6    0    0 -0.10224137111E+03 -0.22749080711E+02  0.25382706700E+02  0.10777337537E+03  0.00000000000E+00 0.  1.
         12    1    6    6    0    0 -0.62876203861E+02 -0.77985461967E+02 -0.15485779434E+02  0.10136547072E+03  0.00000000000E+00 0. -1.
         -5    1    3    3    0  503  0.41639269843E+02  0.76124898670E+02  0.19628993666E+02  0.89085444282E+02  0.47000000000E+01 0.  1.
         11    1    4    4    0    0  0.10663862077E+03 -0.39753270465E+02 -0.44009829015E+02  0.12202042043E+03  0.00000000000E+00 0. -1.
        -12    1    4    4    0    0  0.47974707482E+02  0.16695032159E+02  0.23245874355E+02  0.55862933429E+02  0.00000000000E+00 0.  1.
</event>
<event>
12    1  0.1628146E-001  0.2370777E+03  0.7818608E-02  0.1122061E+00
         21   -1    0    0  503  502  0.00000000000E+00  0.00000000000E+00  0.14326328864E+04  0.14326328864E+04  0.00000000000E+00 0.  1.
         21   -1    0    0  501  503 -0.00000000000E+00 -0.00000000000E+00 -0.44232846112E+02  0.44232846112E+02  0.00000000000E+00 0.  1.
          6    2    1    2  501    0 -0.32420880550E+02  0.15738430772E+03  0.43630160693E+03  0.49569436733E+03  0.17185133046E+03 0.  0.
         24    2    3    3    0    0 -0.83229119046E+02  0.73202746588E+02  0.26711933504E+03  0.29995795412E+03  0.79600921630E+02 0.  0.
         -6    2    1    2    0  502  0.32420880550E+02 -0.15738430772E+03  0.95209843333E+03  0.98117136515E+03  0.17431261351E+03 0.  0.
        -24    2    5    5    0    0  0.40099258337E+02 -0.18292746695E+03  0.89614565327E+03  0.91900856224E+03  0.80182896671E+02 0.  0.
          5    1    3    3  501    0  0.50808238495E+02  0.84181561137E+02  0.16918227189E+03  0.19573641321E+03  0.47000000000E+01 0. -1.
        -11    1    4    4    0    0 -0.81101365106E+02  0.61158523132E+02  0.14393408253E+03  0.17616701305E+03  0.00000000000E+00 0.  1.
         12    1    4    4    0    0 -0.21277539401E+01  0.12044223456E+02  0.12318525251E+03  0.12379094107E+03  0.00000000000E+00 0. -1.
         -5    1    5    5    0  502 -0.76783777870E+01  0.25543159228E+02  0.55952780064E+02  0.62162802910E+02  0.47000000000E+01 0.  1.
         11    1    6    6    0    0 -0.22930077247E+02 -0.73349294183E+02  0.30961019212E+03  0.31900529535E+03  0.00000000000E+00 0. -1.
        -12    1    6    6    0    0  0.63029335585E+02 -0.10957817277E+03  0.58653546115E+03  0.60000326689E+03  0.00000000000E+00 0.  1.
</event>
<event>
12    1  0.1628146E-001  0.1937135E+03  0.7818608E-02  0.1155165E+00
         21   -1    0    0  503  502  0.00000000000E+00  0.00000000000E+00  0.49127020970E+03  0.49127020970E+03  0.00000000000E+00 0. -1.
         21   -1    0    0  501  503 -0.00000000000E+00 -0.00000000000E+00 -0.80448944694E+02  0.80448944694E+02  0.00000000000E+00 0. -1.
          6    2    1    2  501    0  0.27092592298E+01 -0.88724452507E+02  0.14101805647E+03  0.23960596510E+03  0.17217885381E+03 0.  0.
         24    2    3    3    0    0 -0.63986503367E+02 -0.44337990726E+02  0.81686001835E+02  0.13980182969E+03  0.82533742512E+02 0.  0.
         -6    2    1    2    0  502 -0.27092592298E+01  0.88724452507E+02  0.26980320853E+03  0.33211318930E+03  0.17212213864E+03 0.  0.
        -24    2    5    5    0    0 -0.30255478995E+02 -0.85760643927E+01  0.17509577178E+03  0.19348500533E+03  0.76085314643E+02 0.  0.
          5    1    3    3  501    0  0.66695762597E+02 -0.44386461782E+02  0.59332054638E+02  0.99804135413E+02  0.47000000000E+01 0. -1.
        -11    1    4    4    0    0 -0.10004572694E+02  0.17317749789E+02  0.46501163853E+02  0.50619701423E+02  0.00000000000E+00 0.  1.
         12    1    4    4    0    0 -0.53981930673E+02 -0.61655740514E+02  0.35184837982E+02  0.89182128262E+02  0.00000000000E+00 0. -1.
         -5    1    5    5    0  502  0.27546219765E+02  0.97300516900E+02  0.94707436756E+02  0.13862818396E+03  0.47000000000E+01 0.  1.
         11    1    6    6    0    0 -0.47929106513E+02 -0.11097423569E+02  0.62784445442E+02  0.79763642410E+02  0.00000000000E+00 0. -1.
        -12    1    6    6    0    0  0.17673627518E+02  0.25213591766E+01  0.11231132633E+03  0.11372136292E+03  0.00000000000E+00 0.  1.
</event>
<event>
12    1  0.1628146E-001  0.1874406E+03  0.7818608E-02  0.1161042E+00
         21   -1    0    0  503  502  0.00000000000E+00  0.00000000000E+00  0.10002719287E+03  0.10002719287E+03  0.00000000000E+00 0.  1.
         21   -1    0    0  501  503 -0.00000000000E+00 -0.00000000000E+00 -0.58168712683E+03  0.58168712683E+03  0.00000000000E+00 0.  1.
          6    2    1    2  501    0 -0.46212731533E+02  0.58104424518E+02 -0.45589727852E+03  0.49251154689E+03  0.17091973133E+03 0.  0.
         24    2    3    3    0    0 -0.40693565413E+02  0.10448350426E+03 -0.39323413019E+03  0.41421569521E+03  0.66096838659E+02 0.  0.
         -6    2    1    2    0  502  0.46212731533E+02 -0.58104424518E+02 -0.25762655435E+02  0.18920277281E+03  0.17211110981E+03 0.  0.
        -24    2    5    5    0    0  0.86697903854E+02 -0.29004166045E+01 -0.66896670728E+01  0.11798198545E+03  0.79687253028E+02 0.  0.
          5    1    3    3  501    0 -0.55191661198E+01 -0.46379079745E+02 -0.62663148328E+02  0.78295851685E+02  0.47000000000E+01 0. -1.
        -11    1    4    4    0    0 -0.28276264223E+02  0.86337475570E+01 -0.54990144186E+02  0.62434002538E+02  0.00000000000E+00 0.  1.
         12    1    4    4    0    0 -0.12417301189E+02  0.95849756707E+02 -0.33824398600E+03  0.35178169267E+03  0.00000000000E+00 0. -1.
         -5    1    5    5    0  502 -0.40485172321E+02 -0.55204007914E+02 -0.19072988362E+02  0.71220787364E+02  0.47000000000E+01 0.  1.
         13    1    6    6    0    0 -0.43141561133E+01  0.13200260260E+02  0.17599186837E+02  0.22418523395E+02  0.00000000000E+00 0. -1.
        -14    1    6    6    0    0  0.91012059967E+02 -0.16100676864E+02 -0.24288853910E+02  0.95563462051E+02  0.00000000000E+00 0.  1.
</event>
<event>
12    1  0.1628146E-001  0.2516750E+03  0.7818608E-02  0.1112273E+00
         21   -1    0    0  501  502  0.00000000000E+00  0.00000000000E+00  0.11132147410E+03  0.11132147410E+03  0.00000000000E+00 0. -1.
         21   -1    0    0  502  503 -0.00000000000E+00 -0.00000000000E+00 -0.65654396396E+03  0.65654396396E+03  0.00000000000E+00 0.  1.
         -6    2    1    2    0  503  0.18385061359E+03 -0.73013510889E+00 -0.41300458963E+03  0.48357356656E+03  0.17166543626E+03 0.  0.
        -24    2    3    3    0    0  0.30585305539E+02 -0.20675583631E+02 -0.98272689094E+02  0.13290800683E+03  0.81511202811E+02 0.  0.
          6    2    1    2  501    0 -0.18385061359E+03  0.73013510889E+00 -0.13221790024E+03  0.28429187150E+03  0.17186830377E+03 0.  0.
         24    2    5    5    0    0 -0.67311334426E+02  0.47193699697E+02 -0.10516996621E+03  0.15586310853E+03  0.80464437952E+02 0.  0.
          5    1    5    5  501    0 -0.11653927917E+03 -0.46463564588E+02 -0.27047934031E+02  0.12842876297E+03  0.47000000000E+01 0. -1.
        -11    1    6    6    0    0 -0.42536906141E+02 -0.13589285493E+02 -0.21618963162E+02  0.49612867610E+02  0.00000000000E+00 0.  1.
         12    1    6    6    0    0 -0.24774428285E+02  0.60782985190E+02 -0.83551003044E+02  0.10625024092E+03  0.00000000000E+00 0. -1.
         -5    1    3    3    0  503  0.15326530805E+03  0.19945448522E+02 -0.31473190053E+03  0.35066555973E+03  0.47000000000E+01 0.  1.
         11    1    4    4    0    0  0.14415397512E+02  0.81163590928E+01  0.10257557064E+02  0.19465262579E+02  0.00000000000E+00 0. -1.
        -12    1    4    4    0    0  0.16169908026E+02 -0.28791942724E+02 -0.10853024616E+03  0.11344274425E+03  0.00000000000E+00 0.  1.
</event>
<event>
12    1  0.1628146E-001  0.1801092E+03  0.7818608E-02  0.1168275E+00
         21   -1    0    0  501  502  0.00000000000E+00  0.00000000000E+00  0.34083533668E+03  0.34083533668E+03  0.00000000000E+00 0.  1.
         21   -1    0    0  502  503 -0.00000000000E+00 -0.00000000000E+00 -0.36713465328E+03  0.36713465328E+03  0.00000000000E+00 0.  1.
         -6    2    1    2    0  503  0.44557676379E+02 -0.27739048658E+02 -0.31849016463E+03  0.36472835489E+03  0.16981150300E+03 0.  0.
        -24    2    3    3    0    0  0.86134753207E+02 -0.54111374282E+02 -0.20807951217E+03  0.24374589727E+03  0.75945654994E+02 0.  0.
          6    2    1    2  501    0 -0.44557676379E+02  0.27739048658E+02  0.29219084802E+03  0.34324163507E+03  0.17229186584E+03 0.  0.
         24    2    5    5    0    0 -0.42952290924E+02  0.43627409311E+01  0.30331918241E+03  0.31687956285E+03  0.80908578826E+02 0.  0.
          5    1    5    5  501    0 -0.16053854542E+01  0.23376307726E+02 -0.11128334393E+02  0.26362072220E+02  0.47000000000E+01 0. -1.
        -13    1    6    6    0    0 -0.55765754534E+02  0.15106336467E+02  0.12418821968E+03  0.13696983130E+03  0.00000000000E+00 0.  1.
         14    1    6    6    0    0  0.12813463610E+02 -0.10743595536E+02  0.17913096274E+03  0.17990973155E+03  0.00000000000E+00 0. -1.
         -5    1    3    3    0  503 -0.41577076828E+02  0.26372325625E+02 -0.11041065246E+03  0.12098245762E+03  0.47000000000E+01 0.  1.
         11    1    4    4    0    0  0.64856301920E+02 -0.53184489070E+01 -0.69085283084E+02  0.94907334470E+02  0.00000000000E+00 0. -1.
        -12    1    4    4    0    0  0.21278451287E+02 -0.48792925375E+02 -0.13899422909E+03  0.14883856280E+03  0.00000000000E+00 0.  1.
</event>
<event>
12    1  0.1628146E-001  0.2315581E+03  0.7818608E-02  0.1125570E+00
         21   -1    0    0  501  502  0.00000000000E+00  0.00000000000E+00  0.36679721092E+03  0.36679721092E+03  0.00000000000E+00 0. -1.
         21   -1    0    0  502  503 -0.00000000000E+00 -0.00000000000E+00 -0.29147719337E+03  0.29147719337E+03  0.00000000000E+00 0. -1.
         -6    2    1    2    0  503 -0.35958079802E+02 -0.15091834484E+03  0.27010850943E+03  0.35577769050E+03  0.17190063375E+03 0.  0.
        -24    2    3    3    0    0 -0.67414397099E+02 -0.14506851621E+03  0.15698577823E+03  0.23812326982E+03  0.80427493646E+02 0.  0.
          6    2    1    2  501    0  0.35958079802E+02  0.15091834484E+03 -0.19478849188E+03  0.30249671379E+03  0.17173344163E+03 0.  0.
         24    2    5    5    0    0  0.28862106365E+02  0.40649373929E+02 -0.19995036232E+02  0.95652712377E+02  0.79146996952E+02 0.  0.
          5    1    5    5  501    0  0.70959734369E+01  0.11026897091E+03 -0.17479345564E+03  0.20684400141E+03  0.47000000000E+01 0. -1.
        -13    1    6    6    0    0  0.42258999191E+02  0.57909954483E+02 -0.15203893958E+02  0.73283997109E+02  0.00000000000E+00 0.  1.
         14    1    6    6    0    0 -0.13396892826E+02 -0.17260580554E+02 -0.47911422736E+01  0.22368715268E+02  0.00000000000E+00 0. -1.
         -5    1    3    3    0  503  0.31456317297E+02 -0.58498286340E+01  0.11312273119E+03  0.11765442068E+03  0.47000000000E+01 0.  1.
         13    1    4    4    0    0 -0.61747439754E+01 -0.86502747534E+02  0.11362014854E+03  0.14293491857E+03  0.00000000000E+00 0. -1.
        -14    1    4    4    0    0 -0.61239653123E+02 -0.58565768671E+02  0.43365629693E+02  0.95188351249E+02  0.00000000000E+00 0.  1.
</event>
<event>
12    1  0.1628146E-001  0.2425755E+03  0.7818608E-02  0.1118352E+00
         21   -1    0    0  501  502  0.00000000000E+00  0.00000000000E+00  0.49294410339E+03  0.49294410339E+03  0.00000000000E+00 0.  1.
         21   -1    0    0  502  503 -0.00000000000E+00 -0.00000000000E+00 -0.13355531574E+03  0.13355531574E+03  0.00000000000E+00 0.  1.
         -6    2    1    2    0  503  0.10503121702E+03  0.13194320019E+03  0.75351512645E+02  0.25400926539E+03  0.17436252986E+03 0.  0.
        -24    2    3    3    0    0 -0.53831371262E+01  0.46028088468E+02  0.68025427818E+02  0.11383616689E+03  0.78636193759E+02 0.  0.
          6    2    1    2  501    0 -0.10503121702E+03 -0.13194320019E+03  0.28403727500E+03  0.37249015374E+03  0.17213708613E+03 0.  0.
         24    2    5    5    0    0 -0.59029630829E+02 -0.18229047499E+01  0.45560446262E+02  0.96916706072E+02  0.61881122766E+02 0.  0.
          5    1    5    5  501    0 -0.46001586195E+02 -0.13012029544E+03  0.23847682874E+03  0.27557344767E+03  0.47000000000E+01 0. -1.
        -13    1    6    6    0    0 -0.34787568891E+02 -0.28914813312E+02  0.39513077996E+02  0.60062673192E+02  0.00000000000E+00 0.  1.
         14    1    6    6    0    0 -0.24242061938E+02  0.27091908563E+02  0.60473682651E+01  0.36854032880E+02  0.00000000000E+00 0. -1.
         -5    1    3    3    0  503  0.11041435415E+03  0.85915111721E+02  0.73260848273E+01  0.14017309850E+03  0.47000000000E+01 0.  1.
         13    1    4    4    0    0 -0.33343144663E+02  0.28899346617E+01  0.48326941932E+02  0.58784439564E+02  0.00000000000E+00 0. -1.
        -14    1    4    4    0    0  0.27960007537E+02  0.43138153806E+02  0.19698485886E+02  0.55051727325E+02  0.00000000000E+00 0.  1.
</event>
<event>
12    1  0.1628146E-001  0.1767824E+03  0.7818608E-02  0.1171202E+00
         21   -1    0    0  501  502  0.00000000000E+00  0.00000000000E+00  0.11473338369E+03  0.11473338369E+03  0.00000000000E+00 0.  1.
         21   -1    0    0  502  503 -0.00000000000E+00 -0.00000000000E+00 -0.27912829547E+03  0.27912829547E+03  0.00000000000E+00 0.  1.
         -6    2    1    2    0  503  0.23723258277E+02 -0.28038467029E+02 -0.11633658165E+03  0.21162753497E+03  0.17292502627E+03 0.  0.
        -24    2    3    3    0    0  0.19659101943E+02  0.49671313952E+02 -0.85586196742E+02  0.12782417228E+03  0.78487592820E+02 0.  0.
          6    2    1    2  501    0 -0.23723258277E+02  0.28038467029E+02 -0.48058330130E+02  0.18223414419E+03  0.17190326232E+03 0.  0.
         24    2    5    5    0    0 -0.39335567921E+02  0.63673071760E+02 -0.76573920115E+02  0.13376974345E+03  0.80182492169E+02 0.  0.
          5    1    5    5  501    0  0.15612309644E+02 -0.35634604732E+02  0.28515589984E+02  0.48464400739E+02  0.47000000000E+01 0. -1.
        -13    1    6    6    0    0 -0.33931866541E+02  0.29391130906E+02  0.49528630174E+01  0.45163491837E+02  0.00000000000E+00 0.  1.
         14    1    6    6    0    0 -0.54037013799E+01  0.34281940854E+02 -0.81526783132E+02  0.88606251615E+02  0.00000000000E+00 0. -1.
         -5    1    3    3    0  503  0.40641563334E+01 -0.77709780981E+02 -0.30750384906E+02  0.83803362693E+02  0.47000000000E+01 0.  1.
         11    1    4    4    0    0  0.27885737567E+02  0.60810131053E+01  0.30536516615E+01  0.28703969561E+02  0.00000000000E+00 0. -1.
        -12    1    4    4    0    0 -0.82266356243E+01  0.43590300847E+02 -0.88639848404E+02  0.99120202717E+02  0.00000000000E+00 0.  1.
</event>
<event>
12    1  0.1628146E-001  0.2433135E+03  0.7818608E-02  0.1119122E+00
         21   -1    0    0  501  502  0.00000000000E+00  0.00000000000E+00  0.86552482938E+03  0.86552482938E+03  0.00000000000E+00 0. -1.
         21   -1    0    0  502  503 -0.00000000000E+00 -0.00000000000E+00 -0.79283844530E+02  0.79283844530E+02  0.00000000000E+00 0. -1.
         -6    2    1    2    0  503 -0.15461129789E+03 -0.35013015894E+02  0.19262170396E+03  0.30325951661E+03  0.17243157733E+03 0.  0.
        -24    2    3    3    0    0 -0.17569032206E+03 -0.59684411996E+02  0.16947202571E+03  0.26312224404E+03  0.77995060818E+02 0.  0.
          6    2    1    2  501    0  0.15461129789E+03  0.35013015894E+02  0.59361928089E+03  0.64154915731E+03  0.18458305955E+03 0.  0.
         24    2    5    5    0    0  0.10457704537E+03  0.93453514993E+02  0.46511872982E+03  0.49170523855E+03  0.75951898669E+02 0.  0.
          5    1    5    5  501    0  0.50034252514E+02 -0.58440499100E+02  0.12850055108E+03  0.14984391875E+03  0.47000000000E+01 0. -1.
        -13    1    6    6    0    0  0.43592479605E+02 -0.48287208171E+00  0.86429488300E+02  0.96801827934E+02  0.00000000000E+00 0.  1.
         14    1    6    6    0    0  0.60984565768E+02  0.93936387075E+02  0.37868924152E+03  0.39490341062E+03  0.00000000000E+00 0. -1.
         -5    1    3    3    0  503  0.21079024173E+02  0.24671396103E+02  0.23149678251E+02  0.40137272564E+02  0.47000000000E+01 0.  1.
         11    1    4    4    0    0 -0.10017175957E+03 -0.70381124435E+02  0.83479534131E+02  0.14817798997E+03  0.00000000000E+00 0. -1.
        -12    1    4    4    0    0 -0.75518562487E+02  0.10696712438E+02  0.85992491574E+02  0.11494425407E+03  0.00000000000E+00 0.  1.
</event>
<event>
12    1  0.1628146E-001  0.2583999E+03  0.7818608E-02  0.1108113E+00
         21   -1    0    0  501  502  0.00000000000E+00  0.00000000000E+00  0.13012437012E+03  0.13012437012E+03  0.00000000000E+00 0.  1.
         21   -1    0    0  502  503 -0.00000000000E+00 -0.00000000000E+00 -0.76373116456E+03  0.76373116456E+03  0.00000000000E+00 0. -1.
         -6    2    1    2    0  503 -0.18871774378E+03 -0.37031832115E+02 -0.57283528286E+03  0.62840554411E+03  0.17253267275E+03 0.  0.
        -24    2    3    3    0    0 -0.20195427345E+03 -0.50910701008E+02 -0.43251822570E+03  0.48670587844E+03  0.80207035270E+02 0.  0.
          6    2    1    2  501    0  0.18871774378E+03  0.37031832115E+02 -0.60771511590E+02  0.26544999058E+03  0.17258266850E+03 0.  0.
         24    2    5    5    0    0  0.70564630583E+02 -0.39358440804E+02 -0.49502426732E+01  0.11401110515E+03  0.80284327507E+02 0.  0.
          5    1    5    5  501    0  0.11815311320E+03  0.76390272919E+02 -0.55821268917E+02  0.15143888542E+03  0.47000000000E+01 0. -1.
        -13    1    6    6    0    0  0.69013066425E+02 -0.50962726028E+02 -0.26240799343E+02  0.89713891521E+02  0.00000000000E+00 0.  1.
         14    1    6    6    0    0  0.15515641580E+01  0.11604285224E+02  0.21290556669E+02  0.24297213630E+02  0.00000000000E+00 0. -1.
         -5    1    3    3    0  503  0.13236529664E+02  0.13878868893E+02 -0.14031705716E+03  0.14169966567E+03  0.47000000000E+01 0.  1.
         13    1    4    4    0    0 -0.93492520826E+02  0.24942808651E+01 -0.25777975584E+03  0.27422158086E+03  0.00000000000E+00 0. -1.
        -14    1    4    4    0    0 -0.10846175262E+03 -0.53404981874E+02 -0.17473846985E+03  0.21248429758E+03  0.00000000000E+00 0.  1.
</event>
<event>
12    1  0.1628146E-001  0.3459085E+03  0.7818608E-02  0.1064380E+00
         21   -1    0    0  501  502  0.00000000000E+00  0.00000000000E+00  0.25693359889E+04  0.25693359889E+04  0.00000000000E+00 0.  1.
         21   -1    0    0  502  503 -0.00000000000E+00 -0.00000000000E+00 -0.70196991721E+02  0.70196991721E+02  0.00000000000E+00 0.  1.
         -6    2    1    2    0  503 -0.47483154526E+01  0.29943890592E+03  0.48320706125E+03  0.59425732037E+03  0.17310832994E+03 0.  0.
        -24    2    3    3    0    0  0.58435587760E+02  0.16381470637E+03  0.31930881314E+03  0.37228692852E+03  0.79934116945E+02 0.  0.
          6    2    1    2  501    0  0.47483154526E+01 -0.29943890592E+03  0.20159319359E+04  0.20452756602E+04  0.17171124372E+03 0.  0.
         24    2    5    5    0    0  0.60658663141E+01 -0.26584058792E+03  0.13368597932E+04  0.13653553356E+04  0.79328889476E+02 0.  0.
          5    1    5    5  501    0 -0.13175508615E+01 -0.33598317996E+02  0.67907214268E+03  0.67992032465E+03  0.47000000000E+01 0. -1.
        -13    1    6    6    0    0  0.38841112784E+02 -0.10521819881E+03  0.47705525485E+03  0.49006246294E+03  0.00000000000E+00 0.  1.
         14    1    6    6    0    0 -0.32775246470E+02 -0.16062238911E+03  0.85980453835E+03  0.87529287261E+03  0.00000000000E+00 0. -1.
         -5    1    3    3    0  503 -0.63183903213E+02  0.13562419955E+03  0.16389824810E+03  0.22197039185E+03  0.47000000000E+01 0.  1.
         11    1    4    4    0    0 -0.62648196217E+01  0.11603803131E+02  0.81856557812E+02  0.82911954921E+02  0.00000000000E+00 0. -1.
        -12    1    4    4    0    0  0.64700407382E+02  0.15221090324E+03  0.23745225533E+03  0.28937497360E+03  0.00000000000E+00 0.  1.
</event>
<event>
12    1  0.1628146E-001  0.2127375E+03  0.7818608E-02  0.1139453E+00
         21   -1    0    0  503  502  0.00000000000E+00  0.00000000000E+00  0.29336186677E+03  0.29336186677E+03  0.00000000000E+00 0.  1.
         21   -1    0    0  501  503 -0.00000000000E+00 -0.00000000000E+00 -0.24904848275E+03  0.24904848275E+03  0.00000000000E+00 0. -1.
          6    2    1    2  501    0 -0.67015313467E+02  0.10499249560E+03 -0.14527583021E+03  0.25745190402E+03  0.17222641978E+03 0.  0.
         24    2    3    3    0    0 -0.83449327194E+02  0.13081670470E+03 -0.94418045318E+02  0.19790720764E+03  0.78585591038E+02 0.  0.
         -6    2    1    2    0  502  0.67015313467E+02 -0.10499249560E+03  0.18958921423E+03  0.28495844550E+03  0.17246092060E+03 0.  0.
        -24    2    5    5    0    0 -0.85891564624E+01 -0.10660736636E+03  0.99569304189E+02  0.16729656600E+03  0.81456678606E+02 0.  0.
          5    1    3    3  501    0  0.16434013726E+02 -0.25824209099E+02 -0.50857784892E+02  0.59544696379E+02  0.47000000000E+01 0. -1.
        -11    1    4    4    0    0 -0.35571490512E+02  0.89033102985E+02 -0.16374184476E+02  0.97264270324E+02  0.00000000000E+00 0.  1.
         12    1    4    4    0    0 -0.47877836681E+02  0.41783601714E+02 -0.78043860841E+02  0.10064293732E+03  0.00000000000E+00 0. -1.
         -5    1    5    5    0  502  0.75604469930E+02  0.16148707576E+01  0.90019910045E+02  0.11766187949E+03  0.47000000000E+01 0.  1.
         13    1    6    6    0    0 -0.19737475306E+02 -0.18441641105E+02 -0.76130812626E+01  0.28064587373E+02  0.00000000000E+00 0. -1.
        -14    1    6    6    0    0  0.11148318844E+02 -0.88165725252E+02  0.10718238545E+03  0.13923197863E+03  0.00000000000E+00 0.  1.
</event>
<event>
12    1  0.1628146E-001  0.2104846E+03  0.7818608E-02  0.1141384E+00
         21   -1    0    0  501  502  0.00000000000E+00  0.00000000000E+00  0.19560803630E+03  0.19560803630E+03  0.00000000000E+00 0.  1.
         21   -1    0    0  502  503 -0.00000000000E+00 -0.00000000000E+00 -0.24623999943E+03  0.24623999943E+03  0.00000000000E+00 0.  1.
         -6    2    1    2    0  503 -0.90584366724E+02 -0.80349320218E+02 -0.89643763278E+02  0.22877882930E+03  0.17216912525E+03 0.  0.
        -24    2    3    3    0    0  0.20555971595E+02 -0.34700256912E+02 -0.27619120124E+02  0.93482273024E+02  0.79683522609E+02 0.  0.
          6    2    1    2  501    0  0.90584366724E+02  0.80349320218E+02  0.39011800145E+02  0.21306920643E+03  0.17092403407E+03 0.  0.
         24    2    5    5    0    0  0.11484483463E+03  0.69113780882E+02  0.70438104974E+02  0.17154198304E+03  0.80616837957E+02 0.  0.
          5    1    5    5  501    0 -0.24260467909E+02  0.11235539336E+02 -0.31426304830E+02  0.41527223391E+02  0.47000000000E+01 0. -1.
        -11    1    6    6    0    0  0.64596535662E+02  0.48875030829E+02  0.82954651691E+02  0.11594375919E+03  0.00000000000E+00 0.  1.
         12    1    6    6    0    0  0.50248298971E+02  0.20238750053E+02 -0.12516546716E+02  0.55598223847E+02  0.00000000000E+00 0. -1.
         -5    1    3    3    0  503 -0.11114033832E+03 -0.45649063305E+02 -0.62024643154E+02  0.13529655628E+03  0.47000000000E+01 0.  1.
         13    1    4    4    0    0 -0.33238204008E+01 -0.44566086814E+02  0.11917624691E+02  0.46251634071E+02  0.00000000000E+00 0. -1.
        -14    1    4    4    0    0  0.23879791995E+02  0.98658299015E+01 -0.39536744815E+02  0.47230638953E+02  0.00000000000E+00 0.  1.
</event>
<event>
12    1  0.1628146E-001  0.3343901E+03  0.7818608E-02  0.1069245E+00
         21   -1    0    0  503  502  0.00000000000E+00  0.00000000000E+00  0.33531687228E+03  0.33531687228E+03  0.00000000000E+00 0.  1.
         21   -1    0    0  501  503 -0.00000000000E+00 -0.00000000000E+00 -0.33379068045E+03  0.33379068045E+03  0.00000000000E+00 0. -1.
          6    2    1    2  501    0  0.27719782596E+03  0.74520575645E+02  0.15380165946E+02  0.33474362255E+03  0.17153656292E+03 0.  0.
         24    2    3    3    0    0  0.26784431671E+03  0.10759176899E+03 -0.33799477819E+00  0.29666025950E+03  0.68488163765E+02 0.  0.
         -6    2    1    2    0  502 -0.27719782596E+03 -0.74520575645E+02 -0.13853974115E+02  0.33436393019E+03  0.17092499612E+03 0.  0.
        -24    2    5    5    0    0 -0.18732527066E+03 -0.57977484489E+01 -0.60573585031E+02  0.21187019476E+03  0.78073358518E+02 0.  0.
          5    1    3    3  501    0  0.93535092464E+01 -0.33071193344E+02  0.15718160724E+02  0.38083363047E+02  0.47000000000E+01 0. -1.
        -11    1    4    4    0    0  0.16807011518E+03  0.48541184582E+02  0.28357368651E+02  0.17722288389E+03  0.00000000000E+00 0.  1.
         12    1    4    4    0    0  0.99774201537E+02  0.59050584406E+02 -0.28695363429E+02  0.11943737561E+03  0.00000000000E+00 0. -1.
         -5    1    5    5    0  502 -0.89872555304E+02 -0.68722827196E+02  0.46719610916E+02  0.12249373543E+03  0.47000000000E+01 0.  1.
         11    1    6    6    0    0 -0.64515184698E+02  0.19660139163E+02  0.96452630012E+01  0.68130472088E+02  0.00000000000E+00 0. -1.
        -12    1    6    6    0    0 -0.12281008596E+03 -0.25457887612E+02 -0.70218848032E+02  0.14373972267E+03  0.00000000000E+00 0.  1.
</event>
<event>
12    1  0.1628146E-001  0.1918531E+03  0.7818608E-02  0.1156849E+00
         21   -1    0    0  503  502  0.00000000000E+00  0.00000000000E+00  0.44226635788E+03  0.44226635788E+03  0.00000000000E+00 0.  1.
         21   -1    0    0  501  503 -0.00000000000E+00 -0.00000000000E+00 -0.15037753800E+03  0.15037753800E+03  0.00000000000E+00 0.  1.
          6    2    1    2  501    0  0.45806455038E+02  0.70687705506E+02 -0.52259130416E+02  0.19863192713E+03  0.17212972645E+03 0.  0.
         24    2    3    3    0    0 -0.16428963304E+02  0.59527262287E+02  0.20884610198E+02  0.10183368551E+03  0.78233795579E+02 0.  0.
         -6    2    1    2    0  502 -0.45806455038E+02 -0.70687705506E+02  0.34414795030E+03  0.39401196875E+03  0.17237353854E+03 0.  0.
        -24    2    5    5    0    0 -0.84860141040E+02 -0.88912724768E+02  0.22921728947E+03  0.27117675996E+03  0.76743424421E+02 0.  0.
          5    1    3    3  501    0  0.62235418343E+02  0.11160443220E+02 -0.73143740614E+02  0.96798241617E+02  0.47000000000E+01 0. -1.
        -13    1    4    4    0    0 -0.40221136825E+01  0.37920031472E+02 -0.27768342158E+02  0.47171887936E+02  0.00000000000E+00 0.  1.
         14    1    4    4    0    0 -0.12406849622E+02  0.21607230815E+02  0.48652952356E+02  0.54661797573E+02  0.00000000000E+00 0. -1.
         -5    1    5    5    0  502  0.39053686001E+02  0.18225019262E+02  0.11493066083E+03  0.12283520878E+03  0.47000000000E+01 0.  1.
         13    1    6    6    0    0 -0.24529364865E+01 -0.37473154739E+02  0.25237170382E+02  0.45245651641E+02  0.00000000000E+00 0. -1.
        -14    1    6    6    0    0 -0.82407204553E+02 -0.51439570029E+02  0.20398011908E+03  0.22593110832E+03  0.00000000000E+00 0.  1.
</event>
<event>
12    1  0.1628146E-001  0.2120974E+03  0.7818608E-02  0.1140487E+00
         21   -1    0    0  503  502  0.00000000000E+00  0.00000000000E+00  0.18718100933E+03  0.18718100933E+03  0.00000000000E+00 0.  1.
         21   -1    0    0  501  503 -0.00000000000E+00 -0.00000000000E+00 -0.25375550876E+03  0.25375550876E+03  0.00000000000E+00 0. -1.
          6    2    1    2  501    0  0.10706585838E+03  0.52102647114E+02 -0.90058344238E+02  0.23042529850E+03  0.17552073654E+03 0.  0.
         24    2    3    3    0    0  0.47554603600E+01  0.62611258500E+02 -0.67250847447E+02  0.12497331717E+03  0.84574638213E+02 0.  0.
         -6    2    1    2    0  502 -0.10706585838E+03 -0.52102647114E+02  0.23483844814E+02  0.21051121960E+03  0.17200493813E+03 0.  0.
        -24    2    5    5    0    0 -0.49145594367E+01 -0.25389892998E+02 -0.34756961546E+02  0.89835867378E+02  0.78699664108E+02 0.  0.
          5    1    3    3  501    0  0.10231039802E+03 -0.10508611387E+02 -0.22807496792E+02  0.10545198132E+03  0.47000000000E+01 0. -1.
        -11    1    4    4    0    0 -0.26891867795E+02  0.24083692265E+02  0.57659283804E+01  0.36557389358E+02  0.00000000000E+00 0.  1.
         12    1    4    4    0    0  0.31647328155E+02  0.38527566236E+02 -0.73016775827E+02  0.88415927816E+02  0.00000000000E+00 0. -1.
         -5    1    5    5    0  502 -0.10215129894E+03 -0.26712754115E+02  0.58240806360E+02  0.12067535222E+03  0.47000000000E+01 0.  1.
         13    1    6    6    0    0 -0.49916796250E+01  0.27431341524E+02 -0.26156782634E+01  0.28004234252E+02  0.00000000000E+00 0. -1.
        -14    1    6    6    0    0  0.77120188354E-01 -0.52821234522E+02 -0.32141283283E+02  0.61831633126E+02  0.00000000000E+00 0.  1.
</event>
<event>
12    1  0.1628146E-001  0.1893913E+03  0.7818608E-02  0.1159088E+00
         21   -1    0    0  503  502  0.00000000000E+00  0.00000000000E+00  0.51957043656E+03  0.51957043656E+03  0.00000000000E+00 0.  1.
         21   -1    0    0  501  503 -0.00000000000E+00 -0.00000000000E+00 -0.17213235262E+03  0.17213235262E+03  0.00000000000E+00 0.  1.
          6    2    1    2  501    0 -0.42457521319E+02  0.64877818671E+02 -0.94159847810E+02  0.21120534631E+03  0.17242345809E+03 0.  0.
         24    2    3    3    0    0 -0.68810463495E+02  0.80188210957E+01 -0.92648025973E+01  0.10558015108E+03  0.79133749795E+02 0.  0.
         -6    2    1    2    0  502  0.42457521319E+02 -0.64877818671E+02  0.44159793175E+03  0.48049744287E+03  0.17279261212E+03 0.  0.
        -24    2    5    5    0    0  0.59036532827E+02 -0.34485732582E+02  0.14182599352E+03  0.17869643646E+03  0.84517607665E+02 0.  0.
          5    1    3    3  501    0  0.26352942176E+02  0.56858997575E+02 -0.84895045212E+02  0.10562519523E+03  0.47000000000E+01 0. -1.
        -11    1    4    4    0    0  0.14770177572E+02 -0.58717479971E+01  0.98828100948E+01  0.18716450129E+02  0.00000000000E+00 0.  1.
         12    1    4    4    0    0 -0.83580641067E+02  0.13890569093E+02 -0.19147612692E+02  0.86863700950E+02  0.00000000000E+00 0. -1.
         -5    1    5    5    0  502 -0.16579011508E+02 -0.30392086089E+02  0.29977193823E+03  0.30180100641E+03  0.47000000000E+01 0.  1.
         13    1    6    6    0    0  0.50825592510E+02 -0.50101305773E+02  0.14420025664E+03  0.16089467272E+03  0.00000000000E+00 0. -1.
        -14    1    6    6    0    0  0.82109403176E+01  0.15615573190E+02 -0.23742631187E+01  0.17801763742E+02  0.00000000000E+00 0.  1.
</event>
<event>
12    1  0.1628146E-001  0.2362545E+03  0.7818608E-02  0.1122330E+00
         21   -1    0    0  503  502  0.00000000000E+00  0.00000000000E+00  0.37424173428E+03  0.37424173428E+03  0.00000000000E+00 0. -1.
         21   -1    0    0  501  503 -0.00000000000E+00 -0.00000000000E+00 -0.24576358373E+03  0.24576358373E+03  0.00000000000E+00 0.  1.
          6    2    1    2  501    0  0.94865832640E+02  0.13119678464E+03 -0.13020280302E+03  0.26967400341E+03  0.17192782119E+03 0.  0.
         24    2    3    3    0    0  0.40419557402E+01  0.11022525136E+03 -0.10358081650E+03  0.17261936936E+03  0.83081391955E+02 0.  0.
         -6    2    1    2    0  502 -0.94865832640E+02 -0.13119678464E+03  0.25868095356E+03  0.35033131460E+03  0.17205833823E+03 0.  0.
        -24    2    5    5    0    0 -0.38973737174E+02 -0.28781423800E+01  0.13546994382E+03  0.16380345285E+03  0.83380031160E+02 0.  0.
          5    1    3    3  501    0  0.90823876900E+02  0.20971533275E+02 -0.26621986523E+02  0.97054634044E+02  0.47000000000E+01 0. -1.
        -11    1    4    4    0    0  0.43527062660E+01  0.27590226663E+02 -0.82837840459E+02  0.87420103358E+02  0.00000000000E+00 0.  1.
         12    1    4    4    0    0 -0.31075052583E+00  0.82635024699E+02 -0.20742976036E+02  0.85199266004E+02  0.00000000000E+00 0. -1.
         -5    1    5    5    0  502 -0.55892095466E+02 -0.12831864226E+03  0.12321100974E+03  0.18652786175E+03  0.47000000000E+01 0.  1.
         13    1    6    6    0    0 -0.26420206823E+02 -0.17976113602E+02  0.14004311182E+03  0.14364275532E+03  0.00000000000E+00 0. -1.
        -14    1    6    6    0    0 -0.12553530351E+02  0.15097971222E+02 -0.45731680034E+01  0.20160697530E+02  0.00000000000E+00 0.  1.
</event>
<event>
12    1  0.1628146E-001  0.2210338E+03  0.7818608E-02  0.1133198E+00
         21   -1    0    0  501  502  0.00000000000E+00  0.00000000000E+00  0.55706867686E+03  0.55706867686E+03  0.00000000000E+00 0. -1.
         21   -1    0    0  502  503 -0.00000000000E+00 -0.00000000000E+00 -0.94926455424E+02  0.94926455424E+02  0.00000000000E+00 0.  1.
         -6    2    1    2    0  503 -0.54428766704E+01 -0.13779545414E+03  0.32232449481E+03  0.39083118467E+03  0.17273888639E+03 0.  0.
        -24    2    3    3    0    0  0.48378617631E+01 -0.16868442498E+03  0.25961554812E+03  0.32001929234E+03  0.80834859462E+02 0.  0.
          6    2    1    2  501    0  0.54428766704E+01  0.13779545414E+03  0.13981772663E+03  0.26116394761E+03  0.17216387183E+03 0.  0.
         24    2    5    5    0    0 -0.41669214942E+02  0.21766536441E+02  0.29390821693E+02  0.94135655841E+02  0.76076249371E+02 0.  0.
          5    1    5    5  501    0  0.47112091613E+02  0.11602891770E+03  0.11042690493E+03  0.16702829177E+03  0.47000000000E+01 0. -1.
        -13    1    6    6    0    0 -0.46429499327E+02  0.12675172543E+02  0.51054945541E+02  0.70163850172E+02  0.00000000000E+00 0.  1.
         14    1    6    6    0    0  0.47602843852E+01  0.90913638978E+01 -0.21664123848E+02  0.23971805669E+02  0.00000000000E+00 0. -1.
         -5    1    3    3    0  503 -0.10280738433E+02  0.30888970837E+02  0.62708946684E+02  0.70811892337E+02  0.47000000000E+01 0.  1.
         13    1    4    4    0    0  0.31613197041E+02 -0.14893216495E+03  0.22772041253E+03  0.27392840355E+03  0.00000000000E+00 0. -1.
        -14    1    4    4    0    0 -0.26775335278E+02 -0.19752260023E+02  0.31895135591E+02  0.46090888792E+02  0.00000000000E+00 0.  1.
</event>
<event>
12    1  0.1628146E-001  0.2169292E+03  0.7818608E-02  0.1137186E+00
         21   -1    0    0  503  502  0.00000000000E+00  0.00000000000E+00  0.79218938720E+03  0.79218938720E+03  0.00000000000E+00 0.  1.
         21   -1    0    0  501  503 -0.00000000000E+00 -0.00000000000E+00 -0.59549899465E+02  0.59549899465E+02  0.00000000000E+00 0. -1.
          6    2    1    2  501    0 -0.12227608948E+03 -0.27244673828E+02  0.30185369206E+03  0.37171751553E+03  0.17710038292E+03 0.  0.
         24    2    3    3    0    0 -0.27939959476E+02 -0.73333341635E+02  0.15481045019E+03  0.19097660786E+03  0.79670376749E+02 0.  0.
         -6    2    1    2    0  502  0.12227608948E+03  0.27244673828E+02  0.43078579567E+03  0.48002177113E+03  0.17073600880E+03 0.  0.
        -24    2    5    5    0    0  0.12695201539E+03  0.38239674949E+02  0.22190390098E+03  0.27074566102E+03  0.80515742200E+02 0.  0.
          5    1    3    3  501    0 -0.94336130002E+02  0.46088667807E+02  0.14704324187E+03  0.18074090767E+03  0.47000000000E+01 0. -1.
        -11    1    4    4    0    0 -0.48291150828E+02 -0.25870475569E+02  0.10878571985E+03  0.12180168143E+03  0.00000000000E+00 0.  1.
         12    1    4    4    0    0  0.20351191353E+02 -0.47462866066E+02  0.46024730339E+02  0.69174926437E+02  0.00000000000E+00 0. -1.
         -5    1    5    5    0  502 -0.46759259127E+01 -0.10995001121E+02  0.20888189469E+03  0.20927611011E+03  0.47000000000E+01 0.  1.
         13    1    6    6    0    0  0.74322006904E+02  0.11950266794E+02  0.53473009598E+02  0.92335975340E+02  0.00000000000E+00 0. -1.
        -14    1    6    6    0    0  0.52630008487E+02  0.26289408155E+02  0.16843089138E+03  0.17840968568E+03  0.00000000000E+00 0.  1.
</event>
<event>
12    1  0.1628146E-001  0.2337108E+03  0.7818608E-02  0.1124099E+00
         21   -1    0    0  501  502  0.00000000000E+00  0.00000000000E+00  0.14171393703E+03  0.14171393703E+03  0.00000000000E+00 0. -1.
         21   -1    0    0  502  503 -0.00000000000E+00 -0.00000000000E+00 -0.60779098995E+03  0.60779098995E+03  0.00000000000E+00 0.  1.
         -6    2    1    2    0  503  0.59912899337E+02  0.14695739874E+03 -0.45984275206E+03  0.51571097910E+03  0.17122039827E+03 0.  0.
        -24    2    3    3    0    0  0.29238036440E+01  0.15447880193E+03 -0.32543182127E+03  0.36944848612E+03  0.81939396693E+02 0.  0.
          6    2    1    2  501    0 -0.59912899337E+02 -0.14695739874E+03 -0.62343008490E+01  0.23379394788E+03  0.17156547149E+03 0.  0.
         24    2    5    5    0    0  0.14672896597E+01 -0.10322178222E+03 -0.58172586916E+02  0.14214239409E+03  0.78508095531E+02 0.  0.
          5    1    5    5  501    0 -0.61380188997E+02 -0.43735616519E+02  0.51938286067E+02  0.91651553796E+02  0.47000000000E+01 0. -1.
        -11    1    6    6    0    0 -0.24794327234E+02 -0.39047431627E+01 -0.23105769395E+01  0.25206039910E+02  0.00000000000E+00 0.  1.
         12    1    6    6    0    0  0.26261616894E+02 -0.99317039060E+02 -0.55862009976E+02  0.11693635418E+03  0.00000000000E+00 0. -1.
         -5    1    3    3    0  503  0.56989095693E+02 -0.75214031909E+01 -0.13441093080E+03  0.14626249298E+03  0.47000000000E+01 0.  1.
         13    1    4    4    0    0  0.15682478566E+01  0.99288479426E+02 -0.11521088987E+03  0.15209934481E+03  0.00000000000E+00 0. -1.
        -14    1    4    4    0    0  0.13555557874E+01  0.55190322507E+02 -0.21022093140E+03  0.21734914131E+03  0.00000000000E+00 0.  1.
</event>
<event>
12    1  0.1628146E-001  0.1788546E+03  0.7818608E-02  0.1172226E+00
         21   -1    0    0  501  502  0.00000000000E+00  0.00000000000E+00  0.62168678166E+03  0.62168678166E+03  0.00000000000E+00 0.  1.
         21   -1    0    0  502  503 -0.00000000000E+00 -0.00000000000E+00 -0.48113045765E+02  0.48113045765E+02  0.00000000000E+00 0. -1.
         -6    2    1    2    0  503 -0.50554818433E+01 -0.66154663766E+02  0.24799246551E+03  0.29832690593E+03  0.15197592709E+03 0.  0.
        -24    2    3    3    0    0  0.33823121816E+02 -0.46822823067E+02  0.86888672115E+02  0.13140839846E+03  0.79888331532E+02 0.  0.
          6    2    1    2  501    0  0.50554818433E+01  0.66154663766E+02  0.32558127038E+03  0.37147292149E+03  0.16609325798E+03 0.  0.
         24    2    5    5    0    0 -0.41186127194E+02 -0.12094967694E+02  0.16031616661E+03  0.18280406939E+03  0.76638562050E+02 0.  0.
          5    1    5    5  501    0  0.46241609037E+02  0.78249631459E+02  0.16526510377E+03  0.18866885211E+03  0.47000000000E+01 0. -1.
        -11    1    6    6    0    0 -0.51257978783E+02  0.13092785527E+02  0.65569673981E+02  0.84250718499E+02  0.00000000000E+00 0.  1.
         12    1    6    6    0    0  0.10071851589E+02 -0.25187753220E+02  0.94746492625E+02  0.98553350889E+02  0.00000000000E+00 0. -1.
         -5    1    3    3    0  503 -0.38878603660E+02 -0.19331840699E+02  0.16110379340E+03  0.16691850747E+03  0.47000000000E+01 0.  1.
         11    1    4    4    0    0  0.59767058767E+02 -0.26404563471E+02  0.61872498472E+02  0.89986156451E+02  0.00000000000E+00 0. -1.
        -12    1    4    4    0    0 -0.25943936950E+02 -0.20418259596E+02  0.25016173642E+02  0.41422242010E+02  0.00000000000E+00 0.  1.
</event>
<event>
12    1  0.1628146E-001  0.2183333E+03  0.7818608E-02  0.1135182E+00
         21   -1    0    0  501  502  0.00000000000E+00  0.00000000000E+00  0.91528930010E+03  0.91528930010E+03  0.00000000000E+00 0. -1.
         21   -1    0    0  502  503 -0.00000000000E+00 -0.00000000000E+00 -0.53678827017E+02  0.53678827017E+02  0.00000000000E+00 0.  1.
         -6    2    1    2    0  503 -0.20418299056E+02  0.13129218150E+03  0.34532957088E+03  0.40841891561E+03  0.17291314075E+03 0.  0.
        -24    2    3    3    0    0 -0.74127063378E+02  0.97593450032E+02  0.18472485180E+03  0.23568732713E+03  0.80037130658E+02 0.  0.
          6    2    1    2  501    0  0.20418299056E+02 -0.13129218150E+03  0.51628090220E+03  0.56054921151E+03  0.17324810152E+03 0.  0.
         24    2    5    5    0    0 -0.46692298279E+00 -0.42314421731E+02  0.10993312753E+03  0.14402329609E+03  0.82865487290E+02 0.  0.
          5    1    5    5  501    0  0.20885222039E+02 -0.88977759772E+02  0.40634777467E+03  0.41652591542E+03  0.47000000000E+01 0. -1.
        -11    1    6    6    0    0 -0.39365473011E+01 -0.58384142204E+02  0.36938240872E+02  0.69199986302E+02  0.00000000000E+00 0.  1.
         12    1    6    6    0    0  0.34696243183E+01  0.16069720472E+02  0.72994886659E+02  0.74823309786E+02  0.00000000000E+00 0. -1.
         -5    1    3    3    0  503  0.53708764321E+02  0.33698731471E+02  0.16060471908E+03  0.17273158848E+03  0.47000000000E+01 0.  1.
         13    1    4    4    0    0 -0.38223594587E+02  0.63867947688E+02  0.16785802338E+03  0.18362046166E+03  0.00000000000E+00 0. -1.
        -14    1    4    4    0    0 -0.35903468790E+02  0.33725502344E+02  0.16866828417E+02  0.52066865475E+02  0.00000000000E+00 0.  1.
</event>
<event>
12    1  0.1628146E-001  0.1799261E+03  0.7818608E-02  0.1169034E+00
         21   -1    0    0  501  502  0.00000000000E+00  0.00000000000E+00  0.16223905167E+03  0.16223905167E+03  0.00000000000E+00 0. -1.
         21   -1    0    0  502  503 -0.00000000000E+00 -0.00000000000E+00 -0.35782357101E+03  0.35782357101E+03  0.00000000000E+00 0. -1.
         -6    2    1    2    0  503  0.36248062224E+02 -0.14894011164E+01 -0.27284100882E+03  0.32425155965E+03  0.17140804390E+03 0.  0.
        -24    2    3    3    0    0  0.42960695313E+02 -0.46497882867E+02 -0.25630647361E+03  0.27560689163E+03  0.79110529297E+02 0.  0.
          6    2    1    2  501    0 -0.36248062224E+02  0.14894011164E+01  0.77256489466E+02  0.19581106303E+03  0.17623072067E+03 0.  0.
         24    2    5    5    0    0 -0.34116562628E+02  0.70859955790E+02  0.56923340359E+02  0.12333800528E+03  0.76071832433E+02 0.  0.
          5    1    5    5  501    0 -0.21314995961E+01 -0.69370554673E+02  0.20333149107E+02  0.72473057744E+02  0.47000000000E+01 0. -1.
        -11    1    6    6    0    0  0.15897369641E+02  0.51877991531E+02  0.17948100331E+02  0.57150561435E+02  0.00000000000E+00 0.  1.
         12    1    6    6    0    0 -0.50013932268E+02  0.18981964258E+02  0.38975240028E+02  0.66187443849E+02  0.00000000000E+00 0. -1.
         -5    1    3    3    0  503 -0.67126330888E+01  0.45008481751E+02 -0.16534535202E+02  0.48644668021E+02  0.47000000000E+01 0.  1.
         13    1    4    4    0    0  0.20850918835E+02 -0.12975569559E+02 -0.22032021686E+03  0.22168474052E+03  0.00000000000E+00 0. -1.
        -14    1    4    4    0    0  0.22109776477E+02 -0.33522313308E+02 -0.35986256751E+02  0.53922151110E+02  0.00000000000E+00 0.  1.
</event>
<event>
12    1  0.1628146E-001  0.2327691E+03  0.7818608E-02  0.1124794E+00
         21   -1    0    0  503  502  0.00000000000E+00  0.00000000000E+00  0.13148923560E+03  0.13148923560E+03  0.00000000000E+00 0. -1.
         21   -1    0    0  501  503 -0.00000000000E+00 -0.00000000000E+00 -0.43477630470E+03  0.43477630470E+03  0.00000000000E+00 0. -1.
          6    2    1    2  501    0  0.99644279184E+02  0.12056421499E+03 -0.21746833170E+03  0.31818026897E+03  0.17170176458E+03 0.  0.
         24    2    3    3    0    0 -0.48458752253E+01  0.13783652459E+02 -0.93300948949E+02  0.12386117613E+03  0.80143947344E+02 0.  0.
         -6    2    1    2    0  502 -0.99644279184E+02 -0.12056421499E+03 -0.85818737398E+02  0.24808527133E+03  0.17238542238E+03 0.  0.
        -24    2    5    5    0    0 -0.28747733694E+02 -0.74121499774E+02 -0.10943951771E+03  0.15997580974E+03  0.85409734476E+02 0.  0.
          5    1    3    3  501    0  0.10449015441E+03  0.10678056253E+03 -0.12416738275E+03  0.19431909284E+03  0.47000000000E+01 0. -1.
        -11    1    4    4    0    0 -0.11289680320E+02  0.10722824022E+02 -0.10715391950E+03  0.10827926072E+03  0.00000000000E+00 0.  1.
         12    1    4    4    0    0  0.64438050948E+01  0.30608284368E+01  0.13852970553E+02  0.15581915414E+02  0.00000000000E+00 0. -1.
         -5    1    5    5    0  502 -0.70896545490E+02 -0.46442715218E+02  0.23620780309E+02  0.88109461590E+02  0.47000000000E+01 0.  1.
         13    1    6    6    0    0 -0.47103676828E+02 -0.29271306362E+02 -0.93954265279E+02  0.10910073195E+03  0.00000000000E+00 0. -1.
        -14    1    6    6    0    0  0.18355943134E+02 -0.44850193412E+02 -0.15485252428E+02  0.50875077790E+02  0.00000000000E+00 0.  1.
</event>
<event>
12    1  0.1628146E-001  0.2453256E+03  0.7818608E-02  0.1116330E+00
         21   -1    0    0  503  502  0.00000000000E+00  0.00000000000E+00  0.92306916757E+02  0.92306916757E+02  0.00000000000E+00 0.  1.
         21   -1    0    0  501  503 -0.00000000000E+00 -0.00000000000E+00 -0.78517916823E+03  0.78517916823E+03  0.00000000000E+00 0.  1.
          6    2    1    2  501    0 -0.92309678229E+02 -0.14785440101E+03 -0.16548723889E+03  0.29592341636E+03  0.17263441581E+03 0.  0.
         24    2    3    3    0    0 -0.28456209013E+02 -0.31435730708E+01 -0.32654145888E+02  0.89319423535E+02  0.78051446456E+02 0.  0.
         -6    2    1    2    0  502  0.92309678229E+02  0.14785440101E+03 -0.52738501258E+03  0.58156266862E+03  0.17233161477E+03 0.  0.
        -24    2    5    5    0    0  0.10567252200E+03  0.69500207418E+02 -0.23671695288E+03  0.28018590081E+03  0.80450372862E+02 0.  0.
          5    1    3    3  501    0 -0.63853469217E+02 -0.14471082794E+03 -0.13283309300E+03  0.20660399283E+03  0.47000000000E+01 0. -1.
        -11    1    4    4    0    0  0.18571744374E+02 -0.24691357983E+02 -0.74753690893E+01  0.31787638968E+02  0.00000000000E+00 0.  1.
         12    1    4    4    0    0 -0.47027953387E+02  0.21547784912E+02 -0.25178776799E+02  0.57531784567E+02  0.00000000000E+00 0. -1.
         -5    1    5    5    0  502 -0.13362843775E+02  0.78354193596E+02 -0.29066805970E+03  0.30137676782E+03  0.47000000000E+01 0.  1.
         11    1    6    6    0    0  0.14635925293E+02  0.33363140506E+02 -0.18208186811E+02  0.40728951871E+02  0.00000000000E+00 0. -1.
        -12    1    6    6    0    0  0.91036596712E+02  0.36137066912E+02 -0.21850876607E+03  0.23945694894E+03  0.00000000000E+00 0.  1.
</event>
<event>
12    1  0.1628146E-001  0.2538437E+03  0.7818608E-02  0.1110977E+00
         21   -1    0    0  501  502  0.00000000000E+00  0.00000000000E+00  0.83806894816E+03  0.83806894816E+03  0.00000000000E+00 0.  1.
         21   -1    0    0  502  503 -0.00000000000E+00 -0.00000000000E+00 -0.10899898905E+03  0.10899898905E+03  0.00000000000E+00 0. -1.
         -6    2    1    2    0  503  0.18640226030E+03  0.38431120080E+01  0.10665503701E+03  0.27487975507E+03  0.17153136935E+03 0.  0.
        -24    2    3    3    0    0  0.81832012525E+02 -0.13955971115E+02 -0.12329290192E+02  0.11540842786E+03  0.79220239974E+02 0.  0.
          6    2    1    2  501    0 -0.18640226030E+03 -0.38431120080E+01  0.62241492209E+03  0.67218818213E+03  0.17226736429E+03 0.  0.
         24    2    5    5    0    0 -0.15551903867E+03 -0.24232350864E+02  0.60630289528E+03  0.63155344517E+03  0.80518166056E+02 0.  0.
          5    1    5    5  501    0 -0.30883221639E+02  0.20389238856E+02  0.16112026810E+02  0.40634736960E+02  0.47000000000E+01 0. -1.
        -11    1    6    6    0    0 -0.15636758179E+03 -0.49228215376E+01  0.55830989425E+03  0.57981461936E+03  0.00000000000E+00 0.  1.
         12    1    6    6    0    0  0.84854312589E+00 -0.19309529326E+02  0.47993001036E+02  0.51738825815E+02  0.00000000000E+00 0. -1.
         -5    1    3    3    0  503  0.10457024778E+03  0.17799083122E+02  0.11898432721E+03  0.15947132721E+03  0.47000000000E+01 0.  1.
         13    1    4    4    0    0  0.71975830233E+02  0.16091705420E+02  0.13002925377E+02  0.74890180861E+02  0.00000000000E+00 0. -1.
        -14    1    4    4    0    0  0.98561822927E+01 -0.30047676535E+02 -0.25332215569E+02  0.40518247003E+02  0.00000000000E+00 0.  1.
</event>
<event>
12    1  0.1628146E-001  0.3225092E+03  0.7818608E-02  0.1074921E+00
         21   -1    0    0  503  502  0.00000000000E+00  0.00000000000E+00  0.10782560992E+03  0.10782560992E+03  0.00000000000E+00 0.  1.
         21   -1    0    0  501  503 -0.00000000000E+00 -0.00000000000E+00 -0.19188862162E+04  0.19188862162E+04  0.00000000000E+00 0. -1.
          6    2    1    2  501    0  0.33033682493E+02 -0.27089031541E+03 -0.16267973830E+04  0.16584576914E+04  0.17187030477E+03 0.  0.
         24    2    3    3    0    0 -0.20925586052E+02 -0.56436999979E+02 -0.49893027480E+03  0.50910651316E+03  0.81455555429E+02 0.  0.
         -6    2    1    2    0  502 -0.33033682493E+02  0.27089031541E+03 -0.18426322328E+03  0.36825413472E+03  0.16487991121E+03 0.  0.
        -24    2    5    5    0    0  0.34945387875E+02  0.20079859943E+03 -0.14358881907E+03  0.26237448693E+03  0.81739615642E+02 0.  0.
          5    1    3    3  501    0  0.53959268545E+02 -0.21445331543E+03 -0.11278671082E+04  0.11493511783E+04  0.47000000000E+01 0. -1.
        -11    1    4    4    0    0  0.18908572776E+02  0.10401609683E+02 -0.15429963495E+03  0.15580149214E+03  0.00000000000E+00 0.  1.
         12    1    4    4    0    0 -0.39834158828E+02 -0.66838609662E+02 -0.34463063985E+03  0.35330502101E+03  0.00000000000E+00 0. -1.
         -5    1    5    5    0  502 -0.67979070368E+02  0.70091715983E+02 -0.40674404211E+02  0.10587964779E+03  0.47000000000E+01 0.  1.
         13    1    6    6    0    0  0.17441598309E+02  0.73532880848E+02 -0.10280193741E+03  0.12759127028E+03  0.00000000000E+00 0. -1.
        -14    1    6    6    0    0  0.17503789566E+02  0.12726571858E+03 -0.40786881662E+02  0.13478321665E+03  0.00000000000E+00 0.  1.
</event>
<event>
12    1  0.1628146E-001  0.1990622E+03  0.7818608E-02  0.1150597E+00
         21   -1    0    0  503  502  0.00000000000E+00  0.00000000000E+00  0.72672065928E+03  0.72672065928E+03  0.00000000000E+00 0.  1.
         21   -1    0    0  501  503 -0.00000000000E+00 -0.00000000000E+00 -0.57710179000E+02  0.57710179000E+02  0.00000000000E+00 0.  1.
          6    2    1    2  501    0  0.99989115670E+02  0.61787705298E+01  0.24143530483E+03  0.31291653685E+03  0.17201672058E+03 0.  0.
         24    2    3    3    0    0  0.10522188089E+03 -0.81739711748E+01  0.25807668837E+03  0.28984255426E+03  0.79162308944E+02 0.  0.
         -6    2    1    2    0  502 -0.99989115670E+02 -0.61787705298E+01  0.42757517545E+03  0.47151430142E+03  0.17166597022E+03 0.  0.
        -24    2    5    5    0    0 -0.46103438785E+02 -0.57142411118E+02  0.33939229997E+03  0.35619184757E+03  0.79339251190E+02 0.  0.
          5    1    3    3  501    0 -0.52327652186E+01  0.14352741705E+02 -0.16641383545E+02  0.23073982590E+02  0.47000000000E+01 0. -1.
        -13    1    4    4    0    0  0.21856779050E+02 -0.28630545492E+02  0.32609245385E+02  0.48587959519E+02  0.00000000000E+00 0.  1.
         14    1    4    4    0    0  0.83365101839E+02  0.20456574318E+02  0.22546744299E+03  0.24125459474E+03  0.00000000000E+00 0. -1.
         -5    1    5    5    0  502 -0.53885676885E+02  0.50963640589E+02  0.88182875475E+02  0.11532245385E+03  0.47000000000E+01 0.  1.
         11    1    6    6    0    0  0.57338190175E+01 -0.34975629664E+02  0.23398940078E+03  0.23665842691E+03  0.00000000000E+00 0. -1.
        -12    1    6    6    0    0 -0.51837257803E+02 -0.22166781454E+02  0.10540289920E+03  0.11953342067E+03  0.00000000000E+00 0.  1.
</event>
<event>
12    1  0.1628146E-001  0.2035779E+03  0.7818608E-02  0.1146913E+00
         21   -1    0    0  501  502  0.00000000000E+00  0.00000000000E+00  0.27395049735E+03  0.27395049735E+03  0.00000000000E+00 0. -1.
         21   -1    0    0  502  503 -0.00000000000E+00 -0.00000000000E+00 -0.23094523205E+03  0.23094523205E+03  0.00000000000E+00 0.  1.
         -6    2    1    2    0  503 -0.10416137236E+03  0.35268621589E+02 -0.12726446516E+03  0.24008373088E+03  0.17131983710E+03 0.  0.
        -24    2    3    3    0    0 -0.39957896638E+02 -0.32373220515E+02 -0.11213105367E+03  0.14548661020E+03  0.77125363155E+02 0.  0.
          6    2    1    2  501    0  0.10416137236E+03 -0.35268621589E+02  0.17026973047E+03  0.26481199851E+03  0.17041169644E+03 0.  0.
         24    2    5    5    0    0 -0.12184934276E+02  0.14308075007E+02  0.54663807252E+02  0.93402747317E+02  0.73367211678E+02 0.  0.
          5    1    5    5  501    0  0.11634630663E+03 -0.49576696596E+02  0.11560592322E+03  0.17140925119E+03  0.47000000000E+01 0. -1.
        -11    1    6    6    0    0  0.29554987408E+02  0.13904935392E+02  0.15457077055E+02  0.36135380724E+02  0.00000000000E+00 0.  1.
         12    1    6    6    0    0 -0.41739921685E+02  0.40313961496E+00  0.39206730196E+02  0.57267366593E+02  0.00000000000E+00 0. -1.
         -5    1    3    3    0  503 -0.64203475719E+02  0.67641842104E+02 -0.15133411495E+02  0.94597120681E+02  0.47000000000E+01 0.  1.
         13    1    4    4    0    0  0.54961345353E+01  0.13546814938E+02 -0.62019767024E+02  0.63719504012E+02  0.00000000000E+00 0. -1.
        -14    1    4    4    0    0 -0.45454031173E+02 -0.45920035453E+02 -0.50111286643E+02  0.81767106191E+02  0.00000000000E+00 0.  1.
</event>
<event>
12    1  0.1628146E-001  0.2705732E+03  0.7818608E-02  0.1101425E+00
         21   -1    0    0  501  502  0.00000000000E+00  0.00000000000E+00  0.77820123846E+03  0.77820123846E+03  0.00000000000E+00 0. -1.
         21   -1    0    0  502  503 -0.00000000000E+00 -0.00000000000E+00 -0.13652778375E+03  0.13652778375E+03  0.00000000000E+00 0.  1.
         -6    2    1    2    0  503 -0.15903360458E+02  0.20441813713E+03  0.63735293629E+02  0.27797851555E+03  0.17655077398E+03 0.  0.
        -24    2    3    3    0    0 -0.64876843359E+02  0.66543211532E+02  0.37704827973E+02  0.12929236193E+03  0.81595692262E+02 0.  0.
          6    2    1    2  501    0  0.15903360458E+02 -0.20441813713E+03  0.57793816108E+03  0.63675050665E+03  0.17146136016E+03 0.  0.
         24    2    5    5    0    0 -0.11340564198E+02 -0.21995693415E+03  0.53108326396E+03  0.58017173831E+03  0.77718410906E+02 0.  0.
          5    1    5    5  501    0  0.27243924656E+02  0.15538797019E+02  0.46854897118E+02  0.56578768345E+02  0.47000000000E+01 0. -1.
        -11    1    6    6    0    0 -0.25481639720E+02 -0.18596853938E+02  0.64765546488E+02  0.72039801159E+02  0.00000000000E+00 0.  1.
         12    1    6    6    0    0  0.14141075523E+02 -0.20136008021E+03  0.46631771747E+03  0.50813193715E+03  0.00000000000E+00 0. -1.
         -5    1    3    3    0  503  0.48973482901E+02  0.13787492560E+03  0.26030465656E+02  0.14868615362E+03  0.47000000000E+01 0.  1.
         11    1    4    4    0    0 -0.65451347157E+02  0.29022752355E+02 -0.58094076014E+01  0.71832779534E+02  0.00000000000E+00 0. -1.
        -12    1    4    4    0    0  0.57450379770E+00  0.37520459177E+02  0.43514235575E+02  0.57459582396E+02  0.00000000000E+00 0.  1.
</event>
<event>
12    1  0.1628146E-001  0.2331641E+03  0.7818608E-02  0.1124664E+00
         21   -1    0    0  501  502  0.00000000000E+00  0.00000000000E+00  0.13676447781E+03  0.13676447781E+03  0.00000000000E+00 0.  1.
         21   -1    0    0  502  503 -0.00000000000E+00 -0.00000000000E+00 -0.63013038993E+03  0.63013038993E+03  0.00000000000E+00 0.  1.
         -6    2    1    2    0  503  0.15469594410E+03  0.42490082899E+01 -0.48123944959E+03  0.53474938619E+03  0.17440358079E+03 0.  0.
        -24    2    3    3    0    0  0.36826458409E+01 -0.36910577431E+01 -0.25938994202E+03  0.26622125934E+03  0.59694481440E+02 0.  0.
          6    2    1    2  501    0 -0.15469594410E+03 -0.42490082899E+01 -0.12126462531E+02  0.23214548156E+03  0.17261397488E+03 0.  0.
         24    2    5    5    0    0 -0.14100937657E+03 -0.57665117183E+02 -0.28023677748E+02  0.17456584739E+03  0.80492226567E+02 0.  0.
          5    1    5    5  501    0 -0.13686567523E+02  0.53416108893E+02  0.15897215216E+02  0.57579634173E+02  0.47000000000E+01 0. -1.
        -11    1    6    6    0    0 -0.43364668606E+02  0.45531772420E+01 -0.38689223025E+02  0.58293068924E+02  0.00000000000E+00 0.  1.
         12    1    6    6    0    0 -0.97644707967E+02 -0.62218294425E+02  0.10665545277E+02  0.11627277846E+03  0.00000000000E+00 0. -1.
         -5    1    3    3    0  503  0.15101329826E+03  0.79400660329E+01 -0.22184950757E+03  0.26852812685E+03  0.47000000000E+01 0.  1.
         13    1    4    4    0    0 -0.12507616073E+02 -0.24692654231E+02 -0.75204028395E+02  0.80136218525E+02  0.00000000000E+00 0. -1.
        -14    1    4    4    0    0  0.16190261914E+02  0.21001596488E+02 -0.18418591363E+03  0.18608504081E+03  0.00000000000E+00 0.  1.
</event>
<event>
12    1  0.1628146E-001  0.2089289E+03  0.7818608E-02  0.1142436E+00
         21   -1    0    0  503  502  0.00000000000E+00  0.00000000000E+00  0.50693456608E+03  0.50693456608E+03  0.00000000000E+00 0.  1.
         21   -1    0    0  501  503 -0.00000000000E+00 -0.00000000000E+00 -0.10044802949E+03  0.10044802949E+03  0.00000000000E+00 0. -1.
          6    2    1    2  501    0 -0.51675665478E+01 -0.11949966579E+03  0.31810474662E+03  0.38052887414E+03  0.17118621547E+03 0.  0.
         24    2    3    3    0    0  0.25109413587E+01 -0.29723800029E+02  0.56623765155E+02  0.10391893357E+03  0.81872369325E+02 0.  0.
         -6    2    1    2    0  502  0.51675665478E+01  0.11949966579E+03  0.88381789971E+02  0.22685372143E+03  0.17130206146E+03 0.  0.
        -24    2    5    5    0    0  0.31908593340E+02  0.11100596900E+03  0.63004272270E+01  0.13998217540E+03  0.78834196664E+02 0.  0.
          5    1    3    3  501    0 -0.76785079066E+01 -0.89775865763E+02  0.26148098146E+03  0.27660994057E+03  0.47000000000E+01 0. -1.
        -13    1    4    4    0    0  0.26119532529E+02  0.17836163104E+02  0.33294711506E+02  0.45922723222E+02  0.00000000000E+00 0.  1.
         14    1    4    4    0    0 -0.23608591171E+02 -0.47559963134E+02  0.23329053649E+02  0.57996210346E+02  0.00000000000E+00 0. -1.
         -5    1    5    5    0  502 -0.26741026793E+02  0.84936967892E+01  0.82081362744E+02  0.86871546026E+02  0.47000000000E+01 0.  1.
         11    1    6    6    0    0  0.85151525324E-01  0.40795329282E+02 -0.33901136582E+02  0.53042937358E+02  0.00000000000E+00 0. -1.
        -12    1    6    6    0    0  0.31823441815E+02  0.70210639721E+02  0.40201563809E+02  0.86939238044E+02  0.00000000000E+00 0.  1.
</event>
<event>
12    1  0.1628146E-001  0.3089214E+03  0.7818608E-02  0.1080905E+00
         21   -1    0    0  501  502  0.00000000000E+00  0.00000000000E+00  0.10771174400E+03  0.10771174400E+03  0.00000000000E+00 0.  1.
         21   -1    0    0  502  503 -0.00000000000E+00 -0.00000000000E+00 -0.88733792489E+03  0.88733792489E+03  0.00000000000E+00 0. -1.
         -6    2    1    2    0  503 -0.17415429764E+03 -0.18782325776E+03 -0.36417762230E+03  0.47733358707E+03  0.17208927108E+03 0.  0.
        -24    2    3    3    0    0 -0.16662763125E+03 -0.16429608096E+03 -0.37573511555E+03  0.44965969315E+03  0.79113796979E+02 0.  0.
          6    2    1    2  501    0  0.17415429764E+03  0.18782325776E+03 -0.41544855858E+03  0.51771608182E+03  0.17269956862E+03 0.  0.
         24    2    5    5    0    0  0.96935202584E+02  0.78925761220E+02 -0.32272268260E+03  0.35510725220E+03  0.79533146626E+02 0.  0.
          5    1    5    5  501    0  0.77219095061E+02  0.10889749654E+03 -0.92725875976E+02  0.16260882962E+03  0.47000000000E+01 0. -1.
        -13    1    6    6    0    0  0.46777750436E+02  0.33956054042E+02 -0.57760728530E+02  0.81715808155E+02  0.00000000000E+00 0.  1.
         14    1    6    6    0    0  0.50157452148E+02  0.44969707177E+02 -0.26496195407E+03  0.27339144404E+03  0.00000000000E+00 0. -1.
         -5    1    3    3    0  503 -0.75266663972E+01 -0.23527176794E+02  0.11557493243E+02  0.27673893926E+02  0.47000000000E+01 0.  1.
         11    1    4    4    0    0 -0.27390497376E+02 -0.72489458606E+02 -0.15187818479E+03  0.17050496758E+03  0.00000000000E+00 0. -1.
        -12    1    4    4    0    0 -0.13923713387E+03 -0.91806622357E+02 -0.22385693076E+03  0.27915472556E+03  0.00000000000E+00 0.  1.
</event>
<event>
12    1  0.1628146E-001  0.2050144E+03  0.7818608E-02  0.1145646E+00
         21   -1    0    0  501  502  0.00000000000E+00  0.00000000000E+00  0.94512631166E+02  0.94512631166E+02  0.00000000000E+00 0.  1.
         21   -1    0    0  502  503 -0.00000000000E+00 -0.00000000000E+00 -0.46793243006E+03  0.46793243006E+03  0.00000000000E+00 0. -1.
         -6    2    1    2    0  503 -0.75625044710E+02 -0.82259166874E+02 -0.12292876367E+03  0.23875281052E+03  0.17148091927E+03 0.  0.
        -24    2    3    3    0    0 -0.12272089033E+02  0.11221644801E+02 -0.90993635046E+02  0.12130409157E+03  0.78474910196E+02 0.  0.
          6    2    1    2  501    0  0.75625044710E+02  0.82259166874E+02 -0.25049103523E+03  0.32369225071E+03  0.17188716216E+03 0.  0.
         24    2    5    5    0    0 -0.18569256866E+02  0.72806629569E+02 -0.12296759056E+03  0.16480160953E+03  0.79955735054E+02 0.  0.
          5    1    5    5  501    0  0.94194301576E+02  0.94525373051E+01 -0.12752344468E+03  0.15889064117E+03  0.47000000000E+01 0. -1.
        -11    1    6    6    0    0  0.21852437671E+02  0.19054006961E+02 -0.55980892503E+01  0.29528339213E+02  0.00000000000E+00 0.  1.
         12    1    6    6    0    0 -0.40421694537E+02  0.53752622608E+02 -0.11736950130E+03  0.13527327032E+03  0.00000000000E+00 0. -1.
         -5    1    3    3    0  503 -0.63352955677E+02 -0.93480811675E+02 -0.31935128621E+02  0.11744871896E+03  0.47000000000E+01 0.  1.
         13    1    4    4    0    0  0.13639227683E+02  0.11140629523E+02 -0.93618058316E+02  0.95260080835E+02  0.00000000000E+00 0. -1.
        -14    1    4    4    0    0 -0.25911316716E+02  0.81015277796E-01  0.26244232692E+01  0.26044010730E+02  0.00000000000E+00 0.  1.
</event>
<event>
12    1  0.1628146E-001  0.1730803E+03  0.7818608E-02  0.1174780E+00
         21   -1    0    0  501  502  0.00000000000E+00  0.00000000000E+00  0.30474219083E+03  0.30474219083E+03  0.00000000000E+00 0. -1.
         21   -1    0    0  502  503 -0.00000000000E+00 -0.00000000000E+00 -0.24255907244E+03  0.24255907244E+03  0.00000000000E+00 0. -1.
         -6    2    1    2    0  503  0.71063148194E+01  0.10347503822E+02 -0.18013386884E+03  0.24951893531E+03  0.17220312956E+03 0.  0.
        -24    2    3    3    0    0  0.25548448519E+02 -0.54930683224E+02 -0.77625558582E+02  0.12650918907E+03  0.79427604727E+02 0.  0.
          6    2    1    2  501    0 -0.71063148194E+01 -0.10347503822E+02  0.24231698723E+03  0.29778232796E+03  0.17262451159E+03 0.  0.
         24    2    5    5    0    0 -0.48212251863E+02  0.36305151599E+02  0.98321340053E+02  0.14086513730E+03  0.80829547417E+02 0.  0.
          5    1    5    5  501    0  0.41105937044E+02 -0.46652655422E+02  0.14399564718E+03  0.15691719066E+03  0.47000000000E+01 0. -1.
        -13    1    6    6    0    0  0.11750005657E+02  0.32123139430E+02  0.13206139976E+02  0.36665526764E+02  0.00000000000E+00 0.  1.
         14    1    6    6    0    0 -0.59962257520E+02  0.41820121688E+01  0.85115200076E+02  0.10419961054E+03  0.00000000000E+00 0. -1.
         -5    1    3    3    0  503 -0.18442133700E+02  0.65278187046E+02 -0.10250831025E+03  0.12300974624E+03  0.47000000000E+01 0.  1.
         13    1    4    4    0    0  0.98891701672E+01  0.20498090911E+02 -0.15390360138E+02  0.27474180657E+02  0.00000000000E+00 0. -1.
        -14    1    4    4    0    0  0.15659278352E+02 -0.75428774134E+02 -0.62235198443E+02  0.99035008412E+02  0.00000000000E+00 0.  1.
</event>
<event>
12    1  0.1628146E-001  0.1948747E+03  0.7818608E-02  0.1154220E+00
         21   -1    0    0  503  502  0.00000000000E+00  0.00000000000E+00  0.82128109196E+02  0.82128109196E+02  0.00000000000E+00 0.  1.
         21   -1    0    0  501  503 -0.00000000000E+00 -0.00000000000E+00 -0.46187680586E+03  0.46187680586E+03  0.00000000000E+00 0.  1.
          6    2    1    2  501    0  0.37204080624E+02 -0.81426336691E+02 -0.19785498598E+03  0.27770980913E+03  0.17309462929E+03 0.  0.
         24    2    3    3    0    0  0.65642799528E+02 -0.84345832365E+02 -0.20762306650E+03  0.24713548028E+03  0.80903716245E+02 0.  0.
         -6    2    1    2    0  502 -0.37204080624E+02  0.81426336691E+02 -0.18189371069E+03  0.26629510593E+03  0.17266548448E+03 0.  0.
        -24    2    5    5    0    0 -0.42164276722E+02 -0.87199317806E+01 -0.14308445554E+03  0.16791217270E+03  0.76599431341E+02 0.  0.
          5    1    3    3  501    0 -0.28438718903E+02  0.29194956741E+01  0.97680805220E+01  0.30574328855E+02  0.47000000000E+01 0. -1.
        -13    1    4    4    0    0  0.22405051363E+02 -0.87406150838E+02 -0.13031900375E+03  0.15850824669E+03  0.00000000000E+00 0.  1.
         14    1    4    4    0    0  0.43237748165E+02  0.30603184729E+01 -0.77304062751E+02  0.88627233587E+02  0.00000000000E+00 0. -1.
         -5    1    5    5    0  502  0.49601960976E+01  0.90146268472E+02 -0.38809255144E+02  0.98382933223E+02  0.47000000000E+01 0.  1.
         13    1    6    6    0    0 -0.36735554001E+02 -0.40732559436E+02 -0.80577932527E+02  0.97475358611E+02  0.00000000000E+00 0. -1.
        -14    1    6    6    0    0 -0.54287227212E+01  0.32012627655E+02 -0.62506523017E+02  0.70436814092E+02  0.00000000000E+00 0.  1.
</event>
<event>
12    1  0.1628146E-001  0.2039620E+03  0.7818608E-02  0.1146973E+00
         21   -1    0    0  503  502  0.00000000000E+00  0.00000000000E+00  0.64500656345E+03  0.64500656345E+03  0.00000000000E+00 0. -1.
         21   -1    0    0  501  503 -0.00000000000E+00 -0.00000000000E+00 -0.17732920159E+03  0.17732920159E+03  0.00000000000E+00 0.  1.
          6    2    1    2  501    0 -0.14310188782E+02  0.10454239012E+03 -0.95853870827E+02  0.22302953400E+03  0.17152351339E+03 0.  0.
         24    2    3    3    0    0 -0.72502013364E+02  0.91333601456E+02 -0.76636135900E+02  0.16016323235E+03  0.78618032130E+02 0.  0.
         -6    2    1    2    0  502  0.14310188782E+02 -0.10454239012E+03  0.56353123269E+03  0.59930623104E+03  0.17454688628E+03 0.  0.
        -24    2    5    5    0    0 -0.39826928312E+02 -0.20503937883E+02  0.14413518997E+03  0.16813524459E+03  0.74080441414E+02 0.  0.
          5    1    3    3  501    0  0.58191824582E+02  0.13208788669E+02 -0.19217734927E+02  0.62866301641E+02  0.47000000000E+01 0. -1.
        -11    1    4    4    0    0 -0.29904945451E+02  0.27317981425E+02 -0.72636623050E+02  0.83166440826E+02  0.00000000000E+00 0.  1.
         12    1    4    4    0    0 -0.42597067914E+02  0.64015620031E+02 -0.39995128506E+01  0.76996791529E+02  0.00000000000E+00 0. -1.
         -5    1    5    5    0  502  0.54137117095E+02 -0.84038452241E+02  0.41939604272E+03  0.43117098645E+03  0.47000000000E+01 0.  1.
         11    1    6    6    0    0  0.54095952711E-01  0.10055144781E+02  0.10219379146E+03  0.10268729170E+03  0.00000000000E+00 0. -1.
        -12    1    6    6    0    0 -0.39881024265E+02 -0.30559082664E+02  0.41941398507E+02  0.65447952897E+02  0.00000000000E+00 0.  1.
</event>
<event>
12    1  0.1628146E-001  0.1846557E+03  0.7818608E-02  0.1163891E+00
         21   -1    0    0  503  502  0.00000000000E+00  0.00000000000E+00  0.13450441426E+04  0.13450441426E+04  0.00000000000E+00 0.  1.
         21   -1    0    0  501  503 -0.00000000000E+00 -0.00000000000E+00 -0.25278950302E+02  0.25278950302E+02  0.00000000000E+00 0.  1.
          6    2    1    2  501    0 -0.60663717037E+02  0.27175659543E+02  0.59061554478E+03  0.61815493800E+03  0.16991233800E+03 0.  0.
         24    2    3    3    0    0  0.28821038522E+02 -0.65963420790E+01  0.32231844514E+03  0.33328041607E+03  0.79451190478E+02 0.  0.
         -6    2    1    2    0  502  0.60663717037E+02 -0.27175659543E+02  0.72914964750E+03  0.75216815488E+03  0.17227629475E+03 0.  0.
        -24    2    5    5    0    0 -0.10262521524E+02  0.20623782409E+02  0.50922209430E+03  0.51614795104E+03  0.81061126843E+02 0.  0.
          5    1    3    3  501    0 -0.89484755560E+02  0.33772001622E+02  0.26829709964E+03  0.28487452194E+03  0.47000000000E+01 0. -1.
        -11    1    4    4    0    0 -0.26403248608E+02  0.41968927559E+01  0.74430887291E+02  0.79086676684E+02  0.00000000000E+00 0.  1.
         12    1    4    4    0    0  0.55224287131E+02 -0.10793234835E+02  0.24788755784E+03  0.25419373938E+03  0.00000000000E+00 0. -1.
         -5    1    5    5    0  502  0.70926238561E+02 -0.47799441952E+02  0.21992755320E+03  0.23602020384E+03  0.47000000000E+01 0.  1.
         13    1    6    6    0    0 -0.41669516609E+00  0.29458216658E+02  0.61112875272E+02  0.67843523549E+02  0.00000000000E+00 0. -1.
        -14    1    6    6    0    0 -0.98458263576E+01 -0.88344342496E+01  0.44810921903E+03  0.44830442749E+03  0.00000000000E+00 0.  1.
</event>
<event>
12    1  0.1628146E-001  0.2085108E+03  0.7818608E-02  0.1143396E+00
         21   -1    0    0  503  502  0.00000000000E+00  0.00000000000E+00  0.35334352286E+03  0.35334352286E+03  0.00000000000E+00 0. -1.
         21   -1    0    0  501  503 -0.00000000000E+00 -0.00000000000E+00 -0.14978438722E+03  0.14978438722E+03  0.00000000000E+00 0.  1.
          6    2    1    2  501    0  0.10991855325E+03  0.38261670536E+02 -0.88224941197E+01  0.20549944992E+03  0.16913350860E+03 0.  0.
         24    2    3    3    0    0  0.11567087619E+03  0.80528046019E+02 -0.15043365505E+02  0.16213673602E+03  0.78724205468E+02 0.  0.
         -6    2    1    2    0  502 -0.10991855325E+03 -0.38261670536E+02  0.21238162975E+03  0.29762846017E+03  0.17300491283E+03 0.  0.
        -24    2    5    5    0    0  0.80281872976E+00  0.18615641861E+02  0.10660795550E+03  0.13421361677E+03  0.79377906935E+02 0.  0.
          5    1    3    3  501    0 -0.57523229400E+01 -0.42266375483E+02  0.62208713854E+01  0.43362713897E+02  0.47000000000E+01 0. -1.
        -11    1    4    4    0    0  0.32265359077E+02 -0.50517668234E+01 -0.26542510922E+02  0.42084185040E+02  0.00000000000E+00 0.  1.
         12    1    4    4    0    0  0.83405517113E+02  0.85579812842E+02  0.11499145417E+02  0.12005255098E+03  0.00000000000E+00 0. -1.
         -5    1    5    5    0  502 -0.11072137198E+03 -0.56877312396E+02  0.10577367425E+03  0.16341484340E+03  0.47000000000E+01 0.  1.
         13    1    6    6    0    0 -0.25471458976E+02  0.39103556040E+02  0.74711072503E+02  0.88088748838E+02  0.00000000000E+00 0. -1.
        -14    1    6    6    0    0  0.26274277706E+02 -0.20487914179E+02  0.31896883001E+02  0.46124867930E+02  0.00000000000E+00 0.  1.
</event>
<event>
12    1  0.1628146E-001  0.1853511E+03  0.7818608E-02  0.1162893E+00
         21   -1    0    0  501  502  0.00000000000E+00  0.00000000000E+00  0.39690335677E+03  0.39690335677E+03  0.00000000000E+00 0.  1.
         21   -1    0    0  502  503 -0.00000000000E+00 -0.00000000000E+00 -0.15761849819E+03  0.15761849819E+03  0.00000000000E+00 0.  1.
         -6    2    1    2    0  503 -0.64385812861E+02 -0.21560457918E+02 -0.66839998888E+02  0.19703450961E+03  0.17246630478E+03 0.  0.
        -24    2    3    3    0    0 -0.62536744528E+02 -0.66538453289E+02 -0.51634332062E+01  0.12053269345E+03  0.78506426275E+02 0.  0.
          6    2    1    2  501    0  0.64385812861E+02  0.21560457918E+02  0.30612485746E+03  0.35748734535E+03  0.17168106326E+03 0.  0.
         24    2    5    5    0    0  0.99597519713E+02  0.26342848310E+02  0.29034774032E+03  0.31832431453E+03  0.80093366283E+02 0.  0.
          5    1    5    5  501    0 -0.35211706852E+02 -0.47823903920E+01  0.15777117148E+02  0.39163030817E+02  0.47000000000E+01 0. -1.
        -11    1    6    6    0    0  0.89982760727E+02  0.30852026077E+02  0.15029060087E+03  0.17786514400E+03  0.00000000000E+00 0.  1.
         12    1    6    6    0    0  0.96147589861E+01 -0.45091777672E+01  0.14005713945E+03  0.14045917053E+03  0.00000000000E+00 0. -1.
         -5    1    3    3    0  503 -0.18490683335E+01  0.44977995371E+02 -0.61676565682E+02  0.76501816159E+02  0.47000000000E+01 0.  1.
         13    1    4    4    0    0 -0.46433770806E+02 -0.68604145849E+02 -0.32296108125E+02  0.88913792513E+02  0.00000000000E+00 0. -1.
        -14    1    4    4    0    0 -0.16102973721E+02  0.20656925601E+01  0.27132674919E+02  0.31618900941E+02  0.00000000000E+00 0.  1.
</event>
<event>
12    1  0.1628146E-001  0.1872203E+03  0.7818608E-02  0.1162048E+00
         21   -1    0    0  501  502  0.00000000000E+00  0.00000000000E+00  0.30060486116E+03  0.30060486116E+03  0.00000000000E+00 0. -1.
         21   -1    0    0  502  503 -0.00000000000E+00 -0.00000000000E+00 -0.26125547973E+03  0.26125547973E+03  0.00000000000E+00 0. -1.
         -6    2    1    2    0  503  0.15148844635E+02  0.58100834893E+02 -0.19148069072E+03  0.26465003507E+03  0.17253866707E+03 0.  0.
        -24    2    3    3    0    0  0.21167436977E+01 -0.16029101916E+02 -0.16289561575E+03  0.18400092040E+03  0.84023475079E+02 0.  0.
          6    2    1    2  501    0 -0.15148844635E+02 -0.58100834893E+02  0.23083007215E+03  0.29721030582E+03  0.17733090302E+03 0.  0.
         24    2    5    5    0    0  0.22338061104E+02 -0.64580335417E+02  0.23506026037E+03  0.25864560017E+03  0.83514141246E+02 0.  0.
          5    1    5    5  501    0 -0.37486905739E+02  0.64795005234E+01 -0.42301882200E+01  0.38564705643E+02  0.47000000000E+01 0. -1.
        -13    1    6    6    0    0 -0.65378268619E+01  0.82026455213E+00 -0.49325088410E+01  0.82307750230E+01  0.00000000000E+00 0.  1.
         14    1    6    6    0    0  0.28875887966E+02 -0.65400599969E+02  0.23999276921E+03  0.25041482515E+03  0.00000000000E+00 0. -1.
         -5    1    3    3    0  503  0.13032100937E+02  0.74129936810E+02 -0.28585074963E+02  0.80649114669E+02  0.47000000000E+01 0.  1.
         11    1    4    4    0    0 -0.21306617707E+02  0.16244480238E+02 -0.12873029322E+03  0.13148894816E+03  0.00000000000E+00 0. -1.
        -12    1    4    4    0    0  0.23423361405E+02 -0.32273582155E+02 -0.34165322537E+02  0.52511972241E+02  0.00000000000E+00 0.  1.
</event>
<event>
12    1  0.1628146E-001  0.2715983E+03  0.7818608E-02  0.1100459E+00
         21   -1    0    0  501  502  0.00000000000E+00  0.00000000000E+00  0.57150218306E+03  0.57150218306E+03  0.00000000000E+00 0.  1.
         21   -1    0    0  502  503 -0.00000000000E+00 -0.00000000000E+00 -0.49335484113E+03  0.49335484113E+03  0.00000000000E+00 0. -1.
         -6    2    1    2    0  503  0.67105403541E+02 -0.19983036283E+03 -0.41861376710E+03  0.49900211837E+03  0.17126096764E+03 0.  0.
        -24    2    3    3    0    0 -0.31317741649E+01 -0.16953076808E+03 -0.35118030781E+03  0.39692034720E+03  0.73943654834E+02 0.  0.
          6    2    1    2  501    0 -0.67105403541E+02  0.19983036283E+03  0.49676110904E+03  0.56585490582E+03  0.17024942258E+03 0.  0.
         24    2    5    5    0    0 -0.15126262482E+02  0.18768907026E+03  0.45324956716E+03  0.49682892254E+03  0.77122093005E+02 0.  0.
          5    1    5    5  501    0 -0.51979141059E+02  0.12141292567E+02  0.43511541874E+02  0.69025983272E+02  0.47000000000E+01 0. -1.
        -11    1    6    6    0    0 -0.40935251714E+02  0.15380851460E+03  0.32889513369E+03  0.36538303595E+03  0.00000000000E+00 0.  1.
         12    1    6    6    0    0  0.25808989232E+02  0.33880555655E+02  0.12435443347E+03  0.13144588659E+03  0.00000000000E+00 0. -1.
         -5    1    3    3    0  503  0.70237177705E+02 -0.30299594749E+02 -0.67433459293E+02  0.10208177118E+03  0.47000000000E+01 0.  1.
         11    1    4    4    0    0 -0.47146163250E+01 -0.69196763274E+02 -0.22646390679E+03  0.23684661859E+03  0.00000000000E+00 0. -1.
        -12    1    4    4    0    0  0.15828421602E+01 -0.10033400480E+03 -0.12471640102E+03  0.16007372861E+03  0.00000000000E+00 0.  1.
</event>
<event>
12    1  0.1628146E-001  0.1940951E+03  0.7818608E-02  0.1154952E+00
         21   -1    0    0  501  502  0.00000000000E+00  0.00000000000E+00  0.90686054139E+02  0.90686054139E+02  0.00000000000E+00 0. -1.
         21   -1    0    0  502  503 -0.00000000000E+00 -0.00000000000E+00 -0.68370285762E+03  0.68370285762E+03  0.00000000000E+00 0. -1.
         -6    2    1    2    0  503 -0.23231958471E+02 -0.86593252176E+02 -0.53935696969E+03  0.57301293072E+03  0.17146359031E+03 0.  0.
        -24    2    3    3    0    0 -0.66949907927E+02 -0.16229224092E+02 -0.34375652185E+03  0.36054180151E+03  0.84119952659E+02 0.  0.
          6    2    1    2  501    0  0.23231958471E+02  0.86593252176E+02 -0.53659833797E+02  0.20137598104E+03  0.17214759005E+03 0.  0.
         24    2    5    5    0    0 -0.33142952513E+02  0.88576143035E+02 -0.81438701496E+00  0.12393701353E+03  0.80097014173E+02 0.  0.
          5    1    5    5  501    0  0.56374910984E+02 -0.19828908591E+01 -0.52845446782E+02  0.77438967518E+02  0.47000000000E+01 0. -1.
        -11    1    6    6    0    0 -0.31122067771E+02  0.68339957655E+02 -0.36015951362E+02  0.83283141554E+02  0.00000000000E+00 0.  1.
         12    1    6    6    0    0 -0.20208847413E+01  0.20236185380E+02  0.35201564347E+02  0.40653871972E+02  0.00000000000E+00 0. -1.
         -5    1    3    3    0  503  0.43717949456E+02 -0.70364028084E+02 -0.19560044784E+03  0.21247112921E+03  0.47000000000E+01 0.  1.
         11    1    4    4    0    0  0.18052658671E+02 -0.14346950580E+02 -0.58388731257E+02  0.62777204571E+02  0.00000000000E+00 0. -1.
        -12    1    4    4    0    0 -0.85002566598E+02 -0.18822735122E+01 -0.28536779059E+03  0.29776459694E+03  0.00000000000E+00 0.  1.
</event>
<event>
12    1  0.1628146E-001  0.3136059E+03  0.7818608E-02  0.1078648E+00
         21   -1    0    0  501  502  0.00000000000E+00  0.00000000000E+00  0.93562901317E+02  0.93562901317E+02  0.00000000000E+00 0. -1.
         21   -1    0    0  502  503 -0.00000000000E+00 -0.00000000000E+00 -0.15118520157E+04  0.15118520157E+04  0.00000000000E+00 0.  1.
         -6    2    1    2    0  503  0.21642506093E+03 -0.14855244924E+03 -0.11526165968E+04  0.11945181882E+04  0.17158393141E+03 0.  0.
        -24    2    3    3    0    0  0.14068727009E+03 -0.28677635953E+02 -0.48883281090E+03  0.51574194505E+03  0.80105693329E+02 0.  0.
          6    2    1    2  501    0 -0.21642506093E+03  0.14855244924E+03 -0.26567251753E+03  0.41089672878E+03  0.17130848774E+03 0.  0.
         24    2    5    5    0    0 -0.15815071532E+03  0.16973126064E+03 -0.24344193095E+03  0.34486090223E+03  0.76450758965E+02 0.  0.
          5    1    5    5  501    0 -0.58274345612E+02 -0.21178811391E+02 -0.22230586579E+02  0.66035826550E+02  0.47000000000E+01 0. -1.
        -13    1    6    6    0    0 -0.12709247391E+03  0.10710173392E+03 -0.20870736846E+03  0.26679963265E+03  0.00000000000E+00 0.  1.
         14    1    6    6    0    0 -0.31058241406E+02  0.62629526715E+02 -0.34734562487E+02  0.78061269571E+02  0.00000000000E+00 0. -1.
         -5    1    3    3    0  503  0.75737790847E+02 -0.11987481329E+03 -0.66378378595E+03  0.67877624318E+03  0.47000000000E+01 0.  1.
         11    1    4    4    0    0  0.18644992204E+02 -0.31272024909E+01 -0.10922893092E+02  0.21834026729E+02  0.00000000000E+00 0. -1.
        -12    1    4    4    0    0  0.12204227788E+03 -0.25550433462E+02 -0.47790991781E+03  0.49390791832E+03  0.00000000000E+00 0.  1.
</event>
<event>
12    1  0.1628146E-001  0.1851182E+03  0.7818608E-02  0.1163247E+00
         21   -1    0    0  503  502  0.00000000000E+00  0.00000000000E+00  0.54065120815E+03  0.54065120815E+03  0.00000000000E+00 0.  1.
         21   -1    0    0  501  503 -0.00000000000E+00 -0.00000000000E+00 -0.90978634080E+02  0.90978634080E+02  0.00000000000E+00 0. -1.
          6    2    1    2  501    0  0.65481518925E+02 -0.70743305349E+01  0.48947755389E+02  0.19021264913E+03  0.17160155495E+03 0.  0.
         24    2    3    3    0    0  0.65976635399E+02 -0.68495246180E+02  0.49180988955E+02  0.12860973997E+03  0.71254335826E+02 0.  0.
         -6    2    1    2    0  502 -0.65481518925E+02  0.70743305349E+01  0.40072481868E+03  0.44141719310E+03  0.17300544090E+03 0.  0.
        -24    2    5    5    0    0  0.26373455186E+02  0.28018701463E+02  0.23327778110E+03  0.24922821490E+03  0.78838906521E+02 0.  0.
          5    1    3    3  501    0 -0.49511647372E+00  0.61420915645E+02 -0.23323356651E+00  0.61602909159E+02  0.47000000000E+01 0. -1.
        -11    1    4    4    0    0  0.16762655059E+02  0.14154827961E+02  0.14766615662E+02  0.26446147117E+02  0.00000000000E+00 0.  1.
         12    1    4    4    0    0  0.49213980339E+02 -0.82650074141E+02  0.34414373293E+02  0.10216359286E+03  0.00000000000E+00 0. -1.
         -5    1    5    5    0  502 -0.91854974111E+02 -0.20944370929E+02  0.16744703759E+03  0.19218897820E+03  0.47000000000E+01 0.  1.
         11    1    6    6    0    0  0.93803352405E+01  0.21729640481E+02  0.10803005325E+02  0.26016780906E+02  0.00000000000E+00 0. -1.
        -12    1    6    6    0    0  0.16993119946E+02  0.62890609826E+01  0.22247477577E+03  0.22321143400E+03  0.00000000000E+00 0.  1.
</event>
<event>
12    1  0.1628146E-001  0.2011581E+03  0.7818608E-02  0.1148892E+00
         21   -1    0    0  501  502  0.00000000000E+00  0.00000000000E+00  0.73164813600E+02  0.73164813600E+02  0.00000000000E+00 0.  1.
         21   -1    0    0  502  503 -0.00000000000E+00 -0.00000000000E+00 -0.62534829225E+03  0.62534829225E+03  0.00000000000E+00 0.  1.
         -6    2    1    2    0  503  0.10165320341E+03  0.24208248095E+02 -0.39582177658E+03  0.44373172612E+03  0.17118280554E+03 0.  0.
        -24    2    3    3    0    0  0.12837872197E+03 -0.24411582054E+01 -0.36569733993E+03  0.39521352457E+03  0.77279557843E+02 0.  0.
          6    2    1    2  501    0 -0.10165320341E+03 -0.24208248095E+02 -0.15636170207E+03  0.25478137973E+03  0.17188704589E+03 0.  0.
         24    2    5    5    0    0 -0.10770853131E+03 -0.41009803380E+02 -0.52295126080E+02  0.14908889422E+03  0.78802198420E+02 0.  0.
          5    1    5    5  501    0  0.60553279058E+01  0.16801555285E+02 -0.10406657599E+03  0.10569248552E+03  0.47000000000E+01 0. -1.
        -13    1    6    6    0    0 -0.68114502784E+02  0.13005709321E+02 -0.42686803045E+02  0.81430320635E+02  0.00000000000E+00 0.  1.
         14    1    6    6    0    0 -0.39594028529E+02 -0.54015512701E+02 -0.96083230352E+01  0.67658573581E+02  0.00000000000E+00 0. -1.
         -5    1    3    3    0  503 -0.26725518559E+02  0.26649406300E+02 -0.30124436647E+02  0.48518201551E+02  0.47000000000E+01 0.  1.
         11    1    4    4    0    0  0.27253008151E+02 -0.88039375827E+01 -0.19198459278E+03  0.19410904059E+03  0.00000000000E+00 0. -1.
        -12    1    4    4    0    0  0.10112571382E+03  0.63627793772E+01 -0.17371274715E+03  0.20110448398E+03  0.00000000000E+00 0.  1.
</event>
<event>
12    1  0.1628146E-001  0.1750575E+03  0.7818608E-02  0.1174350E+00
         21   -1    0    0  501  502  0.00000000000E+00  0.00000000000E+00  0.15557580581E+03  0.15557580581E+03  0.00000000000E+00 0.  1.
         21   -1    0    0  502  503 -0.00000000000E+00 -0.00000000000E+00 -0.48225314581E+03  0.48225314581E+03  0.00000000000E+00 0.  1.
         -6    2    1    2    0  503 -0.73670794682E+01  0.25620408480E+02 -0.41049677488E+03  0.44373923318E+03  0.16639178372E+03 0.  0.
        -24    2    3    3    0    0 -0.37298047703E+02 -0.56655062158E+01 -0.10061347909E+03  0.13081045802E+03  0.74599339331E+02 0.  0.
          6    2    1    2  501    0  0.73670794682E+01 -0.25620408480E+02  0.83819434884E+02  0.19408971843E+03  0.17301572745E+03 0.  0.
         24    2    5    5    0    0 -0.32754819324E+02  0.40782501427E+02  0.36385865135E+02  0.10303398415E+03  0.80969007010E+02 0.  0.
          5    1    5    5  501    0  0.40121898792E+02 -0.66402909907E+02  0.47433569749E+02  0.91055734284E+02  0.47000000000E+01 0. -1.
        -13    1    6    6    0    0 -0.12469341322E+02 -0.21851283230E+02  0.26358172083E+02  0.36437841420E+02  0.00000000000E+00 0.  1.
         14    1    6    6    0    0 -0.20285478002E+02  0.62633784657E+02  0.10027693052E+02  0.66596142728E+02  0.00000000000E+00 0. -1.
         -5    1    3    3    0  503  0.29930968235E+02  0.31285914696E+02 -0.30988329579E+03  0.31292877517E+03  0.47000000000E+01 0.  1.
         13    1    4    4    0    0 -0.28152695187E+02 -0.32036681511E+02 -0.23268925546E+02  0.48583599131E+02  0.00000000000E+00 0. -1.
        -14    1    4    4    0    0 -0.91453525162E+01  0.26371175295E+02 -0.77344553547E+02  0.82226858887E+02  0.00000000000E+00 0.  1.
</event>
<event>
12    1  0.1628146E-001  0.1841443E+03  0.7818608E-02  0.1164281E+00
         21   -1    0    0  501  502  0.00000000000E+00  0.00000000000E+00  0.21604233405E+03  0.21604233405E+03  0.00000000000E+00 0.  1.
         21   -1    0    0  502  503 -0.00000000000E+00 -0.00000000000E+00 -0.16271630160E+03  0.16271630160E+03  0.00000000000E+00 0.  1.
         -6    2    1    2    0  503 -0.64514287870E+02 -0.19029175707E+02 -0.13600288823E+02  0.18282946825E+03  0.16946221920E+03 0.  0.
        -24    2    3    3    0    0  0.16611068107E+02  0.29284034785E+02  0.98047661877E+01  0.85436571738E+02  0.77908870312E+02 0.  0.
          6    2    1    2  501    0  0.64514287870E+02  0.19029175707E+02  0.66926321269E+02  0.19592916741E+03  0.17142025346E+03 0.  0.
         24    2    5    5    0    0 -0.19469161563E+02  0.38480404777E+02  0.76412059944E+01  0.91199109715E+02  0.79994373427E+02 0.  0.
          5    1    5    5  501    0  0.83983449433E+02 -0.19451229071E+02  0.59285115275E+02  0.10473005769E+03  0.47000000000E+01 0. -1.
        -13    1    6    6    0    0  0.14595354422E+02 -0.10372621799E+02  0.23521604379E+02  0.29561487213E+02  0.00000000000E+00 0.  1.
         14    1    6    6    0    0 -0.34064515985E+02  0.48853026576E+02 -0.15880398384E+02  0.61637622503E+02  0.00000000000E+00 0. -1.
         -5    1    3    3    0  503 -0.81125355977E+02 -0.48313210492E+02 -0.23405055011E+02  0.97392896510E+02  0.47000000000E+01 0.  1.
         13    1    4    4    0    0  0.47565613312E+01 -0.16671489057E+02  0.29367478289E+02  0.34102964741E+02  0.00000000000E+00 0. -1.
        -14    1    4    4    0    0  0.11854506776E+02  0.45955523843E+02 -0.19562712101E+02  0.51333606997E+02  0.00000000000E+00 0.  1.
</event>
<event>
12    1  0.1628146E-001  0.2350241E+03  0.7818608E-02  0.1124262E+00
         21   -1    0    0  503  502  0.00000000000E+00  0.00000000000E+00  0.61917279059E+03  0.61917279059E+03  0.00000000000E+00 0.  1.
         21   -1    0    0  501  503 -0.00000000000E+00 -0.00000000000E+00 -0.87530138755E+02  0.87530138755E+02  0.00000000000E+00 0.  1.
          6    2    1    2  501    0 -0.59244405831E+02  0.13421802469E+03  0.30167718783E+03  0.38242052893E+03  0.18360816299E+03 0.  0.
         24    2    3    3    0    0 -0.47432269411E+02  0.28891777071E+02  0.55466651217E+02  0.11432565143E+03  0.83121899719E+02 0.  0.
         -6    2    1    2    0  502  0.59244405831E+02 -0.13421802469E+03  0.22996546401E+03  0.32428240042E+03  0.17535844094E+03 0.  0.
        -24    2    5    5    0    0  0.10422941396E+03 -0.11100663532E+03  0.14212916089E+03  0.22279483616E+03  0.79060716060E+02 0.  0.
          5    1    3    3  501    0 -0.11812136420E+02  0.10532624762E+03  0.24621053661E+03  0.26809487750E+03  0.47000000000E+01 0. -1.
        -11    1    4    4    0    0 -0.14731025057E+02  0.28292884943E+02  0.71209417236E+02  0.78027376867E+02  0.00000000000E+00 0.  1.
         12    1    4    4    0    0 -0.32701244354E+02  0.59889212774E+00 -0.15742766018E+02  0.36298274559E+02  0.00000000000E+00 0. -1.
         -5    1    5    5    0  502 -0.44985008133E+02 -0.23211389370E+02  0.87836303122E+02  0.10148756426E+03  0.47000000000E+01 0.  1.
         13    1    6    6    0    0  0.22630240373E+01  0.65301448433E+01 -0.50919747634E+01  0.85844205663E+01  0.00000000000E+00 0. -1.
        -14    1    6    6    0    0  0.10196638993E+03 -0.11753678017E+03  0.14722113565E+03  0.21421041559E+03  0.00000000000E+00 0.  1.
</event>
<event>
12    1  0.1628146E-001  0.2089104E+03  0.7818608E-02  0.1142762E+00
         21   -1    0    0  503  502  0.00000000000E+00  0.00000000000E+00  0.43259563636E+02  0.43259563636E+02  0.00000000000E+00 0. -1.
         21   -1    0    0  501  503 -0.00000000000E+00 -0.00000000000E+00 -0.11323804311E+04  0.11323804311E+04  0.00000000000E+00 0. -1.
          6    2    1    2  501    0  0.35356634637E+02 -0.11106779737E+03 -0.74292519261E+03  0.77129483032E+03  0.17138181420E+03 0.  0.
         24    2    3    3    0    0 -0.30281871011E+02 -0.91238285404E+01 -0.33646401310E+03  0.34710882554E+03  0.79222905125E+02 0.  0.
         -6    2    1    2    0  502 -0.35356634637E+02  0.11106779737E+03 -0.34619567487E+03  0.40434516443E+03  0.17337075726E+03 0.  0.
        -24    2    5    5    0    0  0.12149446725E+02  0.12924435228E+03 -0.21656042744E+03  0.26500887235E+03  0.80495788958E+02 0.  0.
          5    1    3    3  501    0  0.65638505648E+02 -0.10194396883E+03 -0.40646117951E+03  0.42418600478E+03  0.47000000000E+01 0. -1.
        -13    1    4    4    0    0  0.38720883626E+01 -0.80739128954E+01 -0.40524653272E-01  0.89544837918E+01  0.00000000000E+00 0.  1.
         14    1    4    4    0    0 -0.34153959374E+02 -0.10499156450E+01 -0.33642348844E+03  0.33815434175E+03  0.00000000000E+00 0. -1.
         -5    1    5    5    0  502 -0.47506081362E+02 -0.18176554907E+02 -0.12963524743E+03  0.13933629208E+03  0.47000000000E+01 0.  1.
         11    1    6    6    0    0 -0.30519602248E+02  0.84111024534E+02 -0.14356046448E+03  0.16916180872E+03  0.00000000000E+00 0. -1.
        -12    1    6    6    0    0  0.42669048972E+02  0.45133327743E+02 -0.72999962965E+02  0.95847063629E+02  0.00000000000E+00 0.  1.
</event>
<event>
12    1  0.1628146E-001  0.1798437E+03  0.7818608E-02  0.1168022E+00
         21   -1    0    0  501  502  0.00000000000E+00  0.00000000000E+00  0.57848943866E+02  0.57848943866E+02  0.00000000000E+00 0. -1.
         21   -1    0    0  502  503 -0.00000000000E+00 -0.00000000000E+00 -0.11195786473E+04  0.11195786473E+04  0.00000000000E+00 0. -1.
         -6    2    1    2    0  503  0.56999977862E+01  0.50456949055E+02 -0.94792602033E+03  0.96483548028E+03  0.17252643364E+03 0.  0.
        -24    2    3    3    0    0  0.26068726301E+02  0.71287036886E+02 -0.91075283538E+03  0.91737272289E+03  0.79627667426E+02 0.  0.
          6    2    1    2  501    0 -0.56999977862E+01 -0.50456949055E+02 -0.11380368310E+03  0.21259211088E+03  0.17223743391E+03 0.  0.
         24    2    5    5    0    0  0.34921842768E+02 -0.11867975234E+02 -0.12768913766E+03  0.15467718466E+03  0.79120993679E+02 0.  0.
          5    1    5    5  501    0 -0.40621840554E+02 -0.38588973821E+02  0.13885454559E+02  0.57914926218E+02  0.47000000000E+01 0. -1.
        -11    1    6    6    0    0 -0.95626543484E+01 -0.27646676088E+02 -0.88881053370E+02  0.93571495152E+02  0.00000000000E+00 0.  1.
         12    1    6    6    0    0  0.44484497116E+02  0.15778700854E+02 -0.38808084287E+02  0.61105689509E+02  0.00000000000E+00 0. -1.
         -5    1    3    3    0  503 -0.20368728514E+02 -0.20830087831E+02 -0.37173184951E+02  0.47462757397E+02  0.47000000000E+01 0.  1.
         13    1    4    4    0    0  0.27588766235E+02 -0.53050017593E+01 -0.39057924646E+03  0.39158834358E+03  0.00000000000E+00 0. -1.
        -14    1    4    4    0    0 -0.15200399348E+01  0.76592038645E+02 -0.52017358892E+03  0.52578437930E+03  0.00000000000E+00 0.  1.
</event>
<event>
12    1  0.1628146E-001  0.2277685E+03  0.7818608E-02  0.1128300E+00
         21   -1    0    0  501  502  0.00000000000E+00  0.00000000000E+00  0.62820282255E+03  0.62820282255E+03  0.00000000000E+00 0.  1.
         21   -1    0    0  502  503 -0.00000000000E+00 -0.00000000000E+00 -0.82421044607E+02  0.82421044607E+02  0.00000000000E+00 0. -1.
         -6    2    1    2    0  503  0.64437100316E+02  0.13557176043E+03  0.27192714387E+03  0.35442892206E+03  0.17071510507E+03 0.  0.
        -24    2    3    3    0    0  0.51607429702E+02  0.17921886376E+02  0.69113027172E+02  0.11956353669E+03  0.80835066463E+02 0.  0.
          6    2    1    2  501    0 -0.64437100316E+02 -0.13557176043E+03  0.27385463408E+03  0.35619494510E+03  0.17130859927E+03 0.  0.
         24    2    5    5    0    0 -0.71606163723E+02 -0.90582231083E+02  0.27714171090E+03  0.31027819331E+03  0.78309935833E+02 0.  0.
          5    1    5    5  501    0  0.71690634067E+01 -0.44989529347E+02 -0.32870768221E+01  0.45916751791E+02  0.47000000000E+01 0. -1.
        -11    1    6    6    0    0 -0.77171736825E+02 -0.95320911828E+02  0.21350739447E+03  0.24622542657E+03  0.00000000000E+00 0.  1.
         12    1    6    6    0    0  0.55655731026E+01  0.47386807453E+01  0.63634316426E+02  0.64052766733E+02  0.00000000000E+00 0. -1.
         -5    1    3    3    0  503  0.12829670615E+02  0.11764987405E+03  0.20281411670E+03  0.23486538537E+03  0.47000000000E+01 0.  1.
         13    1    4    4    0    0 -0.83768719403E+01 -0.15151999458E+02 -0.56057947718E+01  0.18198351742E+02  0.00000000000E+00 0. -1.
        -14    1    4    4    0    0  0.59984301642E+02  0.33073885835E+02  0.74718821943E+02  0.10136518495E+03  0.00000000000E+00 0.  1.
</event>
<event>
12    1  0.1628146E-001  0.2136306E+03  0.7818608E-02  0.1138822E+00
         21   -1    0    0  503  502  0.00000000000E+00  0.00000000000E+00  0.33667358115E+03  0.33667358115E+03  0.00000000000E+00 0. -1.
         21   -1    0    0  501  503 -0.00000000000E+00 -0.00000000000E+00 -0.37864218532E+03  0.37864218532E+03  0.00000000000E+00 0.  1.
          6    2    1    2  501    0  0.19594170441E+02  0.12551633644E+03 -0.30775664048E+03  0.37463608316E+03  0.17175494989E+03 0.  0.
         24    2    3    3    0    0  0.27738861374E+02  0.15802379423E+03 -0.27046658572E+03  0.32428025940E+03  0.79148901883E+02 0.  0.
         -6    2    1    2    0  502 -0.19594170441E+02 -0.12551633644E+03  0.26578803631E+03  0.34067968332E+03  0.17111716497E+03 0.  0.
        -24    2    5    5    0    0 -0.38890526834E+02 -0.67155682136E+02  0.65484899428E+02  0.13110451306E+03  0.82932277016E+02 0.  0.
          5    1    3    3  501    0 -0.81446909336E+01 -0.32507457788E+02 -0.37290054765E+02  0.50355823761E+02  0.47000000000E+01 0. -1.
        -13    1    4    4    0    0 -0.26754872142E+02  0.43864814726E+02 -0.63067791101E+02  0.81347965117E+02  0.00000000000E+00 0.  1.
         14    1    4    4    0    0  0.54493733516E+02  0.11415897951E+03 -0.20739879462E+03  0.24293229428E+03  0.00000000000E+00 0. -1.
         -5    1    5    5    0  502  0.19296356393E+02 -0.58360654307E+02  0.20030313689E+03  0.20957517026E+03  0.47000000000E+01 0.  1.
         13    1    6    6    0    0 -0.33893562805E+02 -0.18214570758E+02  0.71844559698E+02  0.81499600893E+02  0.00000000000E+00 0. -1.
        -14    1    6    6    0    0 -0.49969640286E+01 -0.48941111377E+02 -0.63596602696E+01  0.49604912167E+02  0.00000000000E+00 0.  1.
</event>
<event>
12    1  0.1628146E-001  0.1893406E+03  0.7818608E-02  0.1160495E+00
         21   -1    0    0  503  502  0.00000000000E+00  0.00000000000E+00  0.15812841939E+03  0.15812841939E+03  0.00000000000E+00 0. -1.
         21   -1    0    0  501  503 -0.00000000000E+00 -0.00000000000E+00 -0.39849789444E+03  0.39849789444E+03  0.00000000000E+00 0. -1.
          6    2    1    2  501    0  0.66587234233E+02  0.94031030512E+01 -0.30790363674E+03  0.36146164550E+03  0.17699602692E+03 0.  0.
         24    2    3    3    0    0  0.67795046721E+02  0.62036842247E+02 -0.14837584518E+03  0.19340518002E+03  0.83339270874E+02 0.  0.
         -6    2    1    2    0  502 -0.66587234233E+02 -0.94031030512E+01  0.67534161686E+02  0.19516466832E+03  0.17031179248E+03 0.  0.
        -24    2    5    5    0    0  0.32301321221E+02 -0.62173234213E+01  0.42769081325E+02  0.93064253061E+02  0.75826976844E+02 0.  0.
          5    1    3    3  501    0 -0.12078124880E+01 -0.52633739196E+02 -0.15952779155E+03  0.16805646548E+03  0.47000000000E+01 0. -1.
        -11    1    4    4    0    0  0.47523376091E+02  0.59816865817E+02 -0.15429316232E+03  0.17217116091E+03  0.00000000000E+00 0.  1.
         12    1    4    4    0    0  0.20271670630E+02  0.22199764293E+01  0.59173171366E+01  0.21234019110E+02  0.00000000000E+00 0. -1.
         -5    1    5    5    0  502 -0.98888555454E+02 -0.31857796299E+01  0.24765080361E+02  0.10210041526E+03  0.47000000000E+01 0.  1.
         11    1    6    6    0    0 -0.68654909005E+01 -0.90919683460E+01  0.51573801577E+02  0.52817192871E+02  0.00000000000E+00 0. -1.
        -12    1    6    6    0    0  0.39166812121E+02  0.28746449247E+01 -0.88047202521E+01  0.40247060189E+02  0.00000000000E+00 0.  1.
</event>
<event>
12    1  0.1628146E-001  0.1796245E+03  0.7818608E-02  0.1168397E+00
         21   -1    0    0  501  502  0.00000000000E+00  0.00000000000E+00  0.43133696466E+02  0.43133696466E+02  0.00000000000E+00 0.  1.
         21   -1    0    0  502  503 -0.00000000000E+00 -0.00000000000E+00 -0.78319225664E+03  0.78319225664E+03  0.00000000000E+00 0.  1.
         -6    2    1    2    0  503 -0.48350641918E+02 -0.73272709550E+01 -0.46141347326E+03  0.49480211355E+03  0.17185826949E+03 0.  0.
        -24    2    3    3    0    0  0.25741660023E+02  0.47486327337E+01 -0.13076165749E+03  0.15570299835E+03  0.80371823742E+02 0.  0.
          6    2    1    2  501    0  0.48350641918E+02  0.73272709550E+01 -0.27864508691E+03  0.33152383955E+03  0.17283951591E+03 0.  0.
         24    2    5    5    0    0 -0.77997368418E+01 -0.27263335976E+02 -0.24281458015E+03  0.25632217510E+03  0.77058495499E+02 0.  0.
          5    1    5    5  501    0  0.56150378760E+02  0.34590606931E+02 -0.35830506758E+02  0.75201664458E+02  0.47000000000E+01 0. -1.
        -11    1    6    6    0    0  0.56152267349E+01 -0.44410060322E+02 -0.22105390693E+03  0.22554071473E+03  0.00000000000E+00 0.  1.
         12    1    6    6    0    0 -0.13414963577E+02  0.17146724346E+02 -0.21760673219E+02  0.30781460370E+02  0.00000000000E+00 0. -1.
         -5    1    3    3    0  503 -0.74092301941E+02 -0.12075903689E+02 -0.33065181577E+03  0.33909911520E+03  0.47000000000E+01 0.  1.
         13    1    4    4    0    0 -0.16364510478E-02 -0.33113832649E+02 -0.83848982748E+02  0.90150861467E+02  0.00000000000E+00 0. -1.
        -14    1    4    4    0    0  0.25743296474E+02  0.37862465382E+02 -0.46912674738E+02  0.65552136878E+02  0.00000000000E+00 0.  1.
</event>
<event>
12    1  0.1628146E-001  0.2246349E+03  0.7818608E-02  0.1130511E+00
         21   -1    0    0  503  502  0.00000000000E+00  0.00000000000E+00  0.54257314912E+03  0.54257314912E+03  0.00000000000E+00 0. -1.
         21   -1    0    0  501  503 -0.00000000000E+00 -0.00000000000E+00 -0.94464951483E+02  0.94464951483E+02  0.00000000000E+00 0.  1.
          6    2    1    2  501    0  0.25389697745E+02 -0.14230490724E+03  0.26492108283E+03  0.34733850186E+03  0.17194630375E+03 0.  0.
         24    2    3    3    0    0 -0.42986896795E+02 -0.12342650490E+03  0.18815935678E+03  0.24271438733E+03  0.80152073377E+02 0.  0.
         -6    2    1    2    0  502 -0.25389697745E+02  0.14230490724E+03  0.18318711480E+03  0.28969959873E+03  0.17167706632E+03 0.  0.
        -24    2    5    5    0    0 -0.77832272990E+02  0.59321379595E+02  0.97945616604E+02  0.15960466196E+03  0.79394052122E+02 0.  0.
          5    1    3    3  501    0  0.68376594540E+02 -0.18878402343E+02  0.76761726052E+02  0.10462411454E+03  0.47000000000E+01 0. -1.
        -11    1    4    4    0    0 -0.13174300639E+02 -0.85353217893E+01 -0.45851966621E+01  0.16353530011E+02  0.00000000000E+00 0.  1.
         12    1    4    4    0    0 -0.29812596156E+02 -0.11489118311E+03  0.19274455344E+03  0.22636085732E+03  0.00000000000E+00 0. -1.
         -5    1    5    5    0  502  0.52442575245E+02  0.82983527644E+02  0.85241498198E+02  0.13009493677E+03  0.47000000000E+01 0.  1.
         11    1    6    6    0    0 -0.24319010246E+02 -0.54608976866E+01  0.64532724778E+02  0.69178813449E+02  0.00000000000E+00 0. -1.
        -12    1    6    6    0    0 -0.53513262744E+02  0.64782277281E+02  0.33412891826E+02  0.90425848514E+02  0.00000000000E+00 0.  1.
</event>
<event>
12    1  0.1628146E-001  0.2085980E+03  0.7818608E-02  0.1143206E+00
         21   -1    0    0  501  502  0.00000000000E+00  0.00000000000E+00  0.68500848760E+02  0.68500848760E+02  0.00000000000E+00 0. -1.
         21   -1    0    0  502  503 -0.00000000000E+00 -0.00000000000E+00 -0.14721842960E+04  0.14721842960E+04  0.00000000000E+00 0. -1.
         -6    2    1    2    0  503 -0.40375434999E+02 -0.10935812147E+03 -0.12873066294E+04  0.13040979573E+04  0.17298482499E+03 0.  0.
        -24    2    3    3    0    0 -0.91757192297E+02 -0.83463645795E+02 -0.79555648648E+03  0.80897079999E+03  0.78345832994E+02 0.  0.
          6    2    1    2  501    0  0.40375434999E+02  0.10935812147E+03 -0.11637681789E+03  0.23658718750E+03  0.16982508373E+03 0.  0.
         24    2    5    5    0    0  0.59407231207E+02  0.15681468404E+02 -0.25721591487E+02  0.10476160322E+03  0.80859542848E+02 0.  0.
          5    1    5    5  501    0 -0.19031796208E+02  0.93676653069E+02 -0.90655226407E+02  0.13182558428E+03  0.47000000000E+01 0. -1.
        -13    1    6    6    0    0  0.55180794792E+02  0.26951042838E+02  0.14228734627E+02  0.63037573820E+02  0.00000000000E+00 0.  1.
         14    1    6    6    0    0  0.42264364149E+01 -0.11269574434E+02 -0.39950326115E+02  0.41724029400E+02  0.00000000000E+00 0. -1.
         -5    1    3    3    0  503  0.51381757298E+02 -0.25894475678E+02 -0.49175014290E+03  0.49512715730E+03  0.47000000000E+01 0.  1.
         13    1    4    4    0    0 -0.51105786801E+02 -0.91574431138E+02 -0.59574162360E+03  0.60490144650E+03  0.00000000000E+00 0. -1.
        -14    1    4    4    0    0 -0.40651405497E+02  0.81107853428E+01 -0.19981486288E+03  0.20406935350E+03  0.00000000000E+00 0.  1.
</event>
<event>
12    1  0.1628146E-001  0.1934504E+03  0.7818608E-02  0.1155403E+00
         21   -1    0    0  501  502  0.00000000000E+00  0.00000000000E+00  0.25637036390E+03  0.25637036390E+03  0.00000000000E+00 0.  1.
         21   -1    0    0  502  503 -0.00000000000E+00 -0.00000000000E+00 -0.27370885770E+03  0.27370885770E+03  0.00000000000E+00 0. -1.
         -6    2    1    2    0  503 -0.23401579607E+02 -0.84208327967E+02 -0.18977122609E+03  0.27093427606E+03  0.17249228175E+03 0.  0.
        -24    2    3    3    0    0  0.52814567530E+02 -0.38740119760E+02 -0.97309421307E+02  0.14268633500E+03  0.81240945947E+02 0.  0.
          6    2    1    2  501    0  0.23401579607E+02  0.84208327967E+02  0.17243273229E+03  0.25914494555E+03  0.17258151468E+03 0.  0.
         24    2    5    5    0    0  0.16229026755E+02 -0.11134899462E+02  0.71500675004E+02  0.12003654638E+03  0.94387809833E+02 0.  0.
          5    1    5    5  501    0  0.71725528522E+01  0.95343227429E+02  0.10093205728E+03  0.13910839917E+03  0.47000000000E+01 0. -1.
        -11    1    6    6    0    0  0.21253663142E+00 -0.14968269211E+02  0.92300338647E+02  0.93506399617E+02  0.00000000000E+00 0.  1.
         12    1    6    6    0    0  0.16016490124E+02  0.38333697490E+01 -0.20799663643E+02  0.26530146762E+02  0.00000000000E+00 0. -1.
         -5    1    3    3    0  503 -0.76216147137E+02 -0.45468208207E+02 -0.92461804779E+02  0.12824794106E+03  0.47000000000E+01 0.  1.
         13    1    4    4    0    0  0.62139860444E+01 -0.19732160725E+02 -0.89373322760E+02  0.91736375613E+02  0.00000000000E+00 0. -1.
        -14    1    4    4    0    0  0.46600581485E+02 -0.19007959035E+02 -0.79360985470E+01  0.50949959388E+02  0.00000000000E+00 0.  1.
</event>
<event>
12    1  0.1628146E-001  0.2836135E+03  0.7818608E-02  0.1093854E+00
         21   -1    0    0  503  502  0.00000000000E+00  0.00000000000E+00  0.93635578691E+03  0.93635578691E+03  0.00000000000E+00 0.  1.
         21   -1    0    0  501  503 -0.00000000000E+00 -0.00000000000E+00 -0.20528883027E+03  0.20528883027E+03  0.00000000000E+00 0. -1.
          6    2    1    2  501    0 -0.22687441241E+03  0.43176389041E+01 -0.70027131933E+02  0.29213079084E+03  0.17013511906E+03 0.  0.
         24    2    3    3    0    0 -0.51851660591E+02 -0.15554296679E+02  0.17381191184E+02  0.95432640295E+02  0.76646931938E+02 0.  0.
         -6    2    1    2    0  502  0.22687441241E+03 -0.43176389041E+01  0.80109408858E+03  0.84951382634E+03  0.16861601758E+03 0.  0.
        -24    2    5    5    0    0  0.63534605595E+02 -0.20620680190E+00  0.46686160760E+03  0.47745168408E+03  0.77224745728E+02 0.  0.
          5    1    3    3  501    0 -0.17502275182E+03  0.19871935583E+02 -0.87408323118E+02  0.19669815054E+03  0.47000000000E+01 0. -1.
        -11    1    4    4    0    0 -0.70044461314E+02 -0.22709788988E+02  0.90722062343E+01  0.74190740680E+02  0.00000000000E+00 0.  1.
         12    1    4    4    0    0  0.18192800724E+02  0.71554923094E+01  0.83089849501E+01  0.21241899615E+02  0.00000000000E+00 0. -1.
         -5    1    5    5    0  502  0.16333980681E+03 -0.41114321022E+01  0.33423248098E+03  0.37206214226E+03  0.47000000000E+01 0.  1.
         13    1    6    6    0    0  0.68753740122E+02  0.17318401285E+02  0.43479549387E+03  0.44053844928E+03  0.00000000000E+00 0. -1.
        -14    1    6    6    0    0 -0.52191345270E+01 -0.17524608086E+02  0.32066113722E+02  0.36913234795E+02  0.00000000000E+00 0.  1.
</event>
<event>
12    1  0.1628146E-001  0.2178110E+03  0.7818608E-02  0.1135738E+00
         21   -1    0    0  501  502  0.00000000000E+00  0.00000000000E+00  0.22708286717E+03  0.22708286717E+03  0.00000000000E+00 0. -1.
         21   -1    0    0  502  503 -0.00000000000E+00 -0.00000000000E+00 -0.28966785538E+03  0.28966785538E+03  0.00000000000E+00 0. -1.
         -6    2    1    2    0  503  0.13027765515E+03  0.25035587573E+02 -0.16867398972E+03  0.27548604745E+03  0.17275010696E+03 0.  0.
        -24    2    3    3    0    0  0.14330968307E+03  0.22036771634E+02 -0.18743240869E+03  0.25197445604E+03  0.85655905246E+02 0.  0.
          6    2    1    2  501    0 -0.13027765515E+03 -0.25035587573E+02  0.10608900151E+03  0.24126467510E+03  0.17133218943E+03 0.  0.
         24    2    5    5    0    0 -0.31600610170E+02  0.36329769562E+02  0.16240025174E+02  0.94302792931E+02  0.79440717629E+02 0.  0.
          5    1    5    5  501    0 -0.98677044983E+02 -0.61365357135E+02  0.89848976338E+02  0.14696188217E+03  0.47000000000E+01 0. -1.
        -13    1    6    6    0    0  0.22974335041E+02  0.21044501878E+02 -0.87521961828E+01  0.32361892217E+02  0.00000000000E+00 0.  1.
         14    1    6    6    0    0 -0.54574945211E+02  0.15285267684E+02  0.24992221357E+02  0.61940900714E+02  0.00000000000E+00 0. -1.
         -5    1    3    3    0  503 -0.13032027917E+02  0.29988159388E+01  0.18758418965E+02  0.23511591412E+02  0.47000000000E+01 0.  1.
         13    1    4    4    0    0  0.11845418552E+03  0.30317737955E+02 -0.92019032902E+02  0.15302961059E+03  0.00000000000E+00 0. -1.
        -14    1    4    4    0    0  0.24855497554E+02 -0.82809663212E+01 -0.95413375788E+02  0.98944845450E+02  0.00000000000E+00 0.  1.
</event>
<event>
12    1  0.1628146E-001  0.1902537E+03  0.7818608E-02  0.1158857E+00
         21   -1    0    0  501  502  0.00000000000E+00  0.00000000000E+00  0.60968705481E+02  0.60968705481E+02  0.00000000000E+00 0.  1.
         21   -1    0    0  502  503 -0.00000000000E+00 -0.00000000000E+00 -0.10859785245E+04  0.10859785245E+04  0.00000000000E+00 0. -1.
         -6    2    1    2    0  503 -0.58788987521E+02 -0.48068360347E+02 -0.89994098865E+03  0.91926614924E+03  0.17143441239E+03 0.  0.
        -24    2    3    3    0    0 -0.16703721535E+02 -0.63990348577E+02 -0.82669525878E+03  0.83317488216E+03  0.79884631468E+02 0.  0.
          6    2    1    2  501    0  0.58788987521E+02  0.48068360347E+02 -0.12506883037E+03  0.22768108075E+03  0.17444125051E+03 0.  0.
         24    2    5    5    0    0 -0.31280208299E+02  0.28262770354E+02 -0.94027698000E+02  0.13026258492E+03  0.79686243603E+02 0.  0.
          5    1    5    5  501    0  0.90069195821E+02  0.19805589993E+02 -0.31041132370E+02  0.97418495829E+02  0.47000000000E+01 0. -1.
        -13    1    6    6    0    0 -0.33169546273E+02 -0.18555870268E+02 -0.20799279140E+02  0.43326079145E+02  0.00000000000E+00 0.  1.
         14    1    6    6    0    0  0.18893379734E+01  0.46818640621E+02 -0.73228418860E+02  0.86936505775E+02  0.00000000000E+00 0. -1.
         -5    1    3    3    0  503 -0.42085265987E+02  0.15921988230E+02 -0.73245729868E+02  0.86091267073E+02  0.47000000000E+01 0.  1.
         11    1    4    4    0    0 -0.42493215813E+02 -0.53222928589E+02 -0.70642146172E+03  0.70969686141E+03  0.00000000000E+00 0. -1.
        -12    1    4    4    0    0  0.25789494278E+02 -0.10767419988E+02 -0.12027379707E+03  0.12347802075E+03  0.00000000000E+00 0.  1.
</event>
<event>
12    1  0.1628146E-001  0.1718616E+03  0.7818608E-02  0.1176146E+00
         21   -1    0    0  503  502  0.00000000000E+00  0.00000000000E+00  0.62523351345E+02  0.62523351345E+02  0.00000000000E+00 0. -1.
         21   -1    0    0  501  503 -0.00000000000E+00 -0.00000000000E+00 -0.50257118305E+03  0.50257118305E+03  0.00000000000E+00 0. -1.
          6    2    1    2  501    0 -0.14291484695E+02  0.24578468413E+01 -0.29143017767E+03  0.33788622672E+03  0.17036803164E+03 0.  0.
         24    2    3    3    0    0  0.31514158020E+02 -0.25700685160E+02 -0.26027787279E+03  0.27556756235E+03  0.80865585913E+02 0.  0.
         -6    2    1    2    0  502  0.14291484695E+02 -0.24578468413E+01 -0.14861765403E+03  0.22720830767E+03  0.17124870931E+03 0.  0.
        -24    2    5    5    0    0 -0.40029099367E+02 -0.43639493650E+02 -0.10619695712E+03  0.14678281785E+03  0.82223279628E+02 0.  0.
          5    1    3    3  501    0 -0.45805642716E+02  0.28158532001E+02 -0.31152304887E+02  0.62318664370E+02  0.47000000000E+01 0. -1.
        -11    1    4    4    0    0  0.40897333080E+02 -0.38818997541E+02 -0.10265760912E+03  0.11712425511E+03  0.00000000000E+00 0.  1.
         12    1    4    4    0    0 -0.93831750595E+01  0.13118312381E+02 -0.15762026366E+03  0.15844330725E+03  0.00000000000E+00 0. -1.
         -5    1    5    5    0  502  0.54320584062E+02  0.41181646809E+02 -0.42420696916E+02  0.80425489825E+02  0.47000000000E+01 0.  1.
         13    1    6    6    0    0 -0.87606885070E+01 -0.18795905713E+02 -0.10478940513E+03  0.10682160438E+03  0.00000000000E+00 0. -1.
        -14    1    6    6    0    0 -0.31268410860E+02 -0.24843587937E+02 -0.14075519855E+01  0.39961213468E+02  0.00000000000E+00 0.  1.
</event>
<event>
12    1  0.1628146E-001  0.1928521E+03  0.7818608E-02  0.1156225E+00
         21   -1    0    0  501  502  0.00000000000E+00  0.00000000000E+00  0.89358275131E+02  0.89358275131E+02  0.00000000000E+00 0.  1.
         21   -1    0    0  502  503 -0.00000000000E+00 -0.00000000000E+00 -0.42970660137E+03  0.42970660137E+03  0.00000000000E+00 0.  1.
         -6    2    1    2    0  503 -0.67435435267E+02 -0.56768278850E+02 -0.22165224591E+03  0.29380548975E+03  0.17152775950E+03 0.  0.
        -24    2    3    3    0    0 -0.33474648925E+02 -0.64046366167E+02 -0.23333592932E+03  0.25686088227E+03  0.79431528932E+02 0.  0.
          6    2    1    2  501    0  0.67435435267E+02  0.56768278850E+02 -0.11869608033E+03  0.22525938676E+03  0.16994957023E+03 0.  0.
         24    2    5    5    0    0  0.11144579346E+03  0.32653447269E+02 -0.87001990877E+02  0.16571913115E+03  0.80044184772E+02 0.  0.
          5    1    5    5  501    0 -0.44010358192E+02  0.24114831581E+02 -0.31694089458E+02  0.59540255600E+02  0.47000000000E+01 0. -1.
        -13    1    6    6    0    0  0.11064059015E+03  0.50425256229E+02 -0.83730552162E+02  0.14763079631E+03  0.00000000000E+00 0.  1.
         14    1    6    6    0    0  0.80520330854E+00 -0.17771808960E+02 -0.32714387150E+01  0.18088334842E+02  0.00000000000E+00 0. -1.
         -5    1    3    3    0  503 -0.33960786342E+02  0.72780873161E+01  0.11683683411E+02  0.36944607482E+02  0.47000000000E+01 0.  1.
         11    1    4    4    0    0  0.25437286475E+02 -0.11290338208E+02 -0.71838380323E+02  0.77040769515E+02  0.00000000000E+00 0. -1.
        -12    1    4    4    0    0 -0.58911935401E+02 -0.52756027958E+02 -0.16149754899E+03  0.17982011275E+03  0.00000000000E+00 0.  1.
</event>
<event>
12    1  0.1628146E-001  0.2029412E+03  0.7818608E-02  0.1147315E+00
         21   -1    0    0  501  502  0.00000000000E+00  0.00000000000E+00  0.12589133995E+04  0.12589133995E+04  0.00000000000E+00 0.  1.
         21   -1    0    0  502  503 -0.00000000000E+00 -0.00000000000E+00 -0.40074742895E+02  0.40074742895E+02  0.00000000000E+00 0. -1.
         -6    2    1    2    0  503  0.59404638837E+02  0.92242919778E+02  0.88847002518E+03  0.91135289879E+03  0.17072625200E+03 0.  0.
        -24    2    3    3    0    0  0.79850870740E+01  0.99611584257E+02  0.78640237124E+03  0.79673107059E+03  0.79783958353E+02 0.  0.
          6    2    1    2  501    0 -0.59404638837E+02 -0.92242919778E+02  0.33036863140E+03  0.38763524358E+03  0.17052853746E+03 0.  0.
         24    2    5    5    0    0 -0.10599485979E+03 -0.58386481764E+02  0.24916018871E+03  0.28796675183E+03  0.78741088189E+02 0.  0.
          5    1    5    5  501    0  0.46590220952E+02 -0.33856438013E+02  0.81208442693E+02  0.99668491751E+02  0.47000000000E+01 0. -1.
        -13    1    6    6    0    0 -0.21062096149E+02 -0.55532491640E+02  0.10185820051E+03  0.11790912829E+03  0.00000000000E+00 0.  1.
         14    1    6    6    0    0 -0.84932763640E+02 -0.28539901244E+01  0.14730198820E+03  0.17005762355E+03  0.00000000000E+00 0. -1.
         -5    1    3    3    0  503  0.51419551763E+02 -0.73686644798E+01  0.10206765394E+03  0.11462182820E+03  0.47000000000E+01 0.  1.
         13    1    4    4    0    0 -0.27892635423E+02  0.20592161945E+02  0.12718215624E+03  0.13182312813E+03  0.00000000000E+00 0. -1.
        -14    1    4    4    0    0  0.35877722497E+02  0.79019422312E+02  0.65922021501E+03  0.66490794246E+03  0.00000000000E+00 0.  1.
</event>
<event>
12    1  0.1628146E-001  0.1862688E+03  0.7818608E-02  0.1162067E+00
         21   -1    0    0  501  502  0.00000000000E+00  0.00000000000E+00  0.64230225843E+03  0.64230225843E+03  0.00000000000E+00 0. -1.
         21   -1    0    0  502  503 -0.00000000000E+00 -0.00000000000E+00 -0.54512345271E+02  0.54512345271E+02  0.00000000000E+00 0.  1.
         -6    2    1    2    0  503  0.70775184930E+02  0.13311799649E+02  0.33380517614E+03  0.38184743147E+03  0.17086613032E+03 0.  0.
        -24    2    3    3    0    0 -0.18170298135E+02  0.44516048104E+02  0.16491402606E+03  0.18837569023E+03  0.77310584065E+02 0.  0.
          6    2    1    2  501    0 -0.70775184930E+02 -0.13311799649E+02  0.25398473702E+03  0.31496717223E+03  0.17178399848E+03 0.  0.
         24    2    5    5    0    0 -0.86607572838E+01 -0.53789109755E+01  0.23559101312E+03  0.24953360345E+03  0.81608531330E+02 0.  0.
          5    1    5    5  501    0 -0.62114427647E+02 -0.79328886731E+01  0.18393723891E+02  0.65433568779E+02  0.47000000000E+01 0. -1.
        -13    1    6    6    0    0 -0.30397240259E+02 -0.70188310565E+01  0.31684715666E+02  0.44465463133E+02  0.00000000000E+00 0.  1.
         14    1    6    6    0    0  0.21736482976E+02  0.16399200809E+01  0.20390629746E+03  0.20506814032E+03  0.00000000000E+00 0. -1.
         -5    1    3    3    0  503  0.88945483065E+02 -0.31204248456E+02  0.16889115009E+03  0.19347174124E+03  0.47000000000E+01 0.  1.
         11    1    4    4    0    0 -0.11903375587E+02  0.39921971263E+02  0.17253425558E+03  0.17749231952E+03  0.00000000000E+00 0. -1.
        -12    1    4    4    0    0 -0.62669225471E+01  0.45940768419E+01 -0.76202295213E+01  0.10883370719E+02  0.00000000000E+00 0.  1.
</event>
<event>
12    1  0.1628146E-001  0.2813617E+03  0.7818608E-02  0.1094996E+00
         21   -1    0    0  501  502  0.00000000000E+00  0.00000000000E+00  0.10398053679E+03  0.10398053679E+03  0.00000000000E+00 0. -1.
         21   -1    0    0  502  503 -0.00000000000E+00 -0.00000000000E+00 -0.85722672370E+03  0.85722672370E+03  0.00000000000E+00 0.  1.
         -6    2    1    2    0  503 -0.50494342204E+02  0.21627492113E+03 -0.53796282492E+03  0.60693149833E+03  0.17215493769E+03 0.  0.
        -24    2    3    3    0    0 -0.55623409976E+02  0.21023895801E+03 -0.35444379904E+03  0.42318149685E+03  0.78471583347E+02 0.  0.
          6    2    1    2  501    0  0.50494342204E+02 -0.21627492113E+03 -0.21528336198E+03  0.35427576216E+03  0.17274220562E+03 0.  0.
         24    2    5    5    0    0  0.45952320090E+02 -0.23597987829E+03 -0.17215663917E+03  0.30641221107E+03  0.80326931995E+02 0.  0.
          5    1    5    5  501    0  0.45420221135E+01  0.19704957162E+02 -0.43126722817E+02  0.47863551087E+02  0.47000000000E+01 0. -1.
        -11    1    6    6    0    0 -0.18097449691E+02 -0.29649059108E+02 -0.95849821920E+01  0.36034098781E+02  0.00000000000E+00 0.  1.
         12    1    6    6    0    0  0.64049769781E+02 -0.20633081918E+03 -0.16257165698E+03  0.27037811229E+03  0.00000000000E+00 0. -1.
         -5    1    3    3    0  503  0.51290677728E+01  0.60359631217E+01 -0.18351902588E+03  0.18375000149E+03  0.47000000000E+01 0.  1.
         13    1    4    4    0    0 -0.77749084573E+01  0.14472020440E+02 -0.11734282773E+01  0.16470139983E+02  0.00000000000E+00 0. -1.
        -14    1    4    4    0    0 -0.47848501519E+02  0.19576693757E+03 -0.35327037076E+03  0.40671135686E+03  0.00000000000E+00 0.  1.
</event>
<event>
12    1  0.1628146E-001  0.2486698E+03  0.7818608E-02  0.1114295E+00
         21   -1    0    0  501  502  0.00000000000E+00  0.00000000000E+00  0.89338025820E+03  0.89338025820E+03  0.00000000000E+00 0. -1.
         21   -1    0    0  502  503 -0.00000000000E+00 -0.00000000000E+00 -0.35512034360E+03  0.35512034360E+03  0.00000000000E+00 0. -1.
         -6    2    1    2    0  503  0.17547642382E+03  0.33759137068E+02 -0.29114335465E+03  0.38288528813E+03  0.17293072676E+03 0.  0.
        -24    2    3    3    0    0  0.69499069196E+02  0.34158753347E+02 -0.53365819313E+02  0.12251707637E+03  0.78521221854E+02 0.  0.
          6    2    1    2  501    0 -0.17547642382E+03 -0.33759137068E+02  0.82940326924E+03  0.86561531367E+03  0.17160545906E+03 0.  0.
         24    2    5    5    0    0 -0.13422612505E+03 -0.41532559573E+02  0.79447043707E+03  0.81080285150E+03  0.80475974468E+02 0.  0.
          5    1    5    5  501    0 -0.41250298772E+02  0.77734225046E+01  0.34932832175E+02  0.54812462177E+02  0.47000000000E+01 0. -1.
        -13    1    6    6    0    0 -0.26636881568E+02 -0.41555723535E+02  0.16575914721E+03  0.17295229545E+03  0.00000000000E+00 0.  1.
         14    1    6    6    0    0 -0.10758924348E+03  0.23163962416E-01  0.62871128986E+03  0.63785055605E+03  0.00000000000E+00 0. -1.
         -5    1    3    3    0  503  0.10597735463E+03 -0.39961627917E+00 -0.23777753534E+03  0.26036821176E+03  0.47000000000E+01 0.  1.
         13    1    4    4    0    0  0.84862108483E+02  0.40013996108E+02 -0.44567918595E+02  0.10387009535E+03  0.00000000000E+00 0. -1.
        -14    1    4    4    0    0 -0.15363039287E+02 -0.58552427611E+01 -0.87979007171E+01  0.18646981014E+02  0.00000000000E+00 0.  1.
</event>
<event>
12    1  0.1628146E-001  0.1795867E+03  0.7818608E-02  0.1168542E+00
         21   -1    0    0  503  502  0.00000000000E+00  0.00000000000E+00  0.15858458241E+04  0.15858458241E+04  0.00000000000E+00 0. -1.
         21   -1    0    0  501  503 -0.00000000000E+00 -0.00000000000E+00 -0.29496414938E+02  0.29496414938E+02  0.00000000000E+00 0.  1.
          6    2    1    2  501    0 -0.20163050088E+02  0.48529765608E+02  0.32219942531E+03  0.36819445975E+03  0.17027332082E+03 0.  0.
         24    2    3    3    0    0 -0.13004351777E+02  0.43802721688E+02  0.67193636591E+02  0.11300113267E+03  0.78526935469E+02 0.  0.
         -6    2    1    2    0  502  0.20163050088E+02 -0.48529765608E+02  0.12341499838E+04  0.12471477793E+04  0.17172569406E+03 0.  0.
        -24    2    5    5    0    0  0.50680254936E+02 -0.46341897440E+02  0.41764982078E+03  0.43006106856E+03  0.76191142465E+02 0.  0.
          5    1    3    3  501    0 -0.71586983112E+01  0.47270439200E+01  0.25500578872E+03  0.25519332708E+03  0.47000000000E+01 0. -1.
        -11    1    4    4    0    0  0.22246465612E+02  0.16155149433E+02  0.62098628338E+02  0.67912691942E+02  0.00000000000E+00 0.  1.
         12    1    4    4    0    0 -0.35250817390E+02  0.27647572255E+02  0.50950082532E+01  0.45088440728E+02  0.00000000000E+00 0. -1.
         -5    1    5    5    0  502 -0.30517204848E+02 -0.21878681678E+01  0.81650016305E+03  0.81708671071E+03  0.47000000000E+01 0.  1.
         11    1    6    6    0    0  0.30615552806E+02  0.17243143966E+02  0.12023807418E+03  0.12526704503E+03  0.00000000000E+00 0. -1.
        -12    1    6    6    0    0  0.20064702130E+02 -0.63585041406E+02  0.29741174660E+03  0.30479402353E+03  0.00000000000E+00 0.  1.
</event>
<event>
12    1  0.1628146E-001  0.2200983E+03  0.7818608E-02  0.1133838E+00
         21   -1    0    0  501  502  0.00000000000E+00  0.00000000000E+00  0.57320439930E+02  0.57320439930E+02  0.00000000000E+00 0. -1.
         21   -1    0    0  502  503 -0.00000000000E+00 -0.00000000000E+00 -0.84628143733E+03  0.84628143733E+03  0.00000000000E+00 0. -1.
         -6    2    1    2    0  503 -0.50877714517E+02  0.12843583652E+03 -0.41511103321E+03  0.46985147921E+03  0.17134449710E+03 0.  0.
        -24    2    3    3    0    0 -0.65112191685E+02  0.14267243693E+03 -0.26809060649E+03  0.32138465799E+03  0.82586338681E+02 0.  0.
          6    2    1    2  501    0  0.50877714517E+02 -0.12843583652E+03 -0.37384996418E+03  0.43375039804E+03  0.17114703078E+03 0.  0.
         24    2    5    5    0    0 -0.70201622247E+01 -0.14490064463E+02 -0.21724703140E+03  0.23155650185E+03  0.78504116136E+02 0.  0.
          5    1    5    5  501    0  0.57897876742E+02 -0.11394577206E+03 -0.15660293279E+03  0.20219389620E+03  0.47000000000E+01 0. -1.
        -13    1    6    6    0    0 -0.47642658109E+01 -0.41104082190E+02 -0.18554330101E+03  0.19010144753E+03  0.00000000000E+00 0.  1.
         14    1    6    6    0    0 -0.22558964138E+01  0.26614017727E+02 -0.31703730384E+02  0.41455054318E+02  0.00000000000E+00 0. -1.
         -5    1    3    3    0  503  0.14234477167E+02 -0.14236600403E+02 -0.14702042672E+03  0.14846682123E+03  0.47000000000E+01 0.  1.
         13    1    4    4    0    0 -0.52871660951E+02  0.12043214327E+03 -0.14526215159E+03  0.19596021624E+03  0.00000000000E+00 0. -1.
        -14    1    4    4    0    0 -0.12240530733E+02  0.22240293660E+02 -0.12282845490E+03  0.12542444175E+03  0.00000000000E+00 0.  1.
</event>
<event>
12    1  0.1628146E-001  0.1785944E+03  0.7818608E-02  0.1169219E+00
         21   -1    0    0  501  502  0.00000000000E+00  0.00000000000E+00  0.39823412306E+03  0.39823412306E+03  0.00000000000E+00 0.  1.
         21   -1    0    0  502  503 -0.00000000000E+00 -0.00000000000E+00 -0.12236687192E+03  0.12236687192E+03  0.00000000000E+00 0.  1.
         -6    2    1    2    0  503 -0.20654389641E+02  0.41942037316E+02 -0.15271781035E+02  0.17904882234E+03  0.17216130570E+03 0.  0.
        -24    2    3    3    0    0  0.35109872914E+02  0.46316589730E+02  0.34439624141E+02  0.10406813488E+03  0.79159076089E+02 0.  0.
          6    2    1    2  501    0  0.20654389641E+02 -0.41942037316E+02  0.29113903217E+03  0.34155217264E+03  0.17236650566E+03 0.  0.
         24    2    5    5    0    0  0.52751526591E+02 -0.80834988963E+02  0.22888671497E+03  0.26130051293E+03  0.81066705683E+02 0.  0.
          5    1    5    5  501    0 -0.32097136951E+02  0.38892951646E+02  0.62252317200E+02  0.80251659703E+02  0.47000000000E+01 0. -1.
        -11    1    6    6    0    0  0.48542566075E+01  0.12015011863E+02  0.69678773525E+02  0.70873519718E+02  0.00000000000E+00 0.  1.
         12    1    6    6    0    0  0.47897269984E+02 -0.92850000826E+02  0.15920794145E+03  0.19042699322E+03  0.00000000000E+00 0. -1.
         -5    1    3    3    0  503 -0.55764262554E+02 -0.43745524134E+01 -0.49711405177E+02  0.74980687458E+02  0.47000000000E+01 0.  1.
         13    1    4    4    0    0  0.22518879593E+01 -0.20610045966E+02  0.18585577484E+02  0.27843647112E+02  0.00000000000E+00 0. -1.
        -14    1    4    4    0    0  0.32857984954E+02  0.66926635696E+02  0.15854046657E+02  0.76224487773E+02  0.00000000000E+00 0.  1.
</event>
<event>
12    1  0.1628146E-001  0.2004884E+03  0.7818608E-02  0.1149720E+00
         21   -1    0    0  503  502  0.00000000000E+00  0.00000000000E+00  0.18524489281E+04  0.18524489281E+04  0.00000000000E+00 0. -1.
         21   -1    0    0  501  503 -0.00000000000E+00 -0.00000000000E+00 -0.22778179875E+02  0.22778179875E+02  0.00000000000E+00 0.  1.
          6    2    1    2  501    0 -0.37614520265E+02  0.92486967215E+02  0.68854596593E+03  0.71662391651E+03  0.17171371316E+03 0.  0.
         24    2    3    3    0    0  0.88215014868E+01  0.41496251309E+02  0.15033806436E+03  0.17399495254E+03  0.76635188755E+02 0.  0.
         -6    2    1    2    0  502  0.37614520265E+02 -0.92486967215E+02  0.11411247823E+04  0.11586031914E+04  0.17385883713E+03 0.  0.
        -24    2    5    5    0    0  0.89202359445E+02 -0.79976386432E+02  0.72777678718E+03  0.74183410090E+03  0.79407165764E+02 0.  0.
          5    1    3    3  501    0 -0.46436021751E+02  0.50990715906E+02  0.53820790157E+03  0.54262896397E+03  0.47000000000E+01 0. -1.
        -13    1    4    4    0    0 -0.64841592499E+01  0.39168201941E+02  0.23333889887E+02  0.46050654520E+02  0.00000000000E+00 0.  1.
         14    1    4    4    0    0  0.15305660737E+02  0.23280493675E+01  0.12700417447E+03  0.12794429802E+03  0.00000000000E+00 0. -1.
         -5    1    5    5    0  502 -0.51587839181E+02 -0.12510580783E+02  0.41334799508E+03  0.41676909053E+03  0.47000000000E+01 0.  1.
         13    1    6    6    0    0 -0.14027252209E+02 -0.18009806083E+01  0.63852532899E+02  0.65399948726E+02  0.00000000000E+00 0. -1.
        -14    1    6    6    0    0  0.10322961165E+03 -0.78175405824E+02  0.66392425428E+03  0.67643415217E+03  0.00000000000E+00 0.  1.
</event>
<event>
12    1  0.1628146E-001  0.2191716E+03  0.7818608E-02  0.1134746E+00
         21   -1    0    0  503  502  0.00000000000E+00  0.00000000000E+00  0.74266844206E+02  0.74266844206E+02  0.00000000000E+00 0. -1.
         21   -1    0    0  501  503 -0.00000000000E+00 -0.00000000000E+00 -0.64364518207E+03  0.64364518207E+03  0.00000000000E+00 0. -1.
          6    2    1    2  501    0 -0.12249852211E+03 -0.58272120771E+02 -0.27228573872E+03  0.34872346369E+03  0.17049047669E+03 0.  0.
         24    2    3    3    0    0 -0.81506440549E+01 -0.15267112367E+02 -0.16982533985E+03  0.18920828792E+03  0.81606448558E+02 0.  0.
         -6    2    1    2    0  502  0.12249852211E+03  0.58272120771E+02 -0.29709259914E+03  0.36918856258E+03  0.17214718789E+03 0.  0.
        -24    2    5    5    0    0  0.15322935055E+03  0.64443979965E+02 -0.27140364098E+03  0.32839042250E+03  0.80920163303E+02 0.  0.
          5    1    3    3  501    0 -0.11434787805E+03 -0.43005008404E+02 -0.10246039887E+03  0.15951517577E+03  0.47000000000E+01 0. -1.
        -11    1    4    4    0    0  0.45715198829E+01 -0.38081271752E+02 -0.15391676055E+03  0.15862361498E+03  0.00000000000E+00 0.  1.
         12    1    4    4    0    0 -0.12722163938E+02  0.22814159385E+02 -0.15908579301E+02  0.30584672944E+02  0.00000000000E+00 0. -1.
         -5    1    5    5    0  502 -0.30730828441E+02 -0.61718591942E+01 -0.25688958161E+02  0.40798140080E+02  0.47000000000E+01 0.  1.
         11    1    6    6    0    0  0.13339983393E+03  0.62241232940E+02 -0.16926540855E+03  0.22432178963E+03  0.00000000000E+00 0. -1.
        -12    1    6    6    0    0  0.19829516618E+02  0.22027470252E+01 -0.10213823243E+03  0.10406863287E+03  0.00000000000E+00 0.  1.
</event>
<event>
12    1  0.1628146E-001  0.2548103E+03  0.7818608E-02  0.1110376E+00
         21   -1    0    0  501  502  0.00000000000E+00  0.00000000000E+00  0.90838913191E+03  0.90838913191E+03  0.00000000000E+00 0. -1.
         21   -1    0    0  502  503 -0.00000000000E+00 -0.00000000000E+00 -0.82988461536E+02  0.82988461536E+02  0.00000000000E+00 0.  1.
         -6    2    1    2    0  503  0.11303017162E+03 -0.14868398220E+03  0.22734157087E+03  0.34148567722E+03  0.17333646944E+03 0.  0.
        -24    2    3    3    0    0  0.43721238580E+02 -0.20834925436E+01  0.77907738917E+02  0.12092277939E+03  0.81466650524E+02 0.  0.
          6    2    1    2  501    0 -0.11303017162E+03  0.14868398220E+03  0.59805909951E+03  0.64989191623E+03  0.17263276056E+03 0.  0.
         24    2    5    5    0    0 -0.11127004408E+03  0.55978814490E+02  0.46142161789E+03  0.48469737167E+03  0.80665868056E+02 0.  0.
          5    1    5    5  501    0 -0.17601275385E+01  0.92705167709E+02  0.13663748162E+03  0.16519454456E+03  0.47000000000E+01 0. -1.
        -13    1    6    6    0    0 -0.31374643474E+02  0.16631124872E+02  0.37992430446E+02  0.52003724278E+02  0.00000000000E+00 0.  1.
         14    1    6    6    0    0 -0.79895400609E+02  0.39347689618E+02  0.42342918744E+03  0.43269364739E+03  0.00000000000E+00 0. -1.
         -5    1    3    3    0  503  0.69308933042E+02 -0.14660048966E+03  0.14943383195E+03  0.22056289783E+03  0.47000000000E+01 0.  1.
         11    1    4    4    0    0  0.63581748196E+02 -0.68399672441E+01  0.77525712323E+02  0.10049706427E+03  0.00000000000E+00 0. -1.
        -12    1    4    4    0    0 -0.19860509616E+02  0.47564747005E+01  0.38202659409E+00  0.20425715119E+02  0.00000000000E+00 0.  1.
</event>
<event>
12    1  0.1628146E-001  0.2186966E+03  0.7818608E-02  0.1134967E+00
         21   -1    0    0  503  502  0.00000000000E+00  0.00000000000E+00  0.58719339359E+03  0.58719339359E+03  0.00000000000E+00 0.  1.
         21   -1    0    0  501  503 -0.00000000000E+00 -0.00000000000E+00 -0.93422327931E+02  0.93422327931E+02  0.00000000000E+00 0. -1.
          6    2    1    2  501    0  0.13181547869E+03  0.32769531889E+02  0.12427136310E+03  0.25153841149E+03  0.17140314504E+03 0.  0.
         24    2    3    3    0    0  0.11650543849E+03 -0.33741894571E+02  0.11641689926E+03  0.18267659491E+03  0.71454959579E+02 0.  0.
         -6    2    1    2    0  502 -0.13181547869E+03 -0.32769531889E+02  0.36949970256E+03  0.42907731003E+03  0.17066969604E+03 0.  0.
        -24    2    5    5    0    0 -0.13224526688E+03 -0.15944733130E+02  0.17491998077E+03  0.23371452774E+03  0.79261817272E+02 0.  0.
          5    1    3    3  501    0  0.15310040192E+02  0.66511426460E+02  0.78544638392E+01  0.68861816580E+02  0.47000000000E+01 0. -1.
        -13    1    4    4    0    0  0.26618167804E+02 -0.12836425341E+02  0.76719868487E+02  0.82214590514E+02  0.00000000000E+00 0.  1.
         14    1    4    4    0    0  0.89887270689E+02 -0.20905469230E+02  0.39697030770E+02  0.10046200440E+03  0.00000000000E+00 0. -1.
         -5    1    5    5    0  502  0.42978819411E+00 -0.16824798759E+02  0.19457972179E+03  0.19536278229E+03  0.47000000000E+01 0.  1.
         13    1    6    6    0    0 -0.93072162928E+01 -0.29710246234E+02  0.31005638799E+02  0.43939420157E+02  0.00000000000E+00 0. -1.
        -14    1    6    6    0    0 -0.12293805059E+03  0.13765513104E+02  0.14391434197E+03  0.18977510758E+03  0.00000000000E+00 0.  1.
</event>
<event>
12    1  0.1628146E-001  0.1843373E+03  0.7818608E-02  0.1164502E+00
         21   -1    0    0  501  502  0.00000000000E+00  0.00000000000E+00  0.13195692984E+03  0.13195692984E+03  0.00000000000E+00 0.  1.
         21   -1    0    0  502  503 -0.00000000000E+00 -0.00000000000E+00 -0.31181478880E+03  0.31181478880E+03  0.00000000000E+00 0.  1.
         -6    2    1    2    0  503 -0.66905747287E+02  0.88450562832E+00 -0.18589305915E+03  0.25933564649E+03  0.16799281750E+03 0.  0.
        -24    2    3    3    0    0 -0.81189843825E+02  0.56130058481E+02 -0.14299051460E+03  0.18778968327E+03  0.71248183646E+02 0.  0.
          6    2    1    2  501    0  0.66905747287E+02 -0.88450562832E+00  0.60352001866E+01  0.18443607215E+03  0.17176460549E+03 0.  0.
         24    2    5    5    0    0  0.30490032908E+02  0.49037459474E+02 -0.41143981460E+02  0.10654979586E+03  0.79534377786E+02 0.  0.
          5    1    5    5  501    0  0.36415714379E+02 -0.49921965102E+02  0.47179181647E+02  0.77886276290E+02  0.47000000000E+01 0. -1.
        -13    1    6    6    0    0 -0.38208640088E+01  0.27734793309E+02 -0.56728598659E+02  0.63260980608E+02  0.00000000000E+00 0.  1.
         14    1    6    6    0    0  0.34310896917E+02  0.21302666165E+02  0.15584617199E+02  0.43288815255E+02  0.00000000000E+00 0. -1.
         -5    1    3    3    0  503  0.14284096538E+02 -0.55245552853E+02 -0.42902544548E+02  0.71545963217E+02  0.47000000000E+01 0.  1.
         13    1    4    4    0    0 -0.53204137985E+02  0.27262911424E+02 -0.28080597323E+02  0.66048971105E+02  0.00000000000E+00 0. -1.
        -14    1    4    4    0    0 -0.27985705840E+02  0.28867147058E+02 -0.11490991728E+03  0.12174071217E+03  0.00000000000E+00 0.  1.
</event>
<event>
12    1  0.1628146E-001  0.1753439E+03  0.7818608E-02  0.1172461E+00
         21   -1    0    0  503  502  0.00000000000E+00  0.00000000000E+00  0.61365564953E+02  0.61365564953E+02  0.00000000000E+00 0.  1.
         21   -1    0    0  501  503 -0.00000000000E+00 -0.00000000000E+00 -0.70461559297E+03  0.70461559297E+03  0.00000000000E+00 0.  1.
          6    2    1    2  501    0  0.14719846433E+02 -0.28900739000E+02 -0.52773063698E+03  0.55600449595E+03  0.17201583567E+03 0.  0.
         24    2    3    3    0    0  0.29107379344E+02  0.34754923285E+02 -0.17897924033E+03  0.20116837729E+03  0.79874923019E+02 0.  0.
         -6    2    1    2    0  502 -0.14719846433E+02  0.28900739000E+02 -0.11551939104E+03  0.20997666197E+03  0.17231814261E+03 0.  0.
        -24    2    5    5    0    0  0.32048193970E+02  0.67559303483E+02 -0.43391720950E+02  0.11560386396E+03  0.76746763399E+02 0.  0.
          5    1    3    3  501    0 -0.14387532911E+02 -0.63655662285E+02 -0.34875139665E+03  0.35483611867E+03  0.47000000000E+01 0. -1.
        -11    1    4    4    0    0  0.88167468815E+01 -0.25799455708E+02 -0.65596567950E+02  0.71037009138E+02  0.00000000000E+00 0.  1.
         12    1    4    4    0    0  0.20290632463E+02  0.60554378993E+02 -0.11338267238E+03  0.13013136815E+03  0.00000000000E+00 0. -1.
         -5    1    5    5    0  502 -0.46768040404E+02 -0.38658564483E+02 -0.72127670086E+02  0.94372798005E+02  0.47000000000E+01 0.  1.
         13    1    6    6    0    0  0.30952617137E+02  0.28394698430E+02 -0.59840696027E+02  0.73111095653E+02  0.00000000000E+00 0. -1.
        -14    1    6    6    0    0  0.10955768338E+01  0.39164605053E+02  0.16448975077E+02  0.42492768310E+02  0.00000000000E+00 0.  1.
</event>
<event>
12    1  0.1628146E-001  0.2310267E+03  0.7818608E-02  0.1126651E+00
         21   -1    0    0  503  502  0.00000000000E+00  0.00000000000E+00  0.29637048505E+03  0.29637048505E+03  0.00000000000E+00 0. -1.
         21   -1    0    0  501  503 -0.00000000000E+00 -0.00000000000E+00 -0.18269501068E+03  0.18269501068E+03  0.00000000000E+00 0. -1.
          6    2    1    2  501    0 -0.93243988702E+02  0.12230010108E+03  0.14580642674E+02  0.23148637709E+03  0.17239951127E+03 0.  0.
         24    2    3    3    0    0 -0.29902619053E+02  0.13962345372E+03 -0.31949482772E+01  0.16329334747E+03  0.79155758975E+02 0.  0.
         -6    2    1    2    0  502  0.93243988702E+02 -0.12230010108E+03  0.99094831687E+02  0.24757911864E+03  0.16680491049E+03 0.  0.
        -24    2    5    5    0    0  0.49723413856E+02 -0.85281363363E+02  0.13122687310E+03  0.18186013004E+03  0.78149125727E+02 0.  0.
          5    1    3    3  501    0 -0.63341369650E+02 -0.17323352636E+02  0.17775590951E+02  0.68193029624E+02  0.47000000000E+01 0. -1.
        -13    1    4    4    0    0  0.17771428917E+02  0.46790563517E+02  0.23913650864E+02  0.55471102546E+02  0.00000000000E+00 0.  1.
         14    1    4    4    0    0 -0.47674047970E+02  0.92832890200E+02 -0.27108599142E+02  0.10782224492E+03  0.00000000000E+00 0. -1.
         -5    1    5    5    0  502  0.43520574846E+02 -0.37018737718E+02 -0.32132041411E+02  0.65718988598E+02  0.47000000000E+01 0.  1.
         13    1    6    6    0    0  0.30339567563E+02 -0.95660361901E+02  0.12210890645E+03  0.15805688607E+03  0.00000000000E+00 0. -1.
        -14    1    6    6    0    0  0.19383846293E+02  0.10378998538E+02  0.91179666498E+01  0.23803243972E+02  0.00000000000E+00 0.  1.
</event>
<event>
12    1  0.1628146E-001  0.1983307E+03  0.7818608E-02  0.1151383E+00
         21   -1    0    0  503  502  0.00000000000E+00  0.00000000000E+00  0.31239526250E+03  0.31239526250E+03  0.00000000000E+00 0.  1.
         21   -1    0    0  501  503 -0.00000000000E+00 -0.00000000000E+00 -0.12643106876E+03  0.12643106876E+03  0.00000000000E+00 0.  1.
          6    2    1    2  501    0  0.15308727262E+02  0.96306503615E+02  0.71921123684E+02  0.21096849671E+03  0.17270135727E+03 0.  0.
         24    2    3    3    0    0  0.66614052345E+02  0.90058360107E+02  0.23110526903E+02  0.13972356680E+03  0.80253588524E+02 0.  0.
         -6    2    1    2    0  502 -0.15308727262E+02 -0.96306503615E+02  0.11404307006E+03  0.22785783455E+03  0.17147615335E+03 0.  0.
        -24    2    5    5    0    0 -0.29761356020E+01  0.21823727257E+02  0.49561596444E+02  0.92629158955E+02  0.75091123258E+02 0.  0.
          5    1    3    3  501    0 -0.51305325083E+02  0.62481435078E+01  0.48810596781E+02  0.71244929905E+02  0.47000000000E+01 0. -1.
        -11    1    4    4    0    0  0.51902269964E+02  0.49680128720E+02  0.51341182119E+02  0.88305593246E+02  0.00000000000E+00 0.  1.
         12    1    4    4    0    0  0.14711782381E+02  0.40378231386E+02 -0.28230655215E+02  0.51417973556E+02  0.00000000000E+00 0. -1.
         -5    1    5    5    0  502 -0.12332591660E+02 -0.11813023087E+03  0.64481473615E+02  0.13522867559E+03  0.47000000000E+01 0.  1.
         11    1    6    6    0    0  0.33176765322E+02  0.22257719500E+02  0.15185600187E+02  0.42739984647E+02  0.00000000000E+00 0. -1.
        -12    1    6    6    0    0 -0.36152900924E+02 -0.43399224300E+00  0.34375996257E+02  0.49889174308E+02  0.00000000000E+00 0.  1.
</event>
<event>
12    1  0.1628146E-001  0.1777852E+03  0.7818608E-02  0.1170725E+00
         21   -1    0    0  501  502  0.00000000000E+00  0.00000000000E+00  0.96214916786E+02  0.96214916786E+02  0.00000000000E+00 0.  1.
         21   -1    0    0  502  503 -0.00000000000E+00 -0.00000000000E+00 -0.56523556721E+03  0.56523556721E+03  0.00000000000E+00 0.  1.
         -6    2    1    2    0  503  0.17260974532E+02 -0.28800306367E+02 -0.44990545577E+03  0.48264056909E+03  0.17146311823E+03 0.  0.
        -24    2    3    3    0    0  0.52763361651E+02  0.26318955486E+02 -0.34372051095E+03  0.35775708329E+03  0.79810282854E+02 0.  0.
          6    2    1    2  501    0 -0.17260974532E+02  0.28800306367E+02 -0.19115194654E+02  0.17880991491E+03  0.17458578440E+03 0.  0.
         24    2    5    5    0    0 -0.31922238509E+02 -0.43076349833E+01  0.50615439385E+02  0.10009816378E+03  0.80125742788E+02 0.  0.
          5    1    5    5  501    0  0.14661263977E+02  0.33107941351E+02 -0.69730634039E+02  0.78711751126E+02  0.47000000000E+01 0. -1.
        -13    1    6    6    0    0 -0.20741400118E+02  0.37119282297E+02  0.17878779063E+02  0.46126971913E+02  0.00000000000E+00 0.  1.
         14    1    6    6    0    0 -0.11180838391E+02 -0.41426917280E+02  0.32736660322E+02  0.53971191866E+02  0.00000000000E+00 0. -1.
         -5    1    3    3    0  503 -0.35502387119E+02 -0.55119261853E+02 -0.10618494482E+03  0.12488348580E+03  0.47000000000E+01 0.  1.
         13    1    4    4    0    0  0.59951654868E+02  0.47316461093E+02 -0.24781226042E+03  0.25931441307E+03  0.00000000000E+00 0. -1.
        -14    1    4    4    0    0 -0.71882932172E+01 -0.20997505607E+02 -0.95908250533E+02  0.98442670227E+02  0.00000000000E+00 0.  1.
</event>
<event>
12    1  0.1628146E-001  0.2681979E+03  0.7818608E-02  0.1102491E+00
         21   -1    0    0  503  502  0.00000000000E+00  0.00000000000E+00  0.77684971560E+02  0.77684971560E+02  0.00000000000E+00 0.  1.
         21   -1    0    0  501  503 -0.00000000000E+00 -0.00000000000E+00 -0.99016088471E+03  0.99016088471E+03  0.00000000000E+00 0.  1.
          6    2    1    2  501    0 -0.14732939927E+03  0.14081062815E+03 -0.59564041568E+03  0.65273764570E+03  0.17246838679E+03 0.  0.
         24    2    3    3    0    0 -0.89024654180E+02  0.46769579232E+02 -0.45953559457E+03  0.47726749295E+03  0.80613364577E+02 0.  0.
         -6    2    1    2    0  502  0.14732939927E+03 -0.14081062815E+03 -0.31683549748E+03  0.41510821057E+03  0.17434594670E+03 0.  0.
        -24    2    5    5    0    0  0.26014717128E+02 -0.18918655529E+02 -0.16418618063E+03  0.18511079965E+03  0.79210006975E+02 0.  0.
          5    1    3    3  501    0 -0.58304745092E+02  0.94041048917E+02 -0.13610482110E+03  0.17547015276E+03  0.47000000000E+01 0. -1.
        -13    1    4    4    0    0 -0.59524973343E+02  0.44517138926E+02 -0.16169897951E+03  0.17796504737E+03  0.00000000000E+00 0.  1.
         14    1    4    4    0    0 -0.29499680837E+02  0.22524403061E+01 -0.29783661506E+03  0.29930244557E+03  0.00000000000E+00 0. -1.
         -5    1    5    5    0  502  0.12131468214E+03 -0.12189197262E+03 -0.15264931685E+03  0.22999741091E+03  0.47000000000E+01 0.  1.
         13    1    6    6    0    0  0.36036402108E+02  0.14217787810E+02 -0.13296312632E+03  0.13849173524E+03  0.00000000000E+00 0. -1.
        -14    1    6    6    0    0 -0.10021684980E+02 -0.33136443339E+02 -0.31223054303E+02  0.46619064416E+02  0.00000000000E+00 0.  1.
</event>
<event>
12    1  0.1628146E-001  0.2074977E+03  0.7818608E-02  0.1144082E+00
         21   -1    0    0  501  502  0.00000000000E+00  0.00000000000E+00  0.56896560556E+03  0.56896560556E+03  0.00000000000E+00 0.  1.
         21   -1    0    0  502  503 -0.00000000000E+00 -0.00000000000E+00 -0.93104923173E+02  0.93104923173E+02  0.00000000000E+00 0.  1.
         -6    2    1    2    0  503 -0.59223537701E+02  0.10059348249E+03  0.92101328623E+02  0.22701970821E+03  0.17154829362E+03 0.  0.
        -24    2    3    3    0    0  0.29128055060E+02  0.29720918680E+02  0.22510372414E+02  0.94001230429E+02  0.81226460326E+02 0.  0.
          6    2    1    2  501    0  0.59223537701E+02 -0.10059348249E+03  0.38375935376E+03  0.43505082053E+03  0.16843841219E+03 0.  0.
         24    2    5    5    0    0  0.65209822790E+02 -0.11416688489E+03  0.38923286494E+03  0.41855469412E+03  0.79996313843E+02 0.  0.
          5    1    5    5  501    0 -0.59862850887E+01  0.13573402402E+02 -0.54735111714E+01  0.16496126409E+02  0.47000000000E+01 0. -1.
        -13    1    6    6    0    0  0.77103018057E+01 -0.59705301755E+02  0.84847892908E+02  0.10403526682E+03  0.00000000000E+00 0.  1.
         14    1    6    6    0    0  0.57499520984E+02 -0.54461583136E+02  0.30438497203E+03  0.31451942730E+03  0.00000000000E+00 0. -1.
         -5    1    3    3    0  503 -0.88351592762E+02  0.70872563809E+02  0.69590956208E+02  0.13301847778E+03  0.47000000000E+01 0.  1.
         11    1    4    4    0    0  0.41535035283E+02 -0.15198701671E+02  0.15551682534E+02  0.46882987512E+02  0.00000000000E+00 0. -1.
        -12    1    4    4    0    0 -0.12406980222E+02  0.44919620351E+02  0.69586898809E+01  0.47118242917E+02  0.00000000000E+00 0.  1.
</event>
<event>
12    1  0.1628146E-001  0.2359376E+03  0.7818608E-02  0.1122756E+00
         21   -1    0    0  503  502  0.00000000000E+00  0.00000000000E+00  0.28375230653E+03  0.28375230653E+03  0.00000000000E+00 0. -1.
         21   -1    0    0  501  503 -0.00000000000E+00 -0.00000000000E+00 -0.20817579993E+03  0.20817579993E+03  0.00000000000E+00 0. -1.
          6    2    1    2  501    0  0.87794178489E+02  0.13530446087E+03 -0.23815389936E+02  0.23713646130E+03  0.17219585817E+03 0.  0.
         24    2    3    3    0    0  0.10341251790E+03  0.15302067259E+03 -0.43874419558E+02  0.20579557182E+03  0.79481932489E+02 0.  0.
         -6    2    1    2    0  502 -0.87794178489E+02 -0.13530446087E+03  0.99391896535E+02  0.25479164515E+03  0.17036701100E+03 0.  0.
        -24    2    5    5    0    0 -0.72388199393E+02 -0.17814254366E+02  0.78578554378E+02  0.13438990917E+03  0.79552871781E+02 0.  0.
          5    1    3    3  501    0 -0.15618339413E+02 -0.17716211720E+02  0.20059029621E+02  0.31340889475E+02  0.47000000000E+01 0. -1.
        -13    1    4    4    0    0  0.50458048610E+02  0.17475322049E+02  0.13265074405E+01  0.53414990146E+02  0.00000000000E+00 0.  1.
         14    1    4    4    0    0  0.52954469292E+02  0.13554535054E+03 -0.45200926998E+02  0.15238058168E+03  0.00000000000E+00 0. -1.
         -5    1    5    5    0  502 -0.15405979096E+02 -0.11749020650E+03  0.20813342157E+02  0.12040173598E+03  0.47000000000E+01 0.  1.
         11    1    6    6    0    0 -0.14670510506E+02 -0.39783006492E+02  0.52157088709E+02  0.67218103117E+02  0.00000000000E+00 0. -1.
        -12    1    6    6    0    0 -0.57717688886E+02  0.21968752125E+02  0.26421465669E+02  0.67171806053E+02  0.00000000000E+00 0.  1.
</event>
<event>
12    1  0.1628146E-001  0.2073874E+03  0.7818608E-02  0.1143975E+00
         21   -1    0    0  501  502  0.00000000000E+00  0.00000000000E+00  0.16309537648E+03  0.16309537648E+03  0.00000000000E+00 0.  1.
         21   -1    0    0  502  503 -0.00000000000E+00 -0.00000000000E+00 -0.29132747546E+03  0.29132747546E+03  0.00000000000E+00 0.  1.
         -6    2    1    2    0  503  0.97672783398E+02  0.57213926627E+02 -0.13682760517E+03  0.24845786303E+03  0.17377027981E+03 0.  0.
        -24    2    3    3    0    0 -0.16627969342E+02  0.90052443816E+01 -0.67535148157E+02  0.10628798675E+03  0.79865863172E+02 0.  0.
          6    2    1    2  501    0 -0.97672783398E+02 -0.57213926627E+02  0.85955061953E+01  0.20596498892E+03  0.17185542737E+03 0.  0.
         24    2    5    5    0    0 -0.93658625722E+02  0.11923986929E+02  0.39698019688E+02  0.12990171987E+03  0.79902468185E+02 0.  0.
          5    1    5    5  501    0 -0.40141576765E+01 -0.69137913556E+02 -0.31102513493E+02  0.76063269049E+02  0.47000000000E+01 0. -1.
        -13    1    6    6    0    0 -0.10159406000E+03  0.16702750941E+02  0.51320236818E+02  0.11503956547E+03  0.00000000000E+00 0.  1.
         14    1    6    6    0    0  0.79354342737E+01 -0.47787640115E+01 -0.11622217130E+02  0.14862154407E+02  0.00000000000E+00 0. -1.
         -5    1    3    3    0  503  0.11430075274E+03  0.48208682246E+02 -0.69292457016E+02  0.14216987628E+03  0.47000000000E+01 0.  1.
         13    1    4    4    0    0 -0.28859830755E+02 -0.79820090077E+01 -0.77515328366E+02  0.83097704124E+02  0.00000000000E+00 0. -1.
        -14    1    4    4    0    0  0.12231861413E+02  0.16987253389E+02  0.99801802086E+01  0.23190282627E+02  0.00000000000E+00 0.  1.
</event>
<event>
12    1  0.1628146E-001  0.1731152E+03  0.7818608E-02  0.1175418E+00
         21   -1    0    0  503  502  0.00000000000E+00  0.00000000000E+00  0.49341990797E+02  0.49341990797E+02  0.00000000000E+00 0. -1.
         21   -1    0    0  501  503 -0.00000000000E+00 -0.00000000000E+00 -0.65710359566E+03  0.65710359566E+03  0.00000000000E+00 0. -1.
          6    2    1    2  501    0  0.19588603981E+00  0.55044087654E+01 -0.41335090966E+03  0.44813819432E+03  0.17302754059E+03 0.  0.
         24    2    3    3    0    0 -0.65450086943E+02 -0.42691710912E+01 -0.20232174668E+03  0.22686841722E+03  0.78950933163E+02 0.  0.
         -6    2    1    2    0  502 -0.19588603981E+00 -0.55044087654E+01 -0.19441069520E+03  0.25830739214E+03  0.16999074544E+03 0.  0.
        -24    2    5    5    0    0  0.28931433541E+02 -0.48024488813E+02 -0.61903614216E+02  0.11605207777E+03  0.80576968979E+02 0.  0.
          5    1    3    3  501    0  0.65645972983E+02  0.97735798566E+01 -0.21102916298E+03  0.22126977710E+03  0.47000000000E+01 0. -1.
        -11    1    4    4    0    0  0.17302369503E+02 -0.91558806803E+01 -0.43975216701E+02  0.48135452895E+02  0.00000000000E+00 0.  1.
         12    1    4    4    0    0 -0.82752456446E+02  0.48867095891E+01 -0.15834652998E+03  0.17873296432E+03  0.00000000000E+00 0. -1.
         -5    1    5    5    0  502 -0.29127319581E+02  0.42520080047E+02 -0.13250708099E+03  0.14225531437E+03  0.47000000000E+01 0.  1.
         11    1    6    6    0    0  0.24440179073E+02 -0.52638173943E+02 -0.78860658362E+02  0.97913753613E+02  0.00000000000E+00 0. -1.
        -12    1    6    6    0    0  0.44912544682E+01  0.46136851304E+01  0.16957044146E+02  0.18138324160E+02  0.00000000000E+00 0.  1.
</event>
<event>
12    1  0.1628146E-001  0.2359685E+03  0.7818608E-02  0.1123177E+00
         21   -1    0    0  503  502  0.00000000000E+00  0.00000000000E+00  0.12389596768E+03  0.12389596768E+03  0.00000000000E+00 0.  1.
         21   -1    0    0  501  503 -0.00000000000E+00 -0.00000000000E+00 -0.61905317433E+03  0.61905317433E+03  0.00000000000E+00 0. -1.
          6    2    1    2  501    0 -0.70051717700E+02  0.14087183470E+03 -0.44768973828E+03  0.50607039453E+03  0.17586649906E+03 0.  0.
         24    2    3    3    0    0 -0.73871463999E+02  0.33363289522E+02 -0.14670033451E+03  0.18639964370E+03  0.81570440406E+02 0.  0.
         -6    2    1    2    0  502  0.70051717700E+02 -0.14087183470E+03 -0.47467468359E+02  0.23687874748E+03  0.17060557872E+03 0.  0.
        -24    2    5    5    0    0  0.54647730786E+02 -0.16713608484E+03 -0.18202819163E+02  0.19438635591E+03  0.80832341315E+02 0.  0.
          5    1    3    3  501    0  0.38197462992E+01  0.10750854517E+03 -0.30098940378E+03  0.31967075082E+03  0.47000000000E+01 0. -1.
        -13    1    4    4    0    0 -0.59400578725E+01  0.45346024987E+02 -0.52177176190E+02  0.69383023751E+02  0.00000000000E+00 0.  1.
         14    1    4    4    0    0 -0.67931406126E+02 -0.11982735464E+02 -0.94523158316E+02  0.11701661995E+03  0.00000000000E+00 0. -1.
         -5    1    5    5    0  502  0.15403986913E+02  0.26264250147E+02 -0.29264649196E+02  0.42492391568E+02  0.47000000000E+01 0.  1.
         13    1    6    6    0    0  0.67476382263E+02 -0.13392285030E+03 -0.36523050855E+02  0.15434482576E+03  0.00000000000E+00 0. -1.
        -14    1    6    6    0    0 -0.12828651477E+02 -0.33213234542E+02  0.18320231691E+02  0.40041530149E+02  0.00000000000E+00 0.  1.
</event>
<event>
12    1  0.1628146E-001  0.1962379E+03  0.7818608E-02  0.1153968E+00
         21   -1    0    0  503  502  0.00000000000E+00  0.00000000000E+00  0.26202469414E+02  0.26202469414E+02  0.00000000000E+00 0. -1.
         21   -1    0    0  501  503 -0.00000000000E+00 -0.00000000000E+00 -0.14353979217E+04  0.14353979217E+04  0.00000000000E+00 0. -1.
          6    2    1    2  501    0  0.40589518510E+02 -0.72816524465E+02 -0.70375360630E+03  0.73060143565E+03  0.17765011721E+03 0.  0.
         24    2    3    3    0    0 -0.65042505333E+01 -0.97403974215E+02 -0.33389490232E+03  0.35691718836E+03  0.79838800585E+02 0.  0.
         -6    2    1    2    0  502 -0.40589518510E+02  0.72816524465E+02 -0.70544184597E+03  0.73099895545E+03  0.17251527345E+03 0.  0.
        -24    2    5    5    0    0 -0.81878972282E+02  0.13494444926E+02 -0.35988560626E+03  0.37793361742E+03  0.80186678686E+02 0.  0.
          5    1    3    3  501    0  0.47093769044E+02  0.24587449750E+02 -0.36985870398E+03  0.37368424729E+03  0.47000000000E+01 0. -1.
        -13    1    4    4    0    0 -0.35248540462E+02 -0.25025523833E+02 -0.75038135757E+02  0.86599412617E+02  0.00000000000E+00 0.  1.
         14    1    4    4    0    0  0.28744289928E+02 -0.72378450382E+02 -0.25885676657E+03  0.27031777574E+03  0.00000000000E+00 0. -1.
         -5    1    5    5    0  502  0.41289453772E+02  0.59322079539E+02 -0.34555623971E+03  0.35306533802E+03  0.47000000000E+01 0.  1.
         11    1    6    6    0    0 -0.58150335718E+02 -0.17730960857E+01 -0.93943145916E+02  0.11049850713E+03  0.00000000000E+00 0. -1.
        -12    1    6    6    0    0 -0.23728636564E+02  0.15267541011E+02 -0.26594246035E+03  0.26743511029E+03  0.00000000000E+00 0.  1.
</event>
<event>
12    1  0.1628146E-001  0.3508691E+03  0.7818608E-02  0.1062303E+00
         21   -1    0    0  503  502  0.00000000000E+00  0.00000000000E+00  0.63053346523E+02  0.63053346523E+02  0.00000000000E+00 0.  1.
         21   -1    0    0  501  503 -0.00000000000E+00 -0.00000000000E+00 -0.22252758336E+04  0.22252758336E+04  0.00000000000E+00 0. -1.
          6    2    1    2  501    0  0.16744063694E+03 -0.25552071834E+03 -0.14840495972E+04  0.15249630673E+04  0.17257446280E+03 0.  0.
         24    2    3    3    0    0  0.60821684379E+02 -0.98154205514E+02 -0.38764155690E+03  0.41218972951E+03  0.79378026741E+02 0.  0.
         -6    2    1    2    0  502 -0.16744063694E+03  0.25552071834E+03 -0.67817288985E+03  0.76336611282E+03  0.17170366704E+03 0.  0.
        -24    2    5    5    0    0 -0.12442927163E+03  0.24441476370E+03 -0.65159536642E+03  0.71138751601E+03  0.79211464082E+02 0.  0.
          5    1    3    3  501    0  0.10661895256E+03 -0.15736651282E+03 -0.10964080403E+04  0.11127733378E+04  0.47000000000E+01 0. -1.
        -11    1    4    4    0    0 -0.48566004576E-01 -0.55018486242E+02 -0.91252675104E+02  0.10655555781E+03  0.00000000000E+00 0.  1.
         12    1    4    4    0    0  0.60870250383E+02 -0.43135719271E+02 -0.29638888180E+03  0.30563417170E+03  0.00000000000E+00 0. -1.
         -5    1    5    5    0  502 -0.43011365315E+02  0.11105954641E+02 -0.26577523428E+02  0.51978596810E+02  0.47000000000E+01 0.  1.
         13    1    6    6    0    0 -0.15190769502E+01  0.63542026804E+02 -0.19557521583E+03  0.20564426035E+03  0.00000000000E+00 0. -1.
        -14    1    6    6    0    0 -0.12291019468E+03  0.18087273689E+03 -0.45602015059E+03  0.50574325566E+03  0.00000000000E+00 0.  1.
</event>
<event>
12    1  0.1628146E-001  0.3103682E+03  0.7818608E-02  0.1080296E+00
         21   -1    0    0  503  502  0.00000000000E+00  0.00000000000E+00  0.11453741376E+03  0.11453741376E+03  0.00000000000E+00 0. -1.
         21   -1    0    0  501  503 -0.00000000000E+00 -0.00000000000E+00 -0.97932031719E+03  0.97932031719E+03  0.00000000000E+00 0.  1.
          6    2    1    2  501    0  0.24664577967E+03 -0.75535245474E+02 -0.22412163048E+03  0.38197621079E+03  0.17069155346E+03 0.  0.
         24    2    3    3    0    0  0.10496731623E+03  0.28042415192E+02 -0.99506791691E+02  0.16668090931E+03  0.77951327184E+02 0.  0.
         -6    2    1    2    0  502 -0.24664577967E+03  0.75535245474E+02 -0.64066127295E+03  0.71188152016E+03  0.17259408492E+03 0.  0.
        -24    2    5    5    0    0 -0.24355084873E+03  0.42920380428E+02 -0.46188399800E+03  0.53006647112E+03  0.80464036809E+02 0.  0.
          5    1    3    3  501    0  0.14167846344E+03 -0.10357766067E+03 -0.12461483879E+03  0.21529530147E+03  0.47000000000E+01 0. -1.
        -11    1    4    4    0    0  0.97227039007E+02  0.10294686135E+02 -0.10787410750E+03  0.14558812021E+03  0.00000000000E+00 0.  1.
         12    1    4    4    0    0  0.77402772265E+01  0.17747729056E+02  0.83673158131E+01  0.21092789102E+02  0.00000000000E+00 0. -1.
         -5    1    5    5    0  502 -0.30949309364E+01  0.32614865046E+02 -0.17877727495E+03  0.18181504904E+03  0.47000000000E+01 0.  1.
         11    1    6    6    0    0 -0.21147718200E+03  0.61023856802E+02 -0.36265561986E+03  0.42422353567E+03  0.00000000000E+00 0. -1.
        -12    1    6    6    0    0 -0.32073666736E+02 -0.18103476374E+02 -0.99228378144E+02  0.10584293545E+03  0.00000000000E+00 0.  1.
</event>
<event>
12    1  0.1628146E-001  0.1777451E+03  0.7818608E-02  0.1170324E+00
         21   -1    0    0  501  502  0.00000000000E+00  0.00000000000E+00  0.57287349653E+03  0.57287349653E+03  0.00000000000E+00 0.  1.
         21   -1    0    0  502  503 -0.00000000000E+00 -0.00000000000E+00 -0.68538549902E+02  0.68538549902E+02  0.00000000000E+00 0.  1.
         -6    2    1    2    0  503 -0.16652757954E+02  0.34898881135E+02  0.10904325576E+03  0.20852758408E+03  0.17348796916E+03 0.  0.
        -24    2    3    3    0    0  0.10391556431E+02 -0.28041493971E+02  0.11083227748E+03  0.13983860128E+03  0.79854435370E+02 0.  0.
          6    2    1    2  501    0  0.16652757954E+02 -0.34898881135E+02  0.39529169087E+03  0.43288446235E+03  0.17215745881E+03 0.  0.
         24    2    5    5    0    0  0.19432177984E+01 -0.40254851503E+02  0.77404102071E+02  0.11457695992E+03  0.74244565882E+02 0.  0.
          5    1    5    5  501    0  0.14709540155E+02  0.53559703682E+01  0.31788758880E+03  0.31830750243E+03  0.47000000000E+01 0. -1.
        -13    1    6    6    0    0  0.26230924559E+02  0.10413240243E+02  0.23748448878E+02  0.36884763788E+02  0.00000000000E+00 0.  1.
         14    1    6    6    0    0 -0.24287706760E+02 -0.50668091746E+02  0.53655653193E+02  0.77692196136E+02  0.00000000000E+00 0. -1.
         -5    1    3    3    0  503 -0.27044314385E+02  0.62940375105E+02 -0.17890217194E+01  0.68688982797E+02  0.47000000000E+01 0.  1.
         11    1    4    4    0    0  0.80782188822E+01 -0.35321100189E+02  0.84936526706E+01  0.37215317741E+02  0.00000000000E+00 0. -1.
        -12    1    4    4    0    0  0.23133375487E+01  0.72796062183E+01  0.10233862481E+03  0.10262328354E+03  0.00000000000E+00 0.  1.
</event>
<event>
12    1  0.1628146E-001  0.2092853E+03  0.7818608E-02  0.1142441E+00
         21   -1    0    0  503  502  0.00000000000E+00  0.00000000000E+00  0.34219049017E+03  0.34219049017E+03  0.00000000000E+00 0.  1.
         21   -1    0    0  501  503 -0.00000000000E+00 -0.00000000000E+00 -0.17317685446E+03  0.17317685446E+03  0.00000000000E+00 0. -1.
          6    2    1    2  501    0  0.11676945972E+03  0.19278925377E+02 -0.48241699278E+02  0.21477333945E+03  0.17260805920E+03 0.  0.
         24    2    3    3    0    0  0.90066594496E+02  0.49442624953E+02  0.23435516092E+02  0.13241676723E+03  0.80177379752E+02 0.  0.
         -6    2    1    2    0  502 -0.11676945972E+03 -0.19278925377E+02  0.21725533499E+03  0.30059400519E+03  0.17073397929E+03 0.  0.
        -24    2    5    5    0    0 -0.12697896598E+03 -0.63982857122E+02  0.17697006589E+03  0.23937580170E+03  0.75926980789E+02 0.  0.
          5    1    3    3  501    0  0.26702865228E+02 -0.30163699576E+02 -0.71677215370E+02  0.82356572213E+02  0.47000000000E+01 0. -1.
        -11    1    4    4    0    0  0.61166152546E+02 -0.11158796085E+02  0.19498998403E+02  0.65161552208E+02  0.00000000000E+00 0.  1.
         12    1    4    4    0    0  0.28900441950E+02  0.60601421038E+02  0.39365176891E+01  0.67255215027E+02  0.00000000000E+00 0. -1.
         -5    1    5    5    0  502  0.10209506260E+02  0.44703931745E+02  0.40285269099E+02  0.61218203485E+02  0.47000000000E+01 0.  1.
         13    1    6    6    0    0 -0.92812651269E+02 -0.15535607973E+02  0.70753809237E+02  0.11773548689E+03  0.00000000000E+00 0. -1.
        -14    1    6    6    0    0 -0.34166314715E+02 -0.48447249149E+02  0.10621625665E+03  0.12164031482E+03  0.00000000000E+00 0.  1.
</event>
<event>
12    1  0.1628146E-001  0.1995170E+03  0.7818608E-02  0.1150313E+00
         21   -1    0    0  503  502  0.00000000000E+00  0.00000000000E+00  0.12477924176E+04  0.12477924176E+04  0.00000000000E+00 0. -1.
         21   -1    0    0  501  503 -0.00000000000E+00 -0.00000000000E+00 -0.10113705143E+03  0.10113705143E+03  0.00000000000E+00 0. -1.
          6    2    1    2  501    0  0.39666329097E+02  0.93615488799E+02  0.14425885667E+02  0.19925531987E+03  0.17075508458E+03 0.  0.
         24    2    3    3    0    0 -0.99090863507E+01  0.11799407302E+03  0.86845602560E+01  0.14351404250E+03  0.80622996386E+02 0.  0.
         -6    2    1    2    0  502 -0.39666329097E+02 -0.93615488799E+02  0.11322294805E+04  0.11496741492E+04  0.17166763035E+03 0.  0.
        -24    2    5    5    0    0  0.40172732598E+02 -0.33221809587E+02  0.42496958536E+03  0.43534906803E+03  0.78817037936E+02 0.  0.
          5    1    3    3  501    0  0.49575415448E+02 -0.24378584224E+02  0.57413254111E+01  0.55741277372E+02  0.47000000000E+01 0. -1.
        -13    1    4    4    0    0  0.52601871133E+01  0.10006962677E+03  0.36917831024E+02  0.10679197544E+03  0.00000000000E+00 0.  1.
         14    1    4    4    0    0 -0.15169273464E+02  0.17924446253E+02 -0.28233270767E+02  0.36722067059E+02  0.00000000000E+00 0. -1.
         -5    1    5    5    0  502 -0.79839061695E+02 -0.60393679212E+02  0.70725989517E+03  0.71432508117E+03  0.47000000000E+01 0.  1.
         13    1    6    6    0    0 -0.16574741517E+02  0.10282139008E+02  0.50952385774E+02  0.54558134636E+02  0.00000000000E+00 0. -1.
        -14    1    6    6    0    0  0.56747474115E+02 -0.43503948595E+02  0.37401719959E+03  0.38079093339E+03  0.00000000000E+00 0.  1.
</event>
<event>
12    1  0.1628146E-001  0.3023800E+03  0.7818608E-02  0.1084262E+00
         21   -1    0    0  501  502  0.00000000000E+00  0.00000000000E+00  0.13800547456E+04  0.13800547456E+04  0.00000000000E+00 0.  1.
         21   -1    0    0  502  503 -0.00000000000E+00 -0.00000000000E+00 -0.69096732427E+02  0.69096732427E+02  0.00000000000E+00 0. -1.
         -6    2    1    2    0  503 -0.67418484840E+02  0.23811856183E+03  0.80981086238E+03  0.86384630265E+03  0.17085403181E+03 0.  0.
        -24    2    3    3    0    0 -0.95510166265E+02  0.22256082493E+03  0.60570874102E+03  0.65718002168E+03  0.79667994219E+02 0.  0.
          6    2    1    2  501    0  0.67418484840E+02 -0.23811856183E+03  0.50114715080E+03  0.58530517538E+03  0.17374688483E+03 0.  0.
         24    2    5    5    0    0  0.51141581943E+02 -0.25695421325E+03  0.47256232245E+03  0.54710960308E+03  0.85865243650E+02 0.  0.
          5    1    5    5  501    0  0.16276902897E+02  0.18835651415E+02  0.28584828344E+02  0.38195572304E+02  0.47000000000E+01 0. -1.
        -11    1    6    6    0    0  0.12905191616E+02 -0.43687505063E+02  0.16306906132E+03  0.16931231741E+03  0.00000000000E+00 0.  1.
         12    1    6    6    0    0  0.38236390327E+02 -0.21326670819E+03  0.30949326113E+03  0.37779728566E+03  0.00000000000E+00 0. -1.
         -5    1    3    3    0  503  0.28091681426E+02  0.15557736904E+02  0.20410212137E+03  0.20666628097E+03  0.47000000000E+01 0.  1.
         11    1    4    4    0    0  0.47660193033E+01  0.46072203396E+02  0.66599695107E+02  0.81122637125E+02  0.00000000000E+00 0. -1.
        -12    1    4    4    0    0 -0.10027618557E+03  0.17648862153E+03  0.53910904591E+03  0.57605738456E+03  0.00000000000E+00 0.  1.
</event>
<event>
12    1  0.1628146E-001  0.2520725E+03  0.7818608E-02  0.1112041E+00
         21   -1    0    0  503  502  0.00000000000E+00  0.00000000000E+00  0.50820149139E+03  0.50820149139E+03  0.00000000000E+00 0. -1.
         21   -1    0    0  501  503 -0.00000000000E+00 -0.00000000000E+00 -0.49630358826E+03  0.49630358826E+03  0.00000000000E+00 0.  1.
          6    2    1    2  501    0 -0.31842221810E+02  0.18207420386E+03 -0.42852764373E+03  0.49716846747E+03  0.17139311773E+03 0.  0.
         24    2    3    3    0    0  0.40731076370E+02  0.64670893777E+02 -0.15597960021E+03  0.19162804977E+03  0.80934100907E+02 0.  0.
         -6    2    1    2    0  502  0.31842221810E+02 -0.18207420386E+03  0.44042554686E+03  0.50733661218E+03  0.17102874884E+03 0.  0.
        -24    2    5    5    0    0 -0.27980871253E+02 -0.14411237510E+03  0.37749145404E+03  0.41245409037E+03  0.77892701661E+02 0.  0.
          5    1    3    3  501    0 -0.72573298180E+02  0.11740331008E+03 -0.27254804351E+03  0.30554041770E+03  0.47000000000E+01 0. -1.
        -13    1    4    4    0    0 -0.16665738382E+02  0.44910280020E+02 -0.90121048399E+02  0.10206117505E+03  0.00000000000E+00 0.  1.
         14    1    4    4    0    0  0.57396814751E+02  0.19760613757E+02 -0.65858551816E+02  0.89566874719E+02  0.00000000000E+00 0. -1.
         -5    1    5    5    0  502  0.59823093063E+02 -0.37961828763E+02  0.62934092818E+02  0.94882521813E+02  0.47000000000E+01 0.  1.
         13    1    6    6    0    0 -0.25906266203E+02 -0.40090889550E+02  0.20937803883E+03  0.21475003422E+03  0.00000000000E+00 0. -1.
        -14    1    6    6    0    0 -0.20746050505E+01 -0.10402148555E+03  0.16811341521E+03  0.19770405614E+03  0.00000000000E+00 0.  1.
</event>
<event>
12    1  0.1628146E-001  0.1823541E+03  0.7818608E-02  0.1165633E+00
         21   -1    0    0  501  502  0.00000000000E+00  0.00000000000E+00  0.11605450661E+04  0.11605450661E+04  0.00000000000E+00 0. -1.
         21   -1    0    0  502  503 -0.00000000000E+00 -0.00000000000E+00 -0.28655293594E+02  0.28655293594E+02  0.00000000000E+00 0. -1.
         -6    2    1    2    0  503 -0.42050901997E+02 -0.41838646357E+02  0.59396039333E+03  0.62132274369E+03  0.17243622676E+03 0.  0.
        -24    2    3    3    0    0 -0.30688153995E+02 -0.59569465992E+02  0.59010097862E+03  0.59940291046E+03  0.81082674007E+02 0.  0.
          6    2    1    2  501    0  0.42050901997E+02  0.41838646357E+02  0.53792937922E+03  0.56787761605E+03  0.17204132959E+03 0.  0.
         24    2    5    5    0    0  0.57666379357E+02 -0.29208445827E+02  0.38617086163E+03  0.39952004983E+03  0.79434194320E+02 0.  0.
          5    1    5    5  501    0 -0.15615477360E+02  0.71047092184E+02  0.15175851759E+03  0.16835756622E+03  0.47000000000E+01 0. -1.
        -11    1    6    6    0    0  0.14817822460E+02  0.22053552537E+02  0.19933069485E+03  0.20109364224E+03  0.00000000000E+00 0.  1.
         12    1    6    6    0    0  0.42848556896E+02 -0.51261998363E+02  0.18684016678E+03  0.19842640759E+03  0.00000000000E+00 0. -1.
         -5    1    3    3    0  503 -0.11362748002E+02  0.17730819635E+02  0.38594147096E+01  0.21919833234E+02  0.47000000000E+01 0.  1.
         13    1    4    4    0    0  0.18057169860E+02 -0.50237387992E+02  0.24478055003E+03  0.25053417773E+03  0.00000000000E+00 0. -1.
        -14    1    4    4    0    0 -0.48745323855E+02 -0.93320780005E+01  0.34532042859E+03  0.34886873273E+03  0.00000000000E+00 0.  1.
</event>
<event>
12    1  0.1628146E-001  0.2292892E+03  0.7818608E-02  0.1127188E+00
         21   -1    0    0  501  502  0.00000000000E+00  0.00000000000E+00  0.51698059704E+03  0.51698059704E+03  0.00000000000E+00 0.  1.
         21   -1    0    0  502  503 -0.00000000000E+00 -0.00000000000E+00 -0.10261622306E+03  0.10261622306E+03  0.00000000000E+00 0. -1.
         -6    2    1    2    0  503  0.14529316948E+03  0.44687695066E+02  0.23825283768E+03  0.33047949928E+03  0.17130437704E+03 0.  0.
        -24    2    3    3    0    0  0.13116369940E+03  0.98698668828E+01  0.91500618026E+02  0.17892018067E+03  0.79616189552E+02 0.  0.
          6    2    1    2  501    0 -0.14529316948E+03 -0.44687695066E+02  0.17611153630E+03  0.28911732082E+03  0.17165796455E+03 0.  0.
         24    2    5    5    0    0 -0.39046986403E+02  0.36939083583E+02  0.78197203687E+02  0.12310380046E+03  0.78425633443E+02 0.  0.
          5    1    5    5  501    0 -0.10624618308E+03 -0.81626778649E+02  0.97914332613E+02  0.16601352036E+03  0.47000000000E+01 0. -1.
        -13    1    6    6    0    0 -0.27746315366E+01  0.22112838048E+02  0.80814383146E+02  0.83831024746E+02  0.00000000000E+00 0.  1.
         14    1    6    6    0    0 -0.36272354866E+02  0.14826245535E+02 -0.26171794592E+01  0.39272775717E+02  0.00000000000E+00 0. -1.
         -5    1    3    3    0  503  0.14129470076E+02  0.34817828183E+02  0.14675221965E+03  0.15155931861E+03  0.47000000000E+01 0.  1.
         11    1    4    4    0    0  0.78192614659E+02  0.35340294495E+02  0.83270867210E+02  0.11957030872E+03  0.00000000000E+00 0. -1.
        -12    1    4    4    0    0  0.52971084744E+02 -0.25470427612E+02  0.82297508156E+01  0.59349871948E+02  0.00000000000E+00 0.  1.
</event>
<event>
12    1  0.1628146E-001  0.1765461E+03  0.7818608E-02  0.1172123E+00
         21   -1    0    0  501  502  0.00000000000E+00  0.00000000000E+00  0.38964287649E+02  0.38964287649E+02  0.00000000000E+00 0. -1.
         21   -1    0    0  502  503 -0.00000000000E+00 -0.00000000000E+00 -0.11329578524E+04  0.11329578524E+04  0.00000000000E+00 0. -1.
         -6    2    1    2    0  503 -0.35074950811E+02 -0.17675731511E+02 -0.86855121814E+03  0.88557833142E+03  0.16830056114E+03 0.  0.
        -24    2    3    3    0    0 -0.23075265255E+02 -0.68965797153E+02 -0.41123532440E+03  0.42521480120E+03  0.80027408301E+02 0.  0.
          6    2    1    2  501    0  0.35074950811E+02  0.17675731511E+02 -0.22544234659E+03  0.28634380862E+03  0.17212158911E+03 0.  0.
         24    2    5    5    0    0 -0.28123063595E+02  0.35888796744E+01 -0.35796068295E+02  0.85893741788E+02  0.72750186320E+02 0.  0.
          5    1    5    5  501    0  0.63198014405E+02  0.14086851837E+02 -0.18964627830E+03  0.20045006683E+03  0.47000000000E+01 0. -1.
        -13    1    6    6    0    0  0.81838354729E+01 -0.21632036159E+02  0.72025813798E+01  0.24223899975E+02  0.00000000000E+00 0.  1.
         14    1    6    6    0    0 -0.36306899068E+02  0.25220915834E+02 -0.42998649675E+02  0.61669841813E+02  0.00000000000E+00 0. -1.
         -5    1    3    3    0  503 -0.11999685556E+02  0.51290065642E+02 -0.45731589374E+03  0.46036353022E+03  0.47000000000E+01 0.  1.
         13    1    4    4    0    0 -0.38345066637E+02 -0.34577005889E+02 -0.10859790567E+03  0.12024732258E+03  0.00000000000E+00 0. -1.
        -14    1    4    4    0    0  0.15269801382E+02 -0.34388791265E+02 -0.30263741873E+03  0.30496747862E+03  0.00000000000E+00 0.  1.
</event>
<event>
12    1  0.1628146E-001  0.2137416E+03  0.7818608E-02  0.1138798E+00
         21   -1    0    0  501  502  0.00000000000E+00  0.00000000000E+00  0.12164007755E+03  0.12164007755E+03  0.00000000000E+00 0. -1.
         21   -1    0    0  502  503 -0.00000000000E+00 -0.00000000000E+00 -0.37633428228E+03  0.37633428228E+03  0.00000000000E+00 0.  1.
         -6    2    1    2    0  503 -0.32887535969E+02  0.12098975196E+03 -0.14620099358E+03  0.25827405938E+03  0.17207745094E+03 0.  0.
        -24    2    3    3    0    0 -0.30772966663E+02  0.15304109127E+03 -0.98375712849E+02  0.20047174773E+03  0.78374674900E+02 0.  0.
          6    2    1    2  501    0  0.32887535969E+02 -0.12098975196E+03 -0.10849321115E+03  0.23970030044E+03  0.17310501745E+03 0.  0.
         24    2    5    5    0    0  0.55515546079E+01  0.86673065788E+01 -0.51228901702E+02  0.95272118140E+02  0.79664510062E+02 0.  0.
          5    1    5    5  501    0  0.27335981361E+02 -0.12965705854E+03 -0.57264309446E+02  0.14442818230E+03  0.47000000000E+01 0. -1.
        -13    1    6    6    0    0 -0.20160811445E+02  0.35612280458E+01 -0.63214890576E+02  0.66447445804E+02  0.00000000000E+00 0.  1.
         14    1    6    6    0    0  0.25712366053E+02  0.51060785330E+01  0.11985988874E+02  0.28824672337E+02  0.00000000000E+00 0. -1.
         -5    1    3    3    0  503 -0.21145693062E+01 -0.32051339305E+02 -0.47825280734E+02  0.57802311649E+02  0.47000000000E+01 0.  1.
         11    1    4    4    0    0 -0.34270745624E+02  0.16733894421E+02 -0.17753320450E+02  0.42067655213E+02  0.00000000000E+00 0. -1.
        -12    1    4    4    0    0  0.34977789614E+01  0.13630719685E+03 -0.80622392399E+02  0.15840409252E+03  0.00000000000E+00 0.  1.
</event>
<event>
12    1  0.1628146E-001  0.1929754E+03  0.7818608E-02  0.1156525E+00
         21   -1    0    0  503  502  0.00000000000E+00  0.00000000000E+00  0.10843578353E+03  0.10843578353E+03  0.00000000000E+00 0.  1.
         21   -1    0    0  501  503 -0.00000000000E+00 -0.00000000000E+00 -0.36820093364E+03  0.36820093364E+03  0.00000000000E+00 0.  1.
          6    2    1    2  501    0  0.11866331727E+02 -0.85241604616E+02 -0.19947404267E+03  0.27754168680E+03  0.17272102717E+03 0.  0.
         24    2    3    3    0    0  0.24420171121E+02 -0.77739133200E+00 -0.34535901219E+02  0.91750183458E+02  0.81415100545E+02 0.  0.
         -6    2    1    2    0  502 -0.11866331727E+02  0.85241604616E+02 -0.60291107444E+02  0.19909503037E+03  0.16910609834E+03 0.  0.
        -24    2    5    5    0    0 -0.52902841414E+02  0.43856639484E+02 -0.85118073412E+02  0.13557197389E+03  0.80078450442E+02 0.  0.
          5    1    3    3  501    0 -0.12553839394E+02 -0.84464213284E+02 -0.16493814145E+03  0.18579150334E+03  0.47000000000E+01 0. -1.
        -11    1    4    4    0    0  0.59783722233E-01 -0.26187508908E+02  0.15606659275E+02  0.30485357315E+02  0.00000000000E+00 0.  1.
         12    1    4    4    0    0  0.24360387399E+02  0.25410117576E+02 -0.50142560494E+02  0.61264826143E+02  0.00000000000E+00 0. -1.
         -5    1    5    5    0  502  0.41036509687E+02  0.41384965132E+02  0.24826965968E+02  0.63523056487E+02  0.47000000000E+01 0.  1.
         13    1    6    6    0    0 -0.20792802485E+02  0.45113752058E+02 -0.58254882204E+01  0.50015273397E+02  0.00000000000E+00 0. -1.
        -14    1    6    6    0    0 -0.32110038929E+02 -0.12571125742E+01 -0.79292585191E+02  0.85556700488E+02  0.00000000000E+00 0.  1.
</event>
<event>
12    1  0.1628146E-001  0.2673427E+03  0.7818608E-02  0.1103873E+00
         21   -1    0    0  503  502  0.00000000000E+00  0.00000000000E+00  0.30203042729E+03  0.30203042729E+03  0.00000000000E+00 0.  1.
         21   -1    0    0  501  503 -0.00000000000E+00 -0.00000000000E+00 -0.24879090076E+03  0.24879090076E+03  0.00000000000E+00 0. -1.
          6    2    1    2  501    0 -0.16176465558E+03 -0.10377744602E+03 -0.48829545397E+02  0.26465668536E+03  0.17527485417E+03 0.  0.
         24    2    3    3    0    0 -0.17082064571E+02 -0.39718297967E+02 -0.55943319909E+02  0.10619747175E+03  0.79239559821E+02 0.  0.
         -6    2    1    2    0  502  0.16176465558E+03  0.10377744602E+03  0.10206907192E+03  0.28616464269E+03  0.18583472545E+03 0.  0.
        -24    2    5    5    0    0  0.17073227093E+03  0.28200927490E+02  0.80960244817E+02  0.20704510742E+03  0.79801720649E+02 0.  0.
          5    1    3    3  501    0 -0.14468259101E+03 -0.64059148055E+02  0.71137745113E+01  0.15845921361E+03  0.47000000000E+01 0. -1.
        -13    1    4    4    0    0  0.18466205324E+02 -0.49885710806E+02 -0.35451376647E+02  0.63924838583E+02  0.00000000000E+00 0.  1.
         14    1    4    4    0    0 -0.35548269895E+02  0.10167412839E+02 -0.20491943262E+02  0.42272633169E+02  0.00000000000E+00 0. -1.
         -5    1    5    5    0  502 -0.89676153518E+01  0.75576518532E+02  0.21108827107E+02  0.79119535263E+02  0.47000000000E+01 0.  1.
         11    1    6    6    0    0  0.11181820219E+03  0.83953511941E+01  0.97963399841E+01  0.11256003083E+03  0.00000000000E+00 0. -1.
        -12    1    6    6    0    0  0.58914068737E+02  0.19805576296E+02  0.71163904833E+02  0.94485076592E+02  0.00000000000E+00 0.  1.
</event>
<event>
12    1  0.1628146E-001  0.1730032E+03  0.7818608E-02  0.1174801E+00
         21   -1    0    0  501  502  0.00000000000E+00  0.00000000000E+00  0.18551358822E+03  0.18551358822E+03  0.00000000000E+00 0.  1.
         21   -1    0    0  502  503 -0.00000000000E+00 -0.00000000000E+00 -0.27234919549E+03  0.27234919549E+03  0.00000000000E+00 0.  1.
         -6    2    1    2    0  503  0.25726342591E+02  0.23667970865E+02 -0.18968201267E+03  0.25659806164E+03  0.16923735332E+03 0.  0.
        -24    2    3    3    0    0  0.21162368727E+02 -0.33563292505E+02 -0.42589322201E+02  0.98627820918E+02  0.79619446366E+02 0.  0.
          6    2    1    2  501    0 -0.25726342591E+02 -0.23667970865E+02  0.10284640540E+03  0.20126472207E+03  0.16943461187E+03 0.  0.
         24    2    5    5    0    0  0.49449835510E+02 -0.23776600753E+02  0.55414965815E+02  0.11225179596E+03  0.80740536809E+02 0.  0.
          5    1    5    5  501    0 -0.75176178101E+02  0.10862988805E+00  0.47431439588E+02  0.89012926116E+02  0.47000000000E+01 0. -1.
        -11    1    6    6    0    0  0.59625007811E+02 -0.14748494710E+02  0.69444529990E+02  0.92710314411E+02  0.00000000000E+00 0.  1.
         12    1    6    6    0    0 -0.10175172302E+02 -0.90281060433E+01 -0.14029564175E+02  0.19541481547E+02  0.00000000000E+00 0. -1.
         -5    1    3    3    0  503  0.45639738648E+01  0.57231263370E+02 -0.14709269047E+03  0.15797024072E+03  0.47000000000E+01 0.  1.
         13    1    4    4    0    0 -0.13866372102E+02 -0.43759918375E+02 -0.41880295295E+02  0.62138280194E+02  0.00000000000E+00 0. -1.
        -14    1    4    4    0    0  0.35028740828E+02  0.10196625870E+02 -0.70902690643E+00  0.36489540725E+02  0.00000000000E+00 0.  1.
</event>
<event>
12    1  0.1628146E-001  0.2540057E+03  0.7818608E-02  0.1111179E+00
         21   -1    0    0  503  502  0.00000000000E+00  0.00000000000E+00  0.11109032807E+03  0.11109032807E+03  0.00000000000E+00 0. -1.
         21   -1    0    0  501  503 -0.00000000000E+00 -0.00000000000E+00 -0.61573552377E+03  0.61573552377E+03  0.00000000000E+00 0.  1.
          6    2    1    2  501    0 -0.17607553860E+03  0.52202248910E+02 -0.15794914199E+03  0.29703862598E+03  0.17191958522E+03 0.  0.
         24    2    3    3    0    0 -0.14953244359E+03  0.85780812379E+02 -0.17196540152E+03  0.25175505999E+03  0.63954760977E+02 0.  0.
         -6    2    1    2    0  502  0.17607553860E+03 -0.52202248910E+02 -0.34669605370E+03  0.42978722586E+03  0.17547431656E+03 0.  0.
        -24    2    5    5    0    0  0.17987358221E+03 -0.35466069975E+02 -0.20436378431E+03  0.28634703020E+03  0.81349355664E+02 0.  0.
          5    1    3    3  501    0 -0.26543095018E+02 -0.33578563470E+02  0.14016259528E+02  0.45283565992E+02  0.47000000000E+01 0. -1.
        -11    1    4    4    0    0 -0.33684595368E+02  0.32243261960E+02 -0.86167565612E+02  0.97975146187E+02  0.00000000000E+00 0.  1.
         12    1    4    4    0    0 -0.11584784822E+03  0.53537550419E+02 -0.85797835908E+02  0.15377991380E+03  0.00000000000E+00 0. -1.
         -5    1    5    5    0  502 -0.37980436101E+01 -0.16736178935E+02 -0.14233226939E+03  0.14344019566E+03  0.47000000000E+01 0.  1.
         11    1    6    6    0    0  0.37155417868E+02 -0.38024506362E+02 -0.30129010956E+02  0.61107654694E+02  0.00000000000E+00 0. -1.
        -12    1    6    6    0    0  0.14271816435E+03  0.25584363872E+01 -0.17423477335E+03  0.22523937550E+03  0.00000000000E+00 0.  1.
</event>
<event>
12    1  0.1628146E-001  0.2166444E+03  0.7818608E-02  0.1136970E+00
         21   -1    0    0  503  502  0.00000000000E+00  0.00000000000E+00  0.15038055010E+03  0.15038055010E+03  0.00000000000E+00 0. -1.
         21   -1    0    0  501  503 -0.00000000000E+00 -0.00000000000E+00 -0.31716297998E+03  0.31716297998E+03  0.00000000000E+00 0. -1.
          6    2    1    2  501    0 -0.12705243699E+03  0.13901841290E+02 -0.12387071213E+03  0.24955710255E+03  0.17492630212E+03 0.  0.
         24    2    3    3    0    0 -0.54096607961E+02  0.10057119696E+02 -0.14750812828E+03  0.17262757431E+03  0.70809906469E+02 0.  0.
         -6    2    1    2    0  502  0.12705243699E+03 -0.13901841290E+02 -0.42911717746E+02  0.21798642753E+03  0.17129239368E+03 0.  0.
        -24    2    5    5    0    0  0.43478694707E+02  0.50592696941E+02 -0.30359103997E+00  0.10404934699E+03  0.79850839474E+02 0.  0.
          5    1    3    3  501    0 -0.72955829030E+02  0.38447215935E+01  0.23637416147E+02  0.76929528242E+02  0.47000000000E+01 0. -1.
        -13    1    4    4    0    0  0.14961059716E+02  0.12656954018E+02 -0.44041865477E+02  0.48204955218E+02  0.00000000000E+00 0.  1.
         14    1    4    4    0    0 -0.69057667677E+02 -0.25998343220E+01 -0.10346626280E+03  0.12442261909E+03  0.00000000000E+00 0. -1.
         -5    1    5    5    0  502  0.83573742284E+02 -0.64494538230E+02 -0.42608126706E+02  0.11393708054E+03  0.47000000000E+01 0.  1.
         13    1    6    6    0    0  0.67012832578E+02  0.41481344854E+02 -0.22688892159E+00  0.78812899829E+02  0.00000000000E+00 0. -1.
        -14    1    6    6    0    0 -0.23534137871E+02  0.91113520871E+01 -0.76702118374E-01  0.25236447163E+02  0.00000000000E+00 0.  1.
</event>
<event>
12    1  0.1628146E-001  0.2117739E+03  0.7818608E-02  0.1140324E+00
         21   -1    0    0  503  502  0.00000000000E+00  0.00000000000E+00  0.63044310577E+03  0.63044310577E+03  0.00000000000E+00 0. -1.
         21   -1    0    0  501  503 -0.00000000000E+00 -0.00000000000E+00 -0.71543708660E+02  0.71543708660E+02  0.00000000000E+00 0. -1.
          6    2    1    2  501    0  0.12063323284E+03  0.20369367781E+02  0.24595687265E+03  0.32456578205E+03  0.17286085636E+03 0.  0.
         24    2    3    3    0    0  0.27375065133E+02 -0.45114415835E+02  0.13410005181E+03  0.16481832470E+03  0.79984695741E+02 0.  0.
         -6    2    1    2    0  502 -0.12063323284E+03 -0.20369367781E+02  0.31294252446E+03  0.37742103238E+03  0.17189044203E+03 0.  0.
        -24    2    5    5    0    0 -0.10073331969E+03 -0.37878869413E+02  0.32233740304E+03  0.34890887823E+03  0.79082194349E+02 0.  0.
          5    1    3    3  501    0  0.93258167711E+02  0.65483783616E+02  0.11185682084E+03  0.15974745735E+03  0.47000000000E+01 0. -1.
        -11    1    4    4    0    0  0.98930662226E+01  0.20195700951E+02  0.12609800746E+02  0.25782671914E+02  0.00000000000E+00 0.  1.
         12    1    4    4    0    0  0.17481998910E+02 -0.65310116787E+02  0.12149025106E+03  0.13903565278E+03  0.00000000000E+00 0. -1.
         -5    1    5    5    0  502 -0.19899913149E+02  0.17509501632E+02 -0.93948785861E+01  0.28512154152E+02  0.47000000000E+01 0.  1.
         13    1    6    6    0    0 -0.82700284834E+01 -0.57088875327E+01 -0.18884303996E+01  0.10225015274E+02  0.00000000000E+00 0. -1.
        -14    1    6    6    0    0 -0.92463291211E+02 -0.32169981880E+02  0.32422583344E+03  0.33868386296E+03  0.00000000000E+00 0.  1.
</event>
<event>
12    1  0.1628146E-001  0.2381656E+03  0.7818608E-02  0.1121041E+00
         21   -1    0    0  503  502  0.00000000000E+00  0.00000000000E+00  0.12405155136E+04  0.12405155136E+04  0.00000000000E+00 0. -1.
         21   -1    0    0  501  503 -0.00000000000E+00 -0.00000000000E+00 -0.45702787430E+02  0.45702787430E+02  0.00000000000E+00 0. -1.
          6    2    1    2  501    0 -0.10206195448E+03 -0.13137513454E+03  0.59936810602E+03  0.64495345711E+03  0.17043112040E+03 0.  0.
         24    2    3    3    0    0 -0.12874590129E+02 -0.69305579018E+02  0.15408469319E+03  0.18657978486E+03  0.78108290762E+02 0.  0.
         -6    2    1    2    0  502  0.10206195448E+03  0.13137513454E+03  0.59544462020E+03  0.64126484397E+03  0.17026519273E+03 0.  0.
        -24    2    5    5    0    0  0.62772572861E+02  0.23428244681E+02  0.17154801681E+03  0.20205349746E+03  0.83112064170E+02 0.  0.
          5    1    3    3  501    0 -0.89187364355E+02 -0.62069555517E+02  0.44528341282E+03  0.45837367226E+03  0.47000000000E+01 0. -1.
        -13    1    4    4    0    0  0.78568065405E+01 -0.27343258779E+02  0.32314997239E+01  0.28632600303E+02  0.00000000000E+00 0.  1.
         14    1    4    4    0    0 -0.20731396669E+02 -0.41962320239E+02  0.15085319347E+03  0.15794718455E+03  0.00000000000E+00 0. -1.
         -5    1    5    5    0  502  0.39289381622E+02  0.10794688985E+03  0.42389660339E+03  0.43921134651E+03  0.47000000000E+01 0.  1.
         11    1    6    6    0    0  0.49739855856E+02 -0.14755448185E+02  0.14436323042E+03  0.15340312516E+03  0.00000000000E+00 0. -1.
        -12    1    6    6    0    0  0.13032717005E+02  0.38183692867E+02  0.27184786391E+02  0.48650372297E+02  0.00000000000E+00 0.  1.
</event>
<event>
12    1  0.1628146E-001  0.1910918E+03  0.7818608E-02  0.1157487E+00
         21   -1    0    0  501  502  0.00000000000E+00  0.00000000000E+00  0.10696778732E+03  0.10696778732E+03  0.00000000000E+00 0.  1.
         21   -1    0    0  502  503 -0.00000000000E+00 -0.00000000000E+00 -0.39489736366E+03  0.39489736366E+03  0.00000000000E+00 0.  1.
         -6    2    1    2    0  503 -0.50554981579E+02 -0.64367384030E+02 -0.23640340469E+03  0.30397804192E+03  0.17267632707E+03 0.  0.
        -24    2    3    3    0    0 -0.38601786766E+02  0.25850687191E+01 -0.21479973640E+03  0.23246357989E+03  0.80022551177E+02 0.  0.
          6    2    1    2  501    0  0.50554981579E+02  0.64367384030E+02 -0.51526171642E+02  0.19788710906E+03  0.17264239131E+03 0.  0.
         24    2    5    5    0    0 -0.35839030886E+02  0.46108822021E+02 -0.26566720546E+02  0.10600476758E+03  0.84384598747E+02 0.  0.
          5    1    5    5  501    0  0.86394012466E+02  0.18258562009E+02 -0.24959451096E+02  0.91882341479E+02  0.47000000000E+01 0. -1.
        -11    1    6    6    0    0  0.24113077369E+02  0.29027331216E+02 -0.21571924141E+02  0.43466934201E+02  0.00000000000E+00 0.  1.
         12    1    6    6    0    0 -0.59952108255E+02  0.17081490805E+02 -0.49947964050E+01  0.62537833377E+02  0.00000000000E+00 0. -1.
         -5    1    3    3    0  503 -0.11953194813E+02 -0.66952452749E+02 -0.21603668292E+02  0.71514462027E+02  0.47000000000E+01 0.  1.
         11    1    4    4    0    0 -0.20704281205E+02 -0.17964487534E+02 -0.15866030847E+02  0.31672085619E+02  0.00000000000E+00 0. -1.
        -12    1    4    4    0    0 -0.17897505561E+02  0.20549556254E+02 -0.19893370556E+03  0.20079149428E+03  0.00000000000E+00 0.  1.
</event>
<event>
12    1  0.1628146E-001  0.2022832E+03  0.7818608E-02  0.1148192E+00
         21   -1    0    0  501  502  0.00000000000E+00  0.00000000000E+00  0.56353648582E+02  0.56353648582E+02  0.00000000000E+00 0. -1.
         21   -1    0    0  502  503 -0.00000000000E+00 -0.00000000000E+00 -0.74466759443E+03  0.74466759443E+03  0.00000000000E+00 0.  1.
         -6    2    1    2    0  503  0.50392259043E+01  0.10482805380E+03 -0.26959182873E+03  0.33599790293E+03  0.17088160226E+03 0.  0.
        -24    2    3    3    0    0  0.22681635617E+02  0.11470857421E+03 -0.12735841785E+03  0.19225746855E+03  0.84084802574E+02 0.  0.
          6    2    1    2  501    0 -0.50392259043E+01 -0.10482805380E+03 -0.41872211711E+03  0.46502334008E+03  0.17292825333E+03 0.  0.
         24    2    5    5    0    0 -0.10745592454E+02 -0.14113928143E+03 -0.37617652687E+03  0.40860273108E+03  0.73563903891E+02 0.  0.
          5    1    5    5  501    0  0.57063665499E+01  0.36311227633E+02 -0.42545590244E+02  0.56420609006E+02  0.47000000000E+01 0. -1.
        -13    1    6    6    0    0  0.28391633238E+02 -0.68513009052E+02 -0.13997806497E+03  0.15841078221E+03  0.00000000000E+00 0.  1.
         14    1    6    6    0    0 -0.39137225692E+02 -0.72626272379E+02 -0.23619846190E+03  0.25019194887E+03  0.00000000000E+00 0. -1.
         -5    1    3    3    0  503 -0.17642409713E+02 -0.98805204102E+01 -0.14223341089E+03  0.14374043438E+03  0.47000000000E+01 0.  1.
         11    1    4    4    0    0 -0.16968424880E+02  0.41551595989E+02 -0.90966533872E+02  0.10143654596E+03  0.00000000000E+00 0. -1.
        -12    1    4    4    0    0  0.39650060497E+02  0.73156978219E+02 -0.36391883976E+02  0.90820922583E+02  0.00000000000E+00 0.  1.
</event>
<event>
12    1  0.1628146E-001  0.2438577E+03  0.7818608E-02  0.1117305E+00
         21   -1    0    0  503  502  0.00000000000E+00  0.00000000000E+00  0.27143813390E+03  0.27143813390E+03  0.00000000000E+00 0. -1.
         21   -1    0    0  501  503 -0.00000000000E+00 -0.00000000000E+00 -0.32159856121E+03  0.32159856121E+03  0.00000000000E+00 0. -1.
          6    2    1    2  501    0 -0.86622243718E+02 -0.14988692195E+03  0.14259639733E+03  0.28219629044E+03  0.17126444852E+03 0.  0.
         24    2    3    3    0    0 -0.93969062418E+02 -0.16169078580E+03  0.80502539865E+02  0.21839155643E+03  0.78994418103E+02 0.  0.
         -6    2    1    2    0  502  0.86622243718E+02  0.14988692195E+03 -0.19275682464E+03  0.31084040468E+03  0.17174708515E+03 0.  0.
        -24    2    5    5    0    0  0.36642573927E+02  0.40348758790E+02 -0.17211927986E+02  0.97920989593E+02  0.79508296284E+02 0.  0.
          5    1    3    3  501    0  0.73468186997E+01  0.11803863855E+02  0.62093857461E+02  0.63804734003E+02  0.47000000000E+01 0. -1.
        -11    1    4    4    0    0 -0.91763120994E+02 -0.99239673523E+02  0.31005297710E+02  0.13867339926E+03  0.00000000000E+00 0.  1.
         12    1    4    4    0    0 -0.22059414236E+01 -0.62451112279E+02  0.49497242155E+02  0.79718157175E+02  0.00000000000E+00 0. -1.
         -5    1    5    5    0  502  0.49979669791E+02  0.10953816316E+03 -0.17554489665E+03  0.21291941508E+03  0.47000000000E+01 0.  1.
         11    1    6    6    0    0  0.25094142028E+01  0.28527018482E+02 -0.44313958064E+02  0.52761869019E+02  0.00000000000E+00 0. -1.
        -12    1    6    6    0    0  0.34133159724E+02  0.11821740308E+02  0.27102030078E+02  0.45159120574E+02  0.00000000000E+00 0.  1.
</event>
<event>
12    1  0.1628146E-001  0.2264775E+03  0.7818608E-02  0.1129342E+00
         21   -1    0    0  501  502  0.00000000000E+00  0.00000000000E+00  0.65454967336E+02  0.65454967336E+02  0.00000000000E+00 0. -1.
         21   -1    0    0  502  503 -0.00000000000E+00 -0.00000000000E+00 -0.18458535557E+04  0.18458535557E+04  0.00000000000E+00 0. -1.
         -6    2    1    2    0  503 -0.20579935651E+02 -0.14630491741E+03 -0.16173672931E+04  0.16331469728E+04  0.17164909373E+03 0.  0.
        -24    2    3    3    0    0  0.16942635830E+02 -0.82887396769E+02 -0.13719586843E+04  0.13768713388E+04  0.79666045596E+02 0.  0.
          6    2    1    2  501    0  0.20579935651E+02  0.14630491741E+03 -0.16303129528E+03  0.27816155025E+03  0.17019395461E+03 0.  0.
         24    2    5    5    0    0 -0.99854800053E+01  0.91360262349E+02 -0.23421508345E+02  0.12497492433E+03  0.81386468836E+02 0.  0.
          5    1    5    5  501    0  0.30565415656E+02  0.54944655059E+02 -0.13960978693E+03  0.15318662592E+03  0.47000000000E+01 0. -1.
        -13    1    6    6    0    0 -0.39589997976E+02  0.21852958024E+02 -0.19724241005E+02  0.49335234847E+02  0.00000000000E+00 0.  1.
         14    1    6    6    0    0  0.29604517970E+02  0.69507304324E+02 -0.36972673392E+01  0.75639689479E+02  0.00000000000E+00 0. -1.
         -5    1    3    3    0  503 -0.37522571481E+02 -0.63417520638E+02 -0.24540860883E+03  0.25627563400E+03  0.47000000000E+01 0.  1.
         11    1    4    4    0    0 -0.10180367897E+02  0.10206250280E+02 -0.35713163248E+03  0.35742245362E+03  0.00000000000E+00 0. -1.
        -12    1    4    4    0    0  0.27123003726E+02 -0.93093647048E+02 -0.10148270518E+04  0.10194488852E+04  0.00000000000E+00 0.  1.
</event>
<event>
12    1  0.1628146E-001  0.3808152E+03  0.7818608E-02  0.1051101E+00
         21   -1    0    0  501  502  0.00000000000E+00  0.00000000000E+00  0.86974086760E+02  0.86974086760E+02  0.00000000000E+00 0.  1.
         21   -1    0    0  502  503 -0.00000000000E+00 -0.00000000000E+00 -0.16533363552E+04  0.16533363552E+04  0.00000000000E+00 0. -1.
         -6    2    1    2    0  503  0.33271573518E+03 -0.32497345030E+02 -0.71765886877E+03  0.81008590397E+03  0.17160734834E+03 0.  0.
        -24    2    3    3    0    0  0.14741217943E+03  0.38794380579E+02 -0.40752071773E+03  0.44180926793E+03  0.76726392102E+02 0.  0.
          6    2    1    2  501    0 -0.33271573518E+03  0.32497345030E+02 -0.84870339969E+03  0.93022453802E+03  0.18238528618E+03 0.  0.
         24    2    5    5    0    0 -0.21578265624E+03  0.72656319693E+02 -0.67615119524E+03  0.71789827620E+03  0.79727038220E+02 0.  0.
          5    1    5    5  501    0 -0.11693307894E+03 -0.40158974663E+02 -0.17255220445E+03  0.21232626181E+03  0.47000000000E+01 0. -1.
        -11    1    6    6    0    0 -0.13387117329E+03  0.51070508931E+02 -0.30183233396E+03  0.33411442014E+03  0.00000000000E+00 0.  1.
         12    1    6    6    0    0 -0.81911482952E+02  0.21585810762E+02 -0.37431886128E+03  0.38378385606E+03  0.00000000000E+00 0. -1.
         -5    1    3    3    0  503  0.18530355575E+03 -0.71291725608E+02 -0.31013815105E+03  0.36827663603E+03  0.47000000000E+01 0.  1.
         13    1    4    4    0    0  0.38241656793E+02  0.33592703361E+02 -0.66766032549E+02  0.83955923768E+02  0.00000000000E+00 0. -1.
        -14    1    4    4    0    0  0.10917052264E+03  0.52016772177E+01 -0.34075468518E+03  0.35785334416E+03  0.00000000000E+00 0.  1.
</event>
<event>
12    1  0.1628146E-001  0.2281242E+03  0.7818608E-02  0.1128575E+00
         21   -1    0    0  503  502  0.00000000000E+00  0.00000000000E+00  0.13631883943E+04  0.13631883943E+04  0.00000000000E+00 0. -1.
         21   -1    0    0  501  503 -0.00000000000E+00 -0.00000000000E+00 -0.45583009193E+02  0.45583009193E+02  0.00000000000E+00 0.  1.
          6    2    1    2  501    0  0.68195843556E+02 -0.13095049494E+03  0.36829667785E+03  0.43322407706E+03  0.17390213579E+03 0.  0.
         24    2    3    3    0    0  0.88051936230E+01 -0.77319403170E+02  0.32113084737E+03  0.34021736296E+03  0.81037098825E+02 0.  0.
         -6    2    1    2    0  502 -0.68195843556E+02  0.13095049494E+03  0.94930870731E+03  0.97554732648E+03  0.16943098660E+03 0.  0.
        -24    2    5    5    0    0 -0.82212985940E+02  0.30319331454E+02  0.40508545475E+03  0.42190109469E+03  0.78918129315E+02 0.  0.
          5    1    3    3  501    0  0.59390649933E+02 -0.53631091766E+02  0.47165830471E+02  0.93006714100E+02  0.47000000000E+01 0. -1.
        -13    1    4    4    0    0 -0.24318411604E+02 -0.70257986327E+01  0.31862799832E+02  0.40693795626E+02  0.00000000000E+00 0.  1.
         14    1    4    4    0    0  0.33123605227E+02 -0.70293604537E+02  0.28926804754E+03  0.29952356734E+03  0.00000000000E+00 0. -1.
         -5    1    5    5    0  502  0.14017142384E+02  0.10063116348E+03  0.54422325256E+03  0.55364623179E+03  0.47000000000E+01 0.  1.
         11    1    6    6    0    0 -0.23461282152E+02 -0.16702251205E+00  0.27447692828E+03  0.27547784632E+03  0.00000000000E+00 0. -1.
        -12    1    6    6    0    0 -0.58751703788E+02  0.30486353966E+02  0.13060852647E+03  0.14642324837E+03  0.00000000000E+00 0.  1.
</event>
<event>
12    1  0.1628146E-001  0.2033887E+03  0.7818608E-02  0.1147264E+00
         21   -1    0    0  501  502  0.00000000000E+00  0.00000000000E+00  0.36319994576E+02  0.36319994576E+02  0.00000000000E+00 0. -1.
         21   -1    0    0  502  503 -0.00000000000E+00 -0.00000000000E+00 -0.11669558457E+04  0.11669558457E+04  0.00000000000E+00 0. -1.
         -6    2    1    2    0  503 -0.89382254479E+02  0.58681476763E+02 -0.45974706681E+03  0.50272688171E+03  0.17301516992E+03 0.  0.
        -24    2    3    3    0    0 -0.76032929641E+02  0.55918579526E+02 -0.46898729831E+03  0.48560058751E+03  0.83372361686E+02 0.  0.
          6    2    1    2  501    0  0.89382254479E+02 -0.58681476763E+02 -0.67088878430E+03  0.70054895855E+03  0.17100988070E+03 0.  0.
         24    2    5    5    0    0  0.13800543705E+02 -0.12684888352E+02 -0.49572947522E+03  0.50425541636E+03  0.90412670163E+02 0.  0.
          5    1    5    5  501    0  0.75581710774E+02 -0.45996588411E+02 -0.17515930908E+03  0.19629354219E+03  0.47000000000E+01 0. -1.
        -11    1    6    6    0    0  0.40561576426E+02  0.23325732995E+02 -0.22246915060E+03  0.22733643410E+03  0.00000000000E+00 0.  1.
         12    1    6    6    0    0 -0.26761032721E+02 -0.36010621346E+02 -0.27326032463E+03  0.27691898226E+03  0.00000000000E+00 0. -1.
         -5    1    3    3    0  503 -0.13349324838E+02  0.27628972367E+01  0.92402314984E+01  0.17126294197E+02  0.47000000000E+01 0.  1.
         13    1    4    4    0    0 -0.87982344491E+02  0.33722228984E+02 -0.29196727909E+03  0.30679467683E+03  0.00000000000E+00 0. -1.
        -14    1    4    4    0    0  0.11949414850E+02  0.22196350542E+02 -0.17702001921E+03  0.17880591068E+03  0.00000000000E+00 0.  1.
</event>
<event>
12    1  0.1628146E-001  0.1959383E+03  0.7818608E-02  0.1158365E+00
         21   -1    0    0  503  502  0.00000000000E+00  0.00000000000E+00  0.54625139177E+02  0.54625139177E+02  0.00000000000E+00 0.  1.
         21   -1    0    0  501  503 -0.00000000000E+00 -0.00000000000E+00 -0.64798992932E+03  0.64798992932E+03  0.00000000000E+00 0.  1.
          6    2    1    2  501    0 -0.14873347463E+02  0.18496672141E+02 -0.24802568484E+03  0.31608317564E+03  0.19449547614E+03 0.  0.
         24    2    3    3    0    0  0.54761122068E+01 -0.44041623290E+02 -0.46178801246E+02  0.10374054375E+03  0.81608616859E+02 0.  0.
         -6    2    1    2    0  502  0.14873347463E+02 -0.18496672141E+02 -0.34533910530E+03  0.38653189285E+03  0.17200134649E+03 0.  0.
        -24    2    5    5    0    0 -0.38173324641E+02 -0.40730119311E+02 -0.12360463882E+03  0.15741066027E+03  0.79899085693E+02 0.  0.
          5    1    3    3  501    0 -0.20349459670E+02  0.62538295431E+02 -0.20184688359E+03  0.21234263190E+03  0.47000000000E+01 0. -1.
        -13    1    4    4    0    0 -0.35806416547E+02 -0.30754899859E+02 -0.35544188664E+02  0.59087669433E+02  0.00000000000E+00 0.  1.
         14    1    4    4    0    0  0.41282528753E+02 -0.13286723431E+02 -0.10634612582E+02  0.44652874315E+02  0.00000000000E+00 0. -1.
         -5    1    5    5    0  502  0.53046672104E+02  0.22233447170E+02 -0.22173446648E+03  0.22912123258E+03  0.47000000000E+01 0.  1.
         13    1    6    6    0    0 -0.29431836327E+02  0.97663722859E+01 -0.96726630187E+01  0.32483463902E+02  0.00000000000E+00 0. -1.
        -14    1    6    6    0    0 -0.87414883140E+01 -0.50496491597E+02 -0.11393197580E+03  0.12492719636E+03  0.00000000000E+00 0.  1.
</event>
<event>
12    1  0.1628146E-001  0.1984762E+03  0.7818608E-02  0.1151171E+00
         21   -1    0    0  501  502  0.00000000000E+00  0.00000000000E+00  0.33279066826E+03  0.33279066826E+03  0.00000000000E+00 0. -1.
         21   -1    0    0  502  503 -0.00000000000E+00 -0.00000000000E+00 -0.12367097393E+03  0.12367097393E+03  0.00000000000E+00 0. -1.
         -6    2    1    2    0  503  0.76408452482E+02 -0.61109280634E+02  0.55438779838E+02  0.20544248633E+03  0.17193185013E+03 0.  0.
        -24    2    3    3    0    0  0.19714866480E+02  0.31351935471E+02  0.10530965861E+02  0.87960398618E+02  0.79085464309E+02 0.  0.
          6    2    1    2  501    0 -0.76408452482E+02  0.61109280634E+02  0.15368091450E+03  0.25101915586E+03  0.17268525513E+03 0.  0.
         24    2    5    5    0    0 -0.43205427015E+02  0.10379945686E+03  0.13048728485E+03  0.19198588979E+03  0.84797489382E+02 0.  0.
          5    1    5    5  501    0 -0.33203025467E+02 -0.42690176227E+02  0.23193629649E+02  0.59033266069E+02  0.47000000000E+01 0. -1.
        -13    1    6    6    0    0  0.27038128967E+01  0.43553983717E+02  0.30579599550E+01  0.43744842221E+02  0.00000000000E+00 0.  1.
         14    1    6    6    0    0 -0.45909239911E+02  0.60245473144E+02  0.12742932489E+03  0.14824104757E+03  0.00000000000E+00 0. -1.
         -5    1    3    3    0  503  0.56693586002E+02 -0.92461216105E+02  0.44907813976E+02  0.11748208771E+03  0.47000000000E+01 0.  1.
         13    1    4    4    0    0  0.41867940119E+02  0.10020052538E+02 -0.17383006462E+02  0.46427306366E+02  0.00000000000E+00 0. -1.
        -14    1    4    4    0    0 -0.22153073640E+02  0.21331882933E+02  0.27913972324E+02  0.41533092252E+02  0.00000000000E+00 0.  1.
</event>
<event>
12    1  0.1628146E-001  0.2309332E+03  0.7818608E-02  0.1126086E+00
         21   -1    0    0  503  502  0.00000000000E+00  0.00000000000E+00  0.35768609008E+03  0.35768609008E+03  0.00000000000E+00 0.  1.
         21   -1    0    0  501  503 -0.00000000000E+00 -0.00000000000E+00 -0.16642835255E+03  0.16642835255E+03  0.00000000000E+00 0. -1.
          6    2    1    2  501    0  0.11225614253E+03  0.10486615808E+03  0.10263264122E+02  0.23116114857E+03  0.17242908505E+03 0.  0.
         24    2    3    3    0    0  0.11018298761E+02  0.64080587331E+02  0.51273693854E+02  0.11447134979E+03  0.79037798941E+02 0.  0.
         -6    2    1    2    0  502 -0.11225614253E+03 -0.10486615808E+03  0.18099447340E+03  0.29295329405E+03  0.17165162524E+03 0.  0.
        -24    2    5    5    0    0 -0.12010456558E+03 -0.12497051717E+03  0.11596259699E+03  0.22427274405E+03  0.82511835444E+02 0.  0.
          5    1    3    3  501    0  0.10123784377E+03  0.40785570750E+02 -0.41010429732E+02  0.11668979878E+03  0.47000000000E+01 0. -1.
        -13    1    4    4    0    0  0.24185812595E+02  0.78140039551E+02  0.33944883173E+02  0.88561133718E+02  0.00000000000E+00 0.  1.
         14    1    4    4    0    0 -0.13167513834E+02 -0.14059452220E+02  0.17328810681E+02  0.25910216073E+02  0.00000000000E+00 0. -1.
         -5    1    5    5    0  502  0.78484230502E+01  0.20104359091E+02  0.65031876411E+02  0.68680550001E+02  0.47000000000E+01 0.  1.
         13    1    6    6    0    0 -0.10663610858E+03 -0.54839138634E+02  0.81448507182E+02  0.14495671802E+03  0.00000000000E+00 0. -1.
        -14    1    6    6    0    0 -0.13468457009E+02 -0.70131378538E+02  0.34514089807E+02  0.79316026029E+02  0.00000000000E+00 0.  1.
</event>
<event>
12    1  0.1628146E-001  0.2525610E+03  0.7818608E-02  0.1112407E+00
         21   -1    0    0  503  502  0.00000000000E+00  0.00000000000E+00  0.30610629451E+03  0.30610629451E+03  0.00000000000E+00 0. -1.
         21   -1    0    0  501  503 -0.00000000000E+00 -0.00000000000E+00 -0.31643566863E+03  0.31643566863E+03  0.00000000000E+00 0.  1.
          6    2    1    2  501    0 -0.14002831111E+03 -0.12166830941E+03 -0.19017572966E+03  0.31615480712E+03  0.17139413200E+03 0.  0.
         24    2    3    3    0    0 -0.61169616814E+02 -0.91971456357E+01 -0.13015637340E+03  0.16617857742E+03  0.82754628571E+02 0.  0.
         -6    2    1    2    0  502  0.14002831111E+03  0.12166830941E+03  0.17984635554E+03  0.30638715603E+03  0.16467322901E+03 0.  0.
        -24    2    5    5    0    0  0.93837895146E+02  0.56151956917E+02  0.37496471203E+02  0.14295054281E+03  0.84084954092E+02 0.  0.
          5    1    3    3  501    0 -0.78858694296E+02 -0.11247116377E+03 -0.60019356269E+02  0.14997622969E+03  0.47000000000E+01 0. -1.
        -13    1    4    4    0    0 -0.75246341175E+02 -0.27406760304E+02 -0.10546286934E+03  0.13242189841E+03  0.00000000000E+00 0.  1.
         14    1    4    4    0    0  0.14076724361E+02  0.18209614668E+02 -0.24693504058E+02  0.33756679009E+02  0.00000000000E+00 0. -1.
         -5    1    5    5    0  502  0.46190415964E+02  0.65516352491E+02  0.14234988434E+03  0.16343661323E+03  0.47000000000E+01 0.  1.
         11    1    6    6    0    0  0.84513678296E+02  0.30119895605E+02  0.59462316276E+02  0.10763613235E+03  0.00000000000E+00 0. -1.
        -12    1    6    6    0    0  0.93242168494E+01  0.26032061311E+02 -0.21965845073E+02  0.35314410455E+02  0.00000000000E+00 0.  1.
</event>
<event>
12    1  0.1628146E-001  0.1730340E+03  0.7818608E-02  0.1174841E+00
         21   -1    0    0  501  502  0.00000000000E+00  0.00000000000E+00  0.83035961309E+03  0.83035961309E+03  0.00000000000E+00 0. -1.
         21   -1    0    0  502  503 -0.00000000000E+00 -0.00000000000E+00 -0.77143452992E+02  0.77143452992E+02  0.00000000000E+00 0. -1.
         -6    2    1    2    0  503  0.82656850299E+01 -0.96119535178E+01  0.45309073702E+02  0.17886771953E+03  0.17256893617E+03 0.  0.
        -24    2    3    3    0    0  0.27710012610E+02  0.45668894504E+02 -0.12011142079E+02  0.96759552034E+02  0.79778760655E+02 0.  0.
          6    2    1    2  501    0 -0.82656850299E+01  0.96119535178E+01  0.70790708639E+03  0.72863534655E+03  0.17209391061E+03 0.  0.
         24    2    5    5    0    0  0.10412354017E+02 -0.35523572344E+02  0.20663222066E+03  0.22496415832E+03  0.80880508179E+02 0.  0.
          5    1    5    5  501    0 -0.18678039047E+02  0.45135525862E+02  0.50127486573E+03  0.50367118823E+03  0.47000000000E+01 0. -1.
        -11    1    6    6    0    0  0.34194377573E+02 -0.15791538750E+02  0.18081648713E+03  0.18469767236E+03  0.00000000000E+00 0.  1.
         12    1    6    6    0    0 -0.23782023556E+02 -0.19732033594E+02  0.25815733529E+02  0.40266485963E+02  0.00000000000E+00 0. -1.
         -5    1    3    3    0  503 -0.19444327580E+02 -0.55280848022E+02  0.57320215781E+02  0.82108167500E+02  0.47000000000E+01 0.  1.
         11    1    4    4    0    0  0.49037559074E+02  0.40812985286E+02  0.11300641268E+02  0.64792642028E+02  0.00000000000E+00 0. -1.
        -12    1    4    4    0    0 -0.21327546464E+02  0.48559092181E+01 -0.23311783347E+02  0.31966910006E+02  0.00000000000E+00 0.  1.
</event>
<event>
12    1  0.1628146E-001  0.2470277E+03  0.7818608E-02  0.1115488E+00
         21   -1    0    0  503  502  0.00000000000E+00  0.00000000000E+00  0.10459828727E+03  0.10459828727E+03  0.00000000000E+00 0.  1.
         21   -1    0    0  501  503 -0.00000000000E+00 -0.00000000000E+00 -0.59957497877E+03  0.59957497877E+03  0.00000000000E+00 0.  1.
          6    2    1    2  501    0 -0.98496549106E+02 -0.14458762559E+03 -0.18162789210E+03  0.30516180764E+03  0.17183680047E+03 0.  0.
         24    2    3    3    0    0 -0.10346833794E+03 -0.10709809651E+03 -0.19865481117E+03  0.26342226467E+03  0.88044626708E+02 0.  0.
         -6    2    1    2    0  502  0.98496549106E+02  0.14458762559E+03 -0.31334879940E+03  0.39901145839E+03  0.17440046497E+03 0.  0.
        -24    2    5    5    0    0  0.26775455226E+01  0.11302057527E+02 -0.13473007183E+03  0.15637373680E+03  0.78521637466E+02 0.  0.
          5    1    3    3  501    0  0.49717888304E+01 -0.37489529076E+02  0.17026919071E+02  0.41739542972E+02  0.47000000000E+01 0. -1.
        -11    1    4    4    0    0 -0.21681240937E+00 -0.46451005387E+02 -0.25780333036E+02  0.53125968044E+02  0.00000000000E+00 0.  1.
         12    1    4    4    0    0 -0.10325152553E+03 -0.60647091125E+02 -0.17287447813E+03  0.21029629663E+03  0.00000000000E+00 0. -1.
         -5    1    5    5    0  502  0.95819003583E+02  0.13328556806E+03 -0.17861872757E+03  0.24263772159E+03  0.47000000000E+01 0.  1.
         13    1    6    6    0    0  0.10148777272E+01 -0.31720886769E+02 -0.32396680078E+02  0.45351841355E+02  0.00000000000E+00 0. -1.
        -14    1    6    6    0    0  0.16626677954E+01  0.43022944296E+02 -0.10233339176E+03  0.11102189545E+03  0.00000000000E+00 0.  1.
</event>
<event>
12    1  0.1628146E-001  0.1762720E+03  0.7818608E-02  0.1173616E+00
         21   -1    0    0  501  502  0.00000000000E+00  0.00000000000E+00  0.90250199048E+03  0.90250199048E+03  0.00000000000E+00 0.  1.
         21   -1    0    0  502  503 -0.00000000000E+00 -0.00000000000E+00 -0.68604492992E+02  0.68604492992E+02  0.00000000000E+00 0.  1.
         -6    2    1    2    0  503 -0.22944145254E+01 -0.79307946581E+01  0.71110604632E+02  0.19007510751E+03  0.17607858064E+03 0.  0.
        -24    2    3    3    0    0  0.51478640702E+02  0.15378850831E+02  0.86353840233E+02  0.12933527484E+03  0.79900363537E+02 0.  0.
          6    2    1    2  501    0  0.22944145254E+01  0.79307946581E+01  0.76278689285E+03  0.78103137596E+03  0.16762459391E+03 0.  0.
         24    2    5    5    0    0  0.35263719298E+02  0.45595421436E+02  0.65118712280E+03  0.65862958740E+03  0.80161038788E+02 0.  0.
          5    1    5    5  501    0 -0.32969304772E+02 -0.37664626778E+02  0.11159977005E+03  0.12240178856E+03  0.47000000000E+01 0. -1.
        -11    1    6    6    0    0  0.41507191449E+02 -0.72483829228E+00  0.45763753822E+03  0.45951658155E+03  0.00000000000E+00 0.  1.
         12    1    6    6    0    0 -0.62434721517E+01  0.46320259728E+02  0.19354958458E+03  0.19911300585E+03  0.00000000000E+00 0. -1.
         -5    1    3    3    0  503 -0.53773055227E+02 -0.23309645489E+02 -0.15243235601E+02  0.60739832671E+02  0.47000000000E+01 0.  1.
         11    1    4    4    0    0 -0.17002565549E+02  0.12697548356E+02  0.30112299961E+01  0.21433209643E+02  0.00000000000E+00 0. -1.
        -12    1    4    4    0    0  0.68481206251E+02  0.26813024748E+01  0.83342610237E+02  0.10790206520E+03  0.00000000000E+00 0.  1.
</event>
<event>
12    1  0.1628146E-001  0.2055774E+03  0.7818608E-02  0.1145679E+00
         21   -1    0    0  503  502  0.00000000000E+00  0.00000000000E+00  0.19027686955E+02  0.19027686955E+02  0.00000000000E+00 0. -1.
         21   -1    0    0  501  503 -0.00000000000E+00 -0.00000000000E+00 -0.24202618501E+04  0.24202618501E+04  0.00000000000E+00 0. -1.
          6    2    1    2  501    0 -0.69896687171E+02  0.89248372580E+02 -0.83301171845E+03  0.85800384609E+03  0.17149710769E+03 0.  0.
         24    2    3    3    0    0 -0.10454433105E+02  0.10999140976E+03 -0.65711442827E+03  0.67111991994E+03  0.79969804990E+02 0.  0.
         -6    2    1    2    0  502  0.69896687171E+02 -0.89248372580E+02 -0.15682224447E+04  0.15812856909E+04  0.16820220426E+03 0.  0.
        -24    2    5    5    0    0  0.10245292394E+03 -0.25951358780E+02 -0.10728269835E+04  0.10807807724E+04  0.77196287961E+02 0.  0.
          5    1    3    3  501    0 -0.59442254067E+02 -0.20743037180E+02 -0.17589729018E+03  0.18688392615E+03  0.47000000000E+01 0. -1.
        -11    1    4    4    0    0 -0.44282034000E+02  0.78669404739E+02 -0.43940561506E+03  0.44858340174E+03  0.00000000000E+00 0.  1.
         12    1    4    4    0    0  0.33827600896E+02  0.31322005020E+02 -0.21770881321E+03  0.22253651820E+03  0.00000000000E+00 0. -1.
         -5    1    5    5    0  502 -0.32556236767E+02 -0.63297013801E+02 -0.49539546119E+03  0.50050491853E+03  0.47000000000E+01 0.  1.
         13    1    6    6    0    0  0.79643487567E+02 -0.41130251765E+02 -0.97730694116E+03  0.98140900748E+03  0.00000000000E+00 0. -1.
        -14    1    6    6    0    0  0.22809436372E+02  0.15178892986E+02 -0.95520042308E+02  0.99371764915E+02  0.00000000000E+00 0.  1.
</event>
<event>
12    1  0.1628146E-001  0.2666713E+03  0.7818608E-02  0.1103205E+00
         21   -1    0    0  501  502  0.00000000000E+00  0.00000000000E+00  0.37543774548E+03  0.37543774548E+03  0.00000000000E+00 0.  1.
         21   -1    0    0  502  503 -0.00000000000E+00 -0.00000000000E+00 -0.27352618142E+03  0.27352618142E+03  0.00000000000E+00 0.  1.
         -6    2    1    2    0  503  0.12037502548E+03 -0.16377785161E+03 -0.12900676987E+03  0.29620787071E+03  0.17257758998E+03 0.  0.
        -24    2    3    3    0    0  0.27778387656E+01 -0.10392098399E+03 -0.90458706681E+02  0.15865793033E+03  0.78627437576E+02 0.  0.
          6    2    1    2  501    0 -0.12037502548E+03  0.16377785161E+03  0.23091833393E+03  0.35275605619E+03  0.17262742191E+03 0.  0.
         24    2    5    5    0    0 -0.13089999518E+03  0.13894526034E+03  0.24647584534E+03  0.32126703052E+03  0.77598765797E+02 0.  0.
          5    1    5    5  501    0  0.10524969700E+02  0.24832591266E+02 -0.15557511412E+02  0.31489025668E+02  0.47000000000E+01 0. -1.
        -11    1    6    6    0    0 -0.10778042252E+03  0.84921579298E+02  0.12196362531E+03  0.18358491226E+03  0.00000000000E+00 0.  1.
         12    1    6    6    0    0 -0.23119572664E+02  0.54023681046E+02  0.12451222003E+03  0.13768211826E+03  0.00000000000E+00 0. -1.
         -5    1    3    3    0  503  0.11759718672E+03 -0.59856867619E+02 -0.38548063187E+02  0.13754994039E+03  0.47000000000E+01 0.  1.
         11    1    4    4    0    0  0.22114423736E+01 -0.10497794610E+03 -0.46759384143E+02  0.11494215784E+03  0.00000000000E+00 0. -1.
        -12    1    4    4    0    0  0.56639639195E+00  0.10569621053E+01 -0.43699322538E+02  0.43715772486E+02  0.00000000000E+00 0.  1.
</event>
<event>
12    1  0.1628146E-001  0.1964135E+03  0.7818608E-02  0.1152866E+00
         21   -1    0    0  501  502  0.00000000000E+00  0.00000000000E+00  0.14925190650E+03  0.14925190650E+03  0.00000000000E+00 0.  1.
         21   -1    0    0  502  503 -0.00000000000E+00 -0.00000000000E+00 -0.40443599933E+03  0.40443599933E+03  0.00000000000E+00 0.  1.
         -6    2    1    2    0  503 -0.67173451593E+02 -0.66802886005E+02 -0.29406819480E+03  0.35346246009E+03  0.17171112173E+03 0.  0.
        -24    2    3    3    0    0 -0.27797658642E+02  0.27925301142E+02 -0.16198424103E+03  0.18615393265E+03  0.82836344862E+02 0.  0.
          6    2    1    2  501    0  0.67173451593E+02  0.66802886005E+02  0.38884101967E+02  0.20022544574E+03  0.17205626277E+03 0.  0.
         24    2    5    5    0    0  0.70323220801E+02 -0.60143607830E+01  0.72822014912E+02  0.11968884281E+03  0.63567643648E+02 0.  0.
          5    1    5    5  501    0 -0.31497692078E+01  0.72817246788E+02 -0.33937912945E+02  0.80536602927E+02  0.47000000000E+01 0. -1.
        -13    1    6    6    0    0  0.73049158707E+02 -0.23660331059E+02  0.62918219968E+02  0.99270807680E+02  0.00000000000E+00 0.  1.
         14    1    6    6    0    0 -0.27259379058E+01  0.17645970276E+02  0.99037949434E+01  0.20418035134E+02  0.00000000000E+00 0. -1.
         -5    1    3    3    0  503 -0.39375792951E+02 -0.94728187148E+02 -0.13208395377E+03  0.16730852744E+03  0.47000000000E+01 0.  1.
         11    1    4    4    0    0 -0.38751975100E+02  0.51355789230E+02 -0.99029839424E+02  0.11809336035E+03  0.00000000000E+00 0. -1.
        -12    1    4    4    0    0  0.10954316458E+02 -0.23430488088E+02 -0.62954401605E+02  0.68060572306E+02  0.00000000000E+00 0.  1.
</event>
<event>
12    1  0.1628146E-001  0.2127790E+03  0.7818608E-02  0.1139641E+00
         21   -1    0    0  501  502  0.00000000000E+00  0.00000000000E+00  0.13041856658E+03  0.13041856658E+03  0.00000000000E+00 0.  1.
         21   -1    0    0  502  503 -0.00000000000E+00 -0.00000000000E+00 -0.40161246653E+03  0.40161246653E+03  0.00000000000E+00 0.  1.
         -6    2    1    2    0  503 -0.12072913632E+03 -0.19235045737E+02 -0.23582397998E+03  0.31762847508E+03  0.17415334424E+03 0.  0.
        -24    2    3    3    0    0 -0.30582005239E+02 -0.58483563391E+02 -0.16416952909E+03  0.19587708203E+03  0.84027440454E+02 0.  0.
          6    2    1    2  501    0  0.12072913632E+03  0.19235045737E+02 -0.35369919972E+02  0.21440255802E+03  0.17254539781E+03 0.  0.
         24    2    5    5    0    0  0.74847001368E+02 -0.48344864861E+02  0.12144674845E+02  0.11978785861E+03  0.79134937741E+02 0.  0.
          5    1    5    5  501    0  0.45882134949E+02  0.67579910598E+02 -0.47514594817E+02  0.94614699410E+02  0.47000000000E+01 0. -1.
        -13    1    6    6    0    0  0.66740414526E+02 -0.12550992661E+02 -0.20218674360E+02  0.70856228666E+02  0.00000000000E+00 0.  1.
         14    1    6    6    0    0  0.81065868414E+01 -0.35793872200E+02  0.32363349205E+02  0.48931629945E+02  0.00000000000E+00 0. -1.
         -5    1    3    3    0  503 -0.90147131078E+02  0.39248517654E+02 -0.71654450890E+02  0.12175139306E+03  0.47000000000E+01 0.  1.
         11    1    4    4    0    0  0.37442194412E+01 -0.55313800739E+02 -0.43759047471E+02  0.70629243002E+02  0.00000000000E+00 0. -1.
        -12    1    4    4    0    0 -0.34326224680E+02 -0.31697626519E+01 -0.12041048162E+03  0.12524783902E+03  0.00000000000E+00 0.  1.
</event>
<event>
12    1  0.1628146E-001  0.2412947E+03  0.7818608E-02  0.1119078E+00
         21   -1    0    0  501  502  0.00000000000E+00  0.00000000000E+00  0.53394600645E+03  0.53394600645E+03  0.00000000000E+00 0.  1.
         21   -1    0    0  502  503 -0.00000000000E+00 -0.00000000000E+00 -0.51327217350E+03  0.51327217350E+03  0.00000000000E+00 0.  1.
         -6    2    1    2    0  503 -0.26008209501E+02 -0.16518518562E+03 -0.45456542258E+03  0.51423087539E+03  0.17274575910E+03 0.  0.
        -24    2    3    3    0    0  0.39694827390E+02 -0.87975013367E+02 -0.33377225639E+03  0.35646085684E+03  0.79656393479E+02 0.  0.
          6    2    1    2  501    0  0.26008209501E+02  0.16518518562E+03  0.47523925553E+03  0.53298730457E+03  0.17395558146E+03 0.  0.
         24    2    5    5    0    0 -0.40265490366E+02  0.11139972330E+03  0.20691919040E+03  0.25137972902E+03  0.79655563157E+02 0.  0.
          5    1    5    5  501    0  0.66273699867E+02  0.53785462315E+02  0.26832006514E+03  0.28160757555E+03  0.47000000000E+01 0. -1.
        -11    1    6    6    0    0 -0.26174357815E+02 -0.36171890729E+01  0.31096466345E+02  0.40806510301E+02  0.00000000000E+00 0.  1.
         12    1    6    6    0    0 -0.14091132551E+02  0.11501691238E+03  0.17582272405E+03  0.21057321872E+03  0.00000000000E+00 0. -1.
         -5    1    3    3    0  503 -0.65703036891E+02 -0.77210172251E+02 -0.12079316619E+03  0.15777001855E+03  0.47000000000E+01 0.  1.
         11    1    4    4    0    0 -0.13492936742E+02 -0.26615297881E+02 -0.31163217836E+02  0.43146026111E+02  0.00000000000E+00 0. -1.
        -12    1    4    4    0    0  0.53187764133E+02 -0.61359715486E+02 -0.30260903855E+03  0.31331483073E+03  0.00000000000E+00 0.  1.
</event>
<event>
12    1  0.1628146E-001  0.3998291E+03  0.7818608E-02  0.1043947E+00
         21   -1    0    0  501  502  0.00000000000E+00  0.00000000000E+00  0.13487425791E+03  0.13487425791E+03  0.00000000000E+00 0. -1.
         21   -1    0    0  502  503 -0.00000000000E+00 -0.00000000000E+00 -0.12153887047E+04  0.12153887047E+04  0.00000000000E+00 0.  1.
         -6    2    1    2    0  503  0.66670674994E+02 -0.35359403192E+03 -0.65370147413E+03  0.76628255832E+03  0.17432619883E+03 0.  0.
        -24    2    3    3    0    0 -0.27993249869E+02 -0.15936171232E+03 -0.25499847238E+03  0.31277001577E+03  0.81370046445E+02 0.  0.
          6    2    1    2  501    0 -0.66670674994E+02  0.35359403192E+03 -0.42681297271E+03  0.58398040433E+03  0.17143535416E+03 0.  0.
         24    2    5    5    0    0 -0.87582199790E+02  0.27040649354E+03 -0.24846813442E+03  0.38602477861E+03  0.80550620154E+02 0.  0.
          5    1    5    5  501    0  0.20911524796E+02  0.83187538376E+02 -0.17834483829E+03  0.19795562572E+03  0.47000000000E+01 0. -1.
        -11    1    6    6    0    0 -0.25633958485E+02  0.98907015806E+01 -0.19388964532E+02  0.33628228485E+02  0.00000000000E+00 0.  1.
         12    1    6    6    0    0 -0.61948241305E+02  0.26051579196E+03 -0.22907916989E+03  0.35239655012E+03  0.00000000000E+00 0. -1.
         -5    1    3    3    0  503  0.94663924863E+02 -0.19423231960E+03 -0.39870300175E+03  0.45351254255E+03  0.47000000000E+01 0.  1.
         11    1    4    4    0    0  0.66726857409E+00 -0.77664163733E+01  0.58263334361E+01  0.97318360006E+01  0.00000000000E+00 0. -1.
        -12    1    4    4    0    0 -0.28660518443E+02 -0.15159529594E+03 -0.26082480582E+03  0.30303817977E+03  0.00000000000E+00 0.  1.
</event>
<event>
12    1  0.1628146E-001  0.2375103E+03  0.7818608E-02  0.1121505E+00
         21   -1    0    0  501  502  0.00000000000E+00  0.00000000000E+00  0.48036999836E+03  0.48036999836E+03  0.00000000000E+00 0.  1.
         21   -1    0    0  502  503 -0.00000000000E+00 -0.00000000000E+00 -0.13129780382E+03  0.13129780382E+03  0.00000000000E+00 0.  1.
         -6    2    1    2    0  503 -0.70377509761E+02  0.14733344640E+03  0.27428193916E+03  0.36266035253E+03  0.17213892888E+03 0.  0.
        -24    2    3    3    0    0 -0.10964522398E+02  0.59945420217E+02  0.22356113173E+03  0.24535195345E+03  0.80649409706E+02 0.  0.
          6    2    1    2  501    0  0.70377509761E+02 -0.14733344640E+03  0.74790255369E+02  0.24900744965E+03  0.17248475114E+03 0.  0.
         24    2    5    5    0    0  0.53458041475E+02 -0.11772805984E+03  0.11880599239E+03  0.19313059911E+03  0.80417076637E+02 0.  0.
          5    1    5    5  501    0  0.16919468286E+02 -0.29605386560E+02 -0.44015737022E+02  0.55876850538E+02  0.47000000000E+01 0. -1.
        -11    1    6    6    0    0  0.34185616291E+02 -0.97673888561E+02  0.42423716293E+02  0.11184192672E+03  0.00000000000E+00 0.  1.
         12    1    6    6    0    0  0.19272425183E+02 -0.20054171276E+02  0.76382276098E+02  0.81288672396E+02  0.00000000000E+00 0. -1.
         -5    1    3    3    0  503 -0.59412987362E+02  0.87388026179E+02  0.50720807436E+02  0.11730839908E+03  0.47000000000E+01 0.  1.
         13    1    4    4    0    0  0.27152897674E+02 -0.13258814373E+01  0.42613172657E+02  0.50546219419E+02  0.00000000000E+00 0. -1.
        -14    1    4    4    0    0 -0.38117420072E+02  0.61271301654E+02  0.18094795907E+03  0.19480573403E+03  0.00000000000E+00 0.  1.
</event>
<event>
12    1  0.1628146E-001  0.2372530E+03  0.7818608E-02  0.1121833E+00
         21   -1    0    0  501  502  0.00000000000E+00  0.00000000000E+00  0.13129764347E+04  0.13129764347E+04  0.00000000000E+00 0. -1.
         21   -1    0    0  502  503 -0.00000000000E+00 -0.00000000000E+00 -0.47445544637E+02  0.47445544637E+02  0.00000000000E+00 0.  1.
         -6    2    1    2    0  503 -0.45691498179E+02  0.15513099939E+03  0.41537991018E+03  0.47778634922E+03  0.17200577240E+03 0.  0.
        -24    2    3    3    0    0  0.93766768850E+01  0.14588142137E+03  0.37034940980E+03  0.40589827954E+03  0.78901310619E+02 0.  0.
          6    2    1    2  501    0  0.45691498179E+02 -0.15513099939E+03  0.85015097986E+03  0.88263563010E+03  0.17359616063E+03 0.  0.
         24    2    5    5    0    0  0.92341413943E+02 -0.10789120814E+03  0.48820701084E+03  0.51462294115E+03  0.79518781425E+02 0.  0.
          5    1    5    5  501    0 -0.46649915764E+02 -0.47239791243E+02  0.36194396902E+03  0.36801268895E+03  0.47000000000E+01 0. -1.
        -11    1    6    6    0    0  0.40696888293E+02 -0.10105459327E+03  0.29346894441E+03  0.31303720045E+03  0.00000000000E+00 0.  1.
         12    1    6    6    0    0  0.51644525650E+02 -0.68366148729E+01  0.19473806643E+03  0.20158574069E+03  0.00000000000E+00 0. -1.
         -5    1    3    3    0  503 -0.55068175064E+02  0.92495780151E+01  0.45030500378E+02  0.71888069682E+02  0.47000000000E+01 0.  1.
         11    1    4    4    0    0  0.36661794145E+02  0.88954528287E+02  0.27677219540E+03  0.29301850351E+03  0.00000000000E+00 0. -1.
        -12    1    4    4    0    0 -0.27285117260E+02  0.56926893084E+02  0.93577214405E+02  0.11287977603E+03  0.00000000000E+00 0.  1.
</event>
<event>
12    1  0.1628146E-001  0.1937360E+03  0.7818608E-02  0.1156094E+00
         21   -1    0    0  503  502  0.00000000000E+00  0.00000000000E+00  0.12290977730E+04  0.12290977730E+04  0.00000000000E+00 0. -1.
         21   -1    0    0  501  503 -0.00000000000E+00 -0.00000000000E+00 -0.31170260269E+02  0.31170260269E+02  0.00000000000E+00 0.  1.
          6    2    1    2  501    0 -0.60448913250E+02  0.49838676524E+02  0.72161487784E+03  0.74606244997E+03  0.17246211914E+03 0.  0.
         24    2    3    3    0    0 -0.10684654166E+02  0.23779033560E+02  0.14901675140E+03  0.17069622670E+03  0.79067093915E+02 0.  0.
         -6    2    1    2    0  502  0.60448913250E+02 -0.49838676524E+02  0.47631263490E+03  0.51420558331E+03  0.17718829237E+03 0.  0.
        -24    2    5    5    0    0 -0.12140499659E+02 -0.71960007279E+02  0.35750008985E+03  0.37314854874E+03  0.78152996131E+02 0.  0.
          5    1    3    3  501    0 -0.49764259084E+02  0.26059642964E+02  0.57259812644E+03  0.57536622327E+03  0.47000000000E+01 0. -1.
        -11    1    4    4    0    0  0.84496229692E+01  0.41151730268E+02  0.13481081545E+03  0.14120487596E+03  0.00000000000E+00 0.  1.
         12    1    4    4    0    0 -0.19134277135E+02 -0.17372696708E+02  0.14205935953E+02  0.29491350744E+02  0.00000000000E+00 0. -1.
         -5    1    5    5    0  502  0.72589412909E+02  0.22121330756E+02  0.11881254504E+03  0.14105703457E+03  0.47000000000E+01 0.  1.
         11    1    6    6    0    0 -0.12654408987E+02  0.13428239569E+02  0.35374896261E+02  0.39897806584E+02  0.00000000000E+00 0. -1.
        -12    1    6    6    0    0  0.51390932812E+00 -0.85388246848E+02  0.32212519359E+03  0.33325074216E+03  0.00000000000E+00 0.  1.
</event>
<event>
12    1  0.1628146E-001  0.2479279E+03  0.7818608E-02  0.1114882E+00
         21   -1    0    0  501  502  0.00000000000E+00  0.00000000000E+00  0.56385529345E+03  0.56385529345E+03  0.00000000000E+00 0. -1.
         21   -1    0    0  502  503 -0.00000000000E+00 -0.00000000000E+00 -0.16168371187E+03  0.16168371187E+03  0.00000000000E+00 0. -1.
         -6    2    1    2    0  503  0.72807629110E+02  0.15772423408E+03 -0.69208659607E+01  0.24802447996E+03  0.17689081209E+03 0.  0.
        -24    2    3    3    0    0 -0.18730766002E+02  0.59607086560E+02  0.34498753943E+02  0.10751139399E+03  0.80403292533E+02 0.  0.
          6    2    1    2  501    0 -0.72807629110E+02 -0.15772423408E+03  0.40909244754E+03  0.47751452536E+03  0.17460127839E+03 0.  0.
         24    2    5    5    0    0 -0.50777664521E+02 -0.59018096827E+02  0.94649661019E+02  0.14717443262E+03  0.81487718822E+02 0.  0.
          5    1    5    5  501    0 -0.22029964589E+02 -0.98706137256E+02  0.31444278652E+03  0.33034009274E+03  0.47000000000E+01 0. -1.
        -13    1    6    6    0    0 -0.62986399359E+02 -0.35504320406E+02  0.96538167559E+02  0.12061285614E+03  0.00000000000E+00 0.  1.
         14    1    6    6    0    0  0.12208734838E+02 -0.23513776421E+02 -0.18885065398E+01  0.26561576476E+02  0.00000000000E+00 0. -1.
         -5    1    3    3    0  503  0.91538395112E+02  0.98117147523E+02 -0.41419619904E+02  0.14051308598E+03  0.47000000000E+01 0.  1.
         11    1    4    4    0    0  0.22340660873E+02  0.15858876618E+02 -0.13618783925E+02  0.30595430564E+02  0.00000000000E+00 0. -1.
        -12    1    4    4    0    0 -0.41071426875E+02  0.43748209942E+02  0.48117537868E+02  0.76915963422E+02  0.00000000000E+00 0.  1.
</event>
<event>
12    1  0.1628146E-001  0.2063247E+03  0.7818608E-02  0.1144594E+00
         21   -1    0    0  503  502  0.00000000000E+00  0.00000000000E+00  0.70570118048E+02  0.70570118048E+02  0.00000000000E+00 0.  1.
         21   -1    0    0  501  503 -0.00000000000E+00 -0.00000000000E+00 -0.64420681288E+03  0.64420681288E+03  0.00000000000E+00 0.  1.
          6    2    1    2  501    0 -0.26359694536E+02 -0.11137136400E+03 -0.37854329719E+03  0.43112050938E+03  0.17167251249E+03 0.  0.
         24    2    3    3    0    0  0.36218553369E+02 -0.80473921244E+02 -0.31491909420E+03  0.33656460906E+03  0.79459829913E+02 0.  0.
         -6    2    1    2    0  502  0.26359694536E+02  0.11137136400E+03 -0.19509339764E+03  0.28365642155E+03  0.17117569182E+03 0.  0.
        -24    2    5    5    0    0  0.60064554521E+01  0.13945107044E+03 -0.18903666539E+03  0.24813884476E+03  0.79720429372E+02 0.  0.
          5    1    3    3  501    0 -0.62578247905E+02 -0.30897442752E+02 -0.63624202990E+02  0.94555900321E+02  0.47000000000E+01 0. -1.
        -13    1    4    4    0    0 -0.10769428211E+02 -0.31848889134E+02 -0.20330148169E+03  0.20606267197E+03  0.00000000000E+00 0.  1.
         14    1    4    4    0    0  0.46987981580E+02 -0.48625032109E+02 -0.11161761251E+03  0.13050193709E+03  0.00000000000E+00 0. -1.
         -5    1    5    5    0  502  0.20353239083E+02 -0.28079706450E+02 -0.60567322449E+01  0.35517576789E+02  0.47000000000E+01 0.  1.
         13    1    6    6    0    0 -0.13002015060E+02 -0.58108685112E+01 -0.16608317423E+02  0.21878180822E+02  0.00000000000E+00 0. -1.
        -14    1    6    6    0    0  0.19008470512E+02  0.14526193896E+03 -0.17242834797E+03  0.22626066393E+03  0.00000000000E+00 0.  1.
</event>
<event>
12    1  0.1628146E-001  0.1950253E+03  0.7818608E-02  0.1154455E+00
         21   -1    0    0  503  502  0.00000000000E+00  0.00000000000E+00  0.43465202488E+02  0.43465202488E+02  0.00000000000E+00 0.  1.
         21   -1    0    0  501  503 -0.00000000000E+00 -0.00000000000E+00 -0.10730584404E+04  0.10730584404E+04  0.00000000000E+00 0.  1.
          6    2    1    2  501    0  0.29366387008E+02  0.87028851075E+02 -0.75789362660E+03  0.78207549406E+03  0.16971424090E+03 0.  0.
         24    2    3    3    0    0 -0.29904210596E+01  0.85736316473E+02 -0.72886158860E+03  0.73833097550E+03  0.80831648864E+02 0.  0.
         -6    2    1    2    0  502 -0.29366387008E+02 -0.87028851075E+02 -0.27169961135E+03  0.33444814886E+03  0.17204208749E+03 0.  0.
        -24    2    5    5    0    0 -0.38471057792E+02 -0.12239925863E+03 -0.16617438980E+03  0.22268221871E+03  0.74241780041E+02 0.  0.
          5    1    3    3  501    0  0.32356808067E+02  0.12925346023E+01 -0.29032037997E+02  0.43744518562E+02  0.47000000000E+01 0. -1.
        -13    1    4    4    0    0 -0.90011496087E+01  0.74593048730E+02 -0.29942374657E+03  0.30870653317E+03  0.00000000000E+00 0.  1.
         14    1    4    4    0    0  0.60107285491E+01  0.11143267743E+02 -0.42943784203E+03  0.42962444232E+03  0.00000000000E+00 0. -1.
         -5    1    5    5    0  502  0.91046707848E+01  0.35370407553E+02 -0.10552522155E+03  0.11176593016E+03  0.47000000000E+01 0.  1.
         13    1    6    6    0    0  0.63184457464E+01 -0.11245690152E+02 -0.63735543295E+02  0.65027746253E+02  0.00000000000E+00 0. -1.
        -14    1    6    6    0    0 -0.44789503539E+02 -0.11115356848E+03 -0.10243884650E+03  0.15765447245E+03  0.00000000000E+00 0.  1.
</event>
<event>
12    1  0.1628146E-001  0.2037540E+03  0.7818608E-02  0.1146669E+00
         21   -1    0    0  501  502  0.00000000000E+00  0.00000000000E+00  0.76512437639E+03  0.76512437639E+03  0.00000000000E+00 0. -1.
         21   -1    0    0  502  503 -0.00000000000E+00 -0.00000000000E+00 -0.75507806729E+02  0.75507806729E+02  0.00000000000E+00 0. -1.
         -6    2    1    2    0  503  0.62065742150E+02  0.89857132695E+02  0.12161645868E+03  0.23728935812E+03  0.17201516156E+03 0.  0.
        -24    2    3    3    0    0  0.10113508091E+03  0.44676434764E+02  0.11386165836E+03  0.17687466103E+03  0.78076117060E+02 0.  0.
          6    2    1    2  501    0 -0.62065742150E+02 -0.89857132695E+02  0.56800011098E+03  0.60334282500E+03  0.17167404512E+03 0.  0.
         24    2    5    5    0    0 -0.48063999272E+02  0.16346924082E+02  0.22912373857E+03  0.24790698515E+03  0.79892526273E+02 0.  0.
          5    1    5    5  501    0 -0.14001742878E+02 -0.10620405678E+03  0.33887637240E+03  0.35543583986E+03  0.47000000000E+01 0. -1.
        -11    1    6    6    0    0  0.22330117168E+02 -0.22188497799E+00  0.55545174393E+02  0.59866098621E+02  0.00000000000E+00 0.  1.
         12    1    6    6    0    0 -0.70394116440E+02  0.16568809060E+02  0.17357856418E+03  0.18804088652E+03  0.00000000000E+00 0. -1.
         -5    1    3    3    0  503 -0.39069338758E+02  0.45180697931E+02  0.77548003243E+01  0.60414697091E+02  0.47000000000E+01 0.  1.
         13    1    4    4    0    0  0.41261728479E+02  0.14020202282E+02 -0.11984095563E+01  0.43595097139E+02  0.00000000000E+00 0. -1.
        -14    1    4    4    0    0  0.59873352429E+02  0.30656232482E+02  0.11506006792E+03  0.13327956389E+03  0.00000000000E+00 0.  1.
</event>
<event>
12    1  0.1628146E-001  0.1846294E+03  0.7818608E-02  0.1164166E+00
         21   -1    0    0  501  502  0.00000000000E+00  0.00000000000E+00  0.61140839347E+02  0.61140839347E+02  0.00000000000E+00 0. -1.
         21   -1    0    0  502  503 -0.00000000000E+00 -0.00000000000E+00 -0.78903943757E+03  0.78903943757E+03  0.00000000000E+00 0. -1.
         -6    2    1    2    0  503 -0.56619058235E+01 -0.54223971933E+02 -0.59676969369E+03  0.62372323589E+03  0.17298644853E+03 0.  0.
        -24    2    3    3    0    0 -0.56759430235E+02 -0.21090258451E+02 -0.21735033465E+03  0.23941874726E+03  0.80085808004E+02 0.  0.
          6    2    1    2  501    0  0.56619058235E+01  0.54223971933E+02 -0.13112890453E+03  0.22645704103E+03  0.17639644417E+03 0.  0.
         24    2    5    5    0    0 -0.16274982489E+02  0.28888673052E+02 -0.15967988794E+03  0.18218116620E+03  0.81196553021E+02 0.  0.
          5    1    5    5  501    0  0.21936888312E+02  0.25335298881E+02  0.28550983401E+02  0.44275874824E+02  0.47000000000E+01 0. -1.
        -13    1    6    6    0    0  0.12330521584E+02  0.51682828709E+01 -0.13902382530E+03  0.13966523158E+03  0.00000000000E+00 0.  1.
         14    1    6    6    0    0 -0.28605504073E+02  0.23720390181E+02 -0.20656062636E+02  0.42515934627E+02  0.00000000000E+00 0. -1.
         -5    1    3    3    0  503  0.51097524411E+02 -0.33133713482E+02 -0.37941935904E+03  0.38430448863E+03  0.47000000000E+01 0.  1.
         11    1    4    4    0    0 -0.33816535607E+02 -0.48753455419E+02 -0.16943128016E+03  0.17951996042E+03  0.00000000000E+00 0. -1.
        -12    1    4    4    0    0 -0.22942894628E+02  0.27663196968E+02 -0.47919054497E+02  0.59898786835E+02  0.00000000000E+00 0.  1.
</event>
<event>
12    1  0.1628146E-001  0.2052701E+03  0.7818608E-02  0.1145621E+00
         21   -1    0    0  503  502  0.00000000000E+00  0.00000000000E+00  0.20101397306E+04  0.20101397306E+04  0.00000000000E+00 0.  1.
         21   -1    0    0  501  503 -0.00000000000E+00 -0.00000000000E+00 -0.24853420551E+02  0.24853420551E+02  0.00000000000E+00 0. -1.
          6    2    1    2  501    0  0.88186973403E+02 -0.66673633169E+02  0.58603693209E+03  0.62094695282E+03  0.17295524512E+03 0.  0.
         24    2    3    3    0    0  0.41285884787E+02  0.21975288122E+02  0.17223934440E+03  0.19514315183E+03  0.78911471781E+02 0.  0.
         -6    2    1    2    0  502 -0.88186973403E+02  0.66673633169E+02  0.13992493780E+04  0.14140461984E+04  0.17148035934E+03 0.  0.
        -24    2    5    5    0    0 -0.23173286973E+02  0.93977570627E+02  0.10894315297E+04  0.10962703756E+04  0.74691990543E+02 0.  0.
          5    1    3    3  501    0  0.46901088616E+02 -0.88648921291E+02  0.41379758769E+03  0.42580380099E+03  0.47000000000E+01 0. -1.
        -13    1    4    4    0    0  0.59996839485E+02  0.37171281218E+01  0.14695206204E+03  0.15877136495E+03  0.00000000000E+00 0.  1.
         14    1    4    4    0    0 -0.18710954698E+02  0.18258160000E+02  0.25287282358E+02  0.36371786886E+02  0.00000000000E+00 0. -1.
         -5    1    5    5    0  502 -0.65013686430E+02 -0.27303937458E+02  0.30981784827E+03  0.31777582276E+03  0.47000000000E+01 0.  1.
         13    1    6    6    0    0 -0.48234635626E+02  0.78796564677E+02  0.77909868237E+03  0.78455735007E+03  0.00000000000E+00 0. -1.
        -14    1    6    6    0    0  0.25061348653E+02  0.15181005950E+02  0.31033284736E+03  0.31171302554E+03  0.00000000000E+00 0.  1.
</event>
<event>
12    1  0.1628146E-001  0.1857154E+03  0.7818608E-02  0.1162742E+00
         21   -1    0    0  501  502  0.00000000000E+00  0.00000000000E+00  0.50977961809E+03  0.50977961809E+03  0.00000000000E+00 0.  1.
         21   -1    0    0  502  503 -0.00000000000E+00 -0.00000000000E+00 -0.13364902483E+03  0.13364902483E+03  0.00000000000E+00 0.  1.
         -6    2    1    2    0  503  0.59949532793E+02 -0.30569300327E+02 -0.39346731426E+02  0.18833347184E+03  0.17144358470E+03 0.  0.
        -24    2    3    3    0    0 -0.31607697588E+02 -0.15793572584E+02 -0.28539115444E+02  0.94845808860E+02  0.83263214364E+02 0.  0.
          6    2    1    2  501    0 -0.59949532793E+02  0.30569300327E+02  0.41547732469E+03  0.45509517109E+03  0.17309471052E+03 0.  0.
         24    2    5    5    0    0 -0.63263957316E+02 -0.43773339483E+02  0.24024890688E+03  0.26466171313E+03  0.80049057408E+02 0.  0.
          5    1    5    5  501    0  0.33144245229E+01  0.74342639810E+02  0.17522841781E+03  0.19043345796E+03  0.47000000000E+01 0. -1.
        -11    1    6    6    0    0 -0.23793272891E+02  0.20552226673E+02  0.10701083552E+03  0.11153399829E+03  0.00000000000E+00 0.  1.
         12    1    6    6    0    0 -0.39470684425E+02 -0.64325566156E+02  0.13323807137E+03  0.15312771484E+03  0.00000000000E+00 0. -1.
         -5    1    3    3    0  503  0.91557230381E+02 -0.14775727743E+02 -0.10807615982E+02  0.93487662975E+02  0.47000000000E+01 0.  1.
         13    1    4    4    0    0 -0.11005301182E+01 -0.46031021851E+02 -0.62890809689E+01  0.46471697608E+02  0.00000000000E+00 0. -1.
        -14    1    4    4    0    0 -0.30507167470E+02  0.30237449267E+02 -0.22250034475E+02  0.48374111251E+02  0.00000000000E+00 0.  1.
</event>
<event>
12    1  0.1628146E-001  0.1932554E+03  0.7818608E-02  0.1155850E+00
         21   -1    0    0  503  502  0.00000000000E+00  0.00000000000E+00  0.17371546117E+04  0.17371546117E+04  0.00000000000E+00 0.  1.
         21   -1    0    0  501  503 -0.00000000000E+00 -0.00000000000E+00 -0.22113684663E+02  0.22113684663E+02  0.00000000000E+00 0.  1.
          6    2    1    2  501    0 -0.53333188052E+01  0.84590133025E+02  0.10178595911E+04  0.10357978678E+04  0.17220668091E+03 0.  0.
         24    2    3    3    0    0  0.10938992577E+02  0.97877732743E+02  0.99960045504E+03  0.10075696112E+04  0.79345696431E+02 0.  0.
         -6    2    1    2    0  502  0.53333188052E+01 -0.84590133025E+02  0.69718133601E+03  0.72347042859E+03  0.17367703033E+03 0.  0.
        -24    2    5    5    0    0  0.68683410129E+02 -0.31512495780E+02  0.36143421882E+03  0.37766891565E+03  0.79301116633E+02 0.  0.
          5    1    3    3  501    0 -0.16272311382E+02 -0.13287599718E+02  0.18259136026E+02  0.28228256631E+02  0.47000000000E+01 0. -1.
        -13    1    4    4    0    0  0.41166227488E+02  0.40681360792E+02  0.34965942007E+03  0.35441690344E+03  0.00000000000E+00 0.  1.
         14    1    4    4    0    0 -0.30227234911E+02  0.57196371950E+02  0.64994103497E+03  0.65315270774E+03  0.00000000000E+00 0. -1.
         -5    1    5    5    0  502 -0.63350091323E+02 -0.53077637245E+02  0.33574711719E+03  0.34580151293E+03  0.47000000000E+01 0.  1.
         13    1    6    6    0    0  0.98508139355E+01  0.22723953684E+02  0.14104384186E+03  0.14320189221E+03  0.00000000000E+00 0. -1.
        -14    1    6    6    0    0  0.58832596193E+02 -0.54236449463E+02  0.22039037696E+03  0.23446702344E+03  0.00000000000E+00 0.  1.
</event>
<event>
12    1  0.1628146E-001  0.1763256E+03  0.7818608E-02  0.1176665E+00
         21   -1    0    0  501  502  0.00000000000E+00  0.00000000000E+00  0.20089868956E+03  0.20089868956E+03  0.00000000000E+00 0. -1.
         21   -1    0    0  502  503 -0.00000000000E+00 -0.00000000000E+00 -0.33461333104E+03  0.33461333104E+03  0.00000000000E+00 0. -1.
         -6    2    1    2    0  503 -0.32858712286E+02  0.24443215607E+02 -0.27040028803E+03  0.31241187172E+03  0.15102217077E+03 0.  0.
        -24    2    3    3    0    0 -0.44011166962E+02 -0.33555784570E+02 -0.17299897684E+03  0.19840587763E+03  0.79832780212E+02 0.  0.
          6    2    1    2  501    0  0.32858712286E+02 -0.24443215607E+02  0.13668564655E+03  0.22310014888E+03  0.17150377458E+03 0.  0.
         24    2    5    5    0    0 -0.26573734683E+02 -0.12445835079E+02  0.15484427510E+02  0.87497868707E+02  0.80963246891E+02 0.  0.
          5    1    5    5  501    0  0.59432446969E+02 -0.11997380528E+02  0.12120121904E+03  0.13560228018E+03  0.47000000000E+01 0. -1.
        -11    1    6    6    0    0  0.14360149142E+02 -0.23648869999E+02 -0.18369226502E+02  0.33210110176E+02  0.00000000000E+00 0.  1.
         12    1    6    6    0    0 -0.40933883825E+02  0.11203034919E+02  0.33853654012E+02  0.54287758532E+02  0.00000000000E+00 0. -1.
         -5    1    3    3    0  503  0.11152454676E+02  0.57999000177E+02 -0.97401311189E+02  0.11400599409E+03  0.47000000000E+01 0.  1.
         13    1    4    4    0    0 -0.49575700005E+02  0.10762878885E+02 -0.11047477453E+03  0.12156588913E+03  0.00000000000E+00 0. -1.
        -14    1    4    4    0    0  0.55645330434E+01 -0.44318663455E+02 -0.62524202308E+02  0.76839988500E+02  0.00000000000E+00 0.  1.
</event>
<event>
12    1  0.1628146E-001  0.2870721E+03  0.7818608E-02  0.1092255E+00
         21   -1    0    0  503  502  0.00000000000E+00  0.00000000000E+00  0.11384559134E+04  0.11384559134E+04  0.00000000000E+00 0. -1.
         21   -1    0    0  501  503 -0.00000000000E+00 -0.00000000000E+00 -0.11202881866E+03  0.11202881866E+03  0.00000000000E+00 0. -1.
          6    2    1    2  501    0 -0.20894912662E+03  0.87436323288E+02  0.13963270454E+03  0.31922982518E+03  0.17636763013E+03 0.  0.
         24    2    3    3    0    0 -0.64890111479E+02  0.67832984039E+02  0.89711117894E+01  0.12370020447E+03  0.80057600809E+02 0.  0.
         -6    2    1    2    0  502  0.20894912662E+03 -0.87436323288E+02  0.88679439023E+03  0.93125490691E+03  0.17183295076E+03 0.  0.
        -24    2    5    5    0    0  0.13186105833E+03 -0.66435089401E+02  0.77852777663E+03  0.79661697869E+03  0.81805574018E+02 0.  0.
          5    1    3    3  501    0 -0.14405901514E+03  0.19603339249E+02  0.13066159275E+03  0.19552962071E+03  0.47000000000E+01 0. -1.
        -13    1    4    4    0    0  0.14499027053E+02  0.22216888883E+02  0.17439452349E+02  0.31748172158E+02  0.00000000000E+00 0.  1.
         14    1    4    4    0    0 -0.79389138532E+02  0.45616095156E+02 -0.84683405600E+01  0.91952032310E+02  0.00000000000E+00 0. -1.
         -5    1    5    5    0  502  0.77088068289E+02 -0.21001233887E+02  0.10826661360E+03  0.13463792823E+03  0.47000000000E+01 0.  1.
         13    1    6    6    0    0  0.75853936324E+02  0.37127616526E+01  0.28236379932E+03  0.29239856262E+03  0.00000000000E+00 0. -1.
        -14    1    6    6    0    0  0.56007122009E+02 -0.70147851053E+02  0.49616397731E+03  0.50421841607E+03  0.00000000000E+00 0.  1.
</event>
<event>
12    1  0.1628146E-001  0.2201088E+03  0.7818608E-02  0.1136102E+00
         21   -1    0    0  501  502  0.00000000000E+00  0.00000000000E+00  0.10347101020E+03  0.10347101020E+03  0.00000000000E+00 0. -1.
         21   -1    0    0  502  503 -0.00000000000E+00 -0.00000000000E+00 -0.44488070493E+03  0.44488070493E+03  0.00000000000E+00 0. -1.
         -6    2    1    2    0  503 -0.86114055684E+02 -0.81375509913E+02 -0.19289470934E+03  0.29267086142E+03  0.18550002705E+03 0.  0.
        -24    2    3    3    0    0  0.20412307065E+02 -0.60186961402E+02 -0.12051509971E+03  0.16206566076E+03  0.87762500754E+02 0.  0.
          6    2    1    2  501    0  0.86114055684E+02  0.81375509913E+02 -0.14851498539E+03  0.25568085370E+03  0.17110930385E+03 0.  0.
         24    2    5    5    0    0  0.89329146729E+02  0.21099794645E+02 -0.34097772262E+02  0.12623245733E+03  0.79668547258E+02 0.  0.
          5    1    5    5  501    0 -0.32150910446E+01  0.60275715268E+02 -0.11441721313E+03  0.12944839636E+03  0.47000000000E+01 0. -1.
        -11    1    6    6    0    0  0.45590710039E+02 -0.26528317022E+02 -0.31665937393E+02  0.61522321452E+02  0.00000000000E+00 0.  1.
         12    1    6    6    0    0  0.43738436690E+02  0.47628111668E+02 -0.24318348695E+01  0.64710135882E+02  0.00000000000E+00 0. -1.
         -5    1    3    3    0  503 -0.10652636275E+03 -0.21188548512E+02 -0.72379609632E+02  0.13060520066E+03  0.47000000000E+01 0.  1.
         11    1    4    4    0    0 -0.34632331595E+02 -0.28419341663E+02 -0.49175683108E+02  0.66522967322E+02  0.00000000000E+00 0. -1.
        -12    1    4    4    0    0  0.55044638660E+02 -0.31767619739E+02 -0.71339416601E+02  0.95542693441E+02  0.00000000000E+00 0.  1.
</event>
<event>
12    1  0.1628146E-001  0.1832381E+03  0.7818608E-02  0.1165771E+00
         21   -1    0    0  503  502  0.00000000000E+00  0.00000000000E+00  0.83726527935E+02  0.83726527935E+02  0.00000000000E+00 0.  1.
         21   -1    0    0  501  503 -0.00000000000E+00 -0.00000000000E+00 -0.10644350933E+04  0.10644350933E+04  0.00000000000E+00 0.  1.
          6    2    1    2  501    0 -0.48276614996E+02 -0.71527613368E+00 -0.94906591838E+03  0.96659314971E+03  0.17676271225E+03 0.  0.
         24    2    3    3    0    0 -0.38139051478E+01  0.18304707243E+02 -0.86968387046E+03  0.87352171549E+03  0.79627537389E+02 0.  0.
         -6    2    1    2    0  502  0.48276614996E+02  0.71527613368E+00 -0.31642646955E+02  0.18156847150E+03  0.17214734840E+03 0.  0.
        -24    2    5    5    0    0  0.54946368748E+02  0.47016244535E+02 -0.63526195625E+02  0.12476252141E+03  0.79375553728E+02 0.  0.
          5    1    3    3  501    0 -0.44462709848E+02 -0.19019983376E+02 -0.79382047925E+02  0.93071434218E+02  0.47000000000E+01 0. -1.
        -11    1    4    4    0    0  0.27303267188E+02 -0.14140772204E+02 -0.20207093905E+03  0.20439690371E+03  0.00000000000E+00 0.  1.
         12    1    4    4    0    0 -0.31117172336E+02  0.32445479447E+02 -0.66761293141E+03  0.66912481177E+03  0.00000000000E+00 0. -1.
         -5    1    5    5    0  502 -0.66697537522E+01 -0.46300968402E+02  0.31883548671E+02  0.56805950092E+02  0.47000000000E+01 0.  1.
         11    1    6    6    0    0  0.22796968027E+02  0.61558874151E+02 -0.60627274419E+02  0.89358061424E+02  0.00000000000E+00 0. -1.
        -12    1    6    6    0    0  0.32149400721E+02 -0.14542629616E+02 -0.28989212059E+01  0.35404459988E+02  0.00000000000E+00 0.  1.
</event>
<event>
12    1  0.1628146E-001  0.2098313E+03  0.7818608E-02  0.1143074E+00
         21   -1    0    0  501  502  0.00000000000E+00  0.00000000000E+00  0.50588382013E+03  0.50588382013E+03  0.00000000000E+00 0.  1.
         21   -1    0    0  502  503 -0.00000000000E+00 -0.00000000000E+00 -0.14011891796E+03  0.14011891796E+03  0.00000000000E+00 0.  1.
         -6    2    1    2    0  503 -0.10077466498E+03 -0.64893646745E+02 -0.22909883799E+02  0.20430459735E+03  0.16385599541E+03 0.  0.
        -24    2    3    3    0    0 -0.50441061750E+01 -0.58062332580E+02 -0.37581315674E+02  0.10710198599E+03  0.81619866717E+02 0.  0.
          6    2    1    2  501    0  0.10077466498E+03  0.64893646745E+02  0.38867478597E+03  0.44169814075E+03  0.17222787174E+03 0.  0.
         24    2    5    5    0    0  0.12628318500E+03  0.52581854169E+02  0.38027356858E+03  0.41178267177E+03  0.79023335865E+02 0.  0.
          5    1    5    5  501    0 -0.25508520029E+02  0.12311792576E+02  0.84012173923E+01  0.29915468978E+02  0.47000000000E+01 0. -1.
        -13    1    6    6    0    0  0.12347421942E+02 -0.17331955576E+02  0.85609195387E+02  0.88214453734E+02  0.00000000000E+00 0.  1.
         14    1    6    6    0    0  0.11393576306E+03  0.69913809745E+02  0.29466437319E+03  0.32356821804E+03  0.00000000000E+00 0. -1.
         -5    1    3    3    0  503 -0.95730558801E+02 -0.68313141648E+01  0.14671431875E+02  0.97202611358E+02  0.47000000000E+01 0.  1.
         13    1    4    4    0    0  0.95265084059E+01 -0.35508265310E+01  0.22493003106E+02  0.24683960788E+02  0.00000000000E+00 0. -1.
        -14    1    4    4    0    0 -0.14570614581E+02 -0.54511506049E+02 -0.60074318780E+02  0.82418025200E+02  0.00000000000E+00 0.  1.
</event>
<event>
12    1  0.1628146E-001  0.1862038E+03  0.7818608E-02  0.1161958E+00
         21   -1    0    0  503  502  0.00000000000E+00  0.00000000000E+00  0.53454276915E+03  0.53454276915E+03  0.00000000000E+00 0.  1.
         21   -1    0    0  501  503 -0.00000000000E+00 -0.00000000000E+00 -0.88606801194E+02  0.88606801194E+02  0.00000000000E+00 0.  1.
          6    2    1    2  501    0  0.38334266844E+02  0.60528147791E+02  0.61488606703E+02  0.19598258622E+03  0.17174152864E+03 0.  0.
         24    2    3    3    0    0  0.65508281844E+02  0.91098054298E+02  0.68941334995E+02  0.15414265991E+03  0.80105314715E+02 0.  0.
         -6    2    1    2    0  502 -0.38334266844E+02 -0.60528147791E+02  0.38444736125E+03  0.42716698412E+03  0.17186822295E+03 0.  0.
        -24    2    5    5    0    0  0.34938450679E+02  0.18840659176E+00  0.13991785557E+03  0.16473192499E+03  0.79617020618E+02 0.  0.
          5    1    3    3  501    0 -0.27174015000E+02 -0.30569906507E+02 -0.74527282914E+01  0.41839926316E+02  0.47000000000E+01 0. -1.
        -11    1    4    4    0    0  0.79655699267E+02  0.82198231910E+02  0.40999534572E+02  0.12158347581E+03  0.00000000000E+00 0.  1.
         12    1    4    4    0    0 -0.14147417423E+02  0.88998223881E+01  0.27941800423E+02  0.32559184099E+02  0.00000000000E+00 0. -1.
         -5    1    5    5    0  502 -0.73272717523E+02 -0.60716554383E+02  0.24452950568E+03  0.26243505913E+03  0.47000000000E+01 0.  1.
         13    1    6    6    0    0 -0.73664968825E+01 -0.32592255936E+02  0.52419451757E+02  0.62163649715E+02  0.00000000000E+00 0. -1.
        -14    1    6    6    0    0  0.42304947561E+02  0.32780662528E+02  0.87498403809E+02  0.10256827528E+03  0.00000000000E+00 0.  1.
</event>
<event>
12    1  0.1628146E-001  0.1812507E+03  0.7818608E-02  0.1166659E+00
         21   -1    0    0  503  502  0.00000000000E+00  0.00000000000E+00  0.11849256859E+03  0.11849256859E+03  0.00000000000E+00 0. -1.
         21   -1    0    0  501  503 -0.00000000000E+00 -0.00000000000E+00 -0.28014735914E+03  0.28014735914E+03  0.00000000000E+00 0. -1.
          6    2    1    2  501    0 -0.12296401903E+00 -0.56679158132E+02 -0.10246689778E+03  0.20820973196E+03  0.17216063794E+03 0.  0.
         24    2    3    3    0    0 -0.33316876188E+02 -0.15332839318E+02 -0.12305292977E+03  0.15113759692E+03  0.79721010261E+02 0.  0.
         -6    2    1    2    0  502  0.12296401903E+00  0.56679158132E+02 -0.59187892775E+02  0.19043019577E+03  0.17189505729E+03 0.  0.
        -24    2    5    5    0    0 -0.18391817813E+02  0.14930163100E+02 -0.96262383464E+02  0.13141847157E+03  0.86273979087E+02 0.  0.
          5    1    3    3  501    0  0.33193912169E+02 -0.41346318815E+02  0.20586031993E+02  0.57072135038E+02  0.47000000000E+01 0. -1.
        -11    1    4    4    0    0  0.18223993864E+02 -0.15876041859E+02 -0.86697437854E+01  0.25677365807E+02  0.00000000000E+00 0.  1.
         12    1    4    4    0    0 -0.51540870052E+02  0.54320254169E+00 -0.11438318599E+03  0.12546023111E+03  0.00000000000E+00 0. -1.
         -5    1    5    5    0  502  0.18514781832E+02  0.41748995032E+02  0.37074490690E+02  0.59011724194E+02  0.47000000000E+01 0.  1.
         11    1    6    6    0    0  0.29228980945E+02  0.85302839241E+01 -0.70733693378E+02  0.77008794626E+02  0.00000000000E+00 0. -1.
        -12    1    6    6    0    0 -0.47620798758E+02  0.63998791757E+01 -0.25528690087E+02  0.54409676946E+02  0.00000000000E+00 0.  1.
</event>
<event>
12    1  0.1628146E-001  0.2063908E+03  0.7818608E-02  0.1144541E+00
         21   -1    0    0  501  502  0.00000000000E+00  0.00000000000E+00  0.37054891091E+03  0.37054891091E+03  0.00000000000E+00 0. -1.
         21   -1    0    0  502  503 -0.00000000000E+00 -0.00000000000E+00 -0.11892210784E+03  0.11892210784E+03  0.00000000000E+00 0. -1.
         -6    2    1    2    0  503  0.52425070515E+02 -0.10072872670E+03  0.17190963658E+03  0.26860768480E+03  0.17234413474E+03 0.  0.
        -24    2    3    3    0    0  0.96791674191E+02 -0.53426788521E+02  0.13121780959E+03  0.19190185933E+03  0.85936954415E+02 0.  0.
          6    2    1    2  501    0 -0.52425070515E+02  0.10072872670E+03  0.79717166494E+02  0.22086333396E+03  0.17184621396E+03 0.  0.
         24    2    5    5    0    0  0.32957496680E+02  0.74762488279E+02  0.61963745206E+02  0.12974965614E+03  0.79497429561E+02 0.  0.
          5    1    5    5  501    0 -0.85382567195E+02  0.25966238420E+02  0.17753421288E+02  0.91113677820E+02  0.47000000000E+01 0. -1.
        -13    1    6    6    0    0  0.23855483502E+02  0.71181550273E+01 -0.13235165169E+02  0.28194357967E+02  0.00000000000E+00 0.  1.
         14    1    6    6    0    0  0.91020131781E+01  0.67644333252E+02  0.75198910375E+02  0.10155529817E+03  0.00000000000E+00 0. -1.
         -5    1    3    3    0  503 -0.44366603676E+02 -0.47301938179E+02  0.40691826989E+02  0.76705825470E+02  0.47000000000E+01 0.  1.
         13    1    4    4    0    0  0.76653396357E+02 -0.71803121137E+02  0.73878168690E+02  0.12841111785E+03  0.00000000000E+00 0. -1.
        -14    1    4    4    0    0  0.20138277834E+02  0.18376332616E+02  0.57339640902E+02  0.63490741477E+02  0.00000000000E+00 0.  1.
</event>
<event>
12    1  0.1628146E-001  0.2083301E+03  0.7818608E-02  0.1143396E+00
         21   -1    0    0  503  502  0.00000000000E+00  0.00000000000E+00  0.27259626066E+03  0.27259626066E+03  0.00000000000E+00 0. -1.
         21   -1    0    0  501  503 -0.00000000000E+00 -0.00000000000E+00 -0.15917194758E+03  0.15917194758E+03  0.00000000000E+00 0.  1.
          6    2    1    2  501    0 -0.98357292213E+02  0.62017598496E+02  0.33084853625E+02  0.20848397518E+03  0.16985470530E+03 0.  0.
         24    2    3    3    0    0 -0.87199094216E+02  0.47196280775E+02 -0.37492053213E+02  0.13535828462E+03  0.84172680900E+02 0.  0.
         -6    2    1    2    0  502  0.98357292213E+02 -0.62017598496E+02  0.80339459458E+02  0.22328423306E+03  0.17286144895E+03 0.  0.
        -24    2    5    5    0    0  0.12843983920E+03 -0.80406129890E+02  0.78412903398E+02  0.18766261970E+03  0.78145616612E+02 0.  0.
          5    1    3    3  501    0 -0.11158197997E+02  0.14821317721E+02  0.70576906838E+02  0.73125690563E+02  0.47000000000E+01 0. -1.
        -11    1    4    4    0    0  0.12083778482E+02  0.18648758731E+02  0.63853492250E+01  0.23120696126E+02  0.00000000000E+00 0.  1.
         12    1    4    4    0    0 -0.99282872698E+02  0.28547522044E+02 -0.43877402438E+02  0.11223758849E+03  0.00000000000E+00 0. -1.
         -5    1    5    5    0  502 -0.30082546986E+02  0.18388531394E+02  0.19265560606E+01  0.35621613358E+02  0.47000000000E+01 0.  1.
         13    1    6    6    0    0  0.12618912784E+02 -0.48722900612E+02  0.25936418829E+02  0.56620277512E+02  0.00000000000E+00 0. -1.
        -14    1    6    6    0    0  0.11582092642E+03 -0.31683229279E+02  0.52476484568E+02  0.13104234219E+03  0.00000000000E+00 0.  1.
</event>
<event>
12    1  0.1628146E-001  0.1844909E+03  0.7818608E-02  0.1163988E+00
         21   -1    0    0  503  502  0.00000000000E+00  0.00000000000E+00  0.94989029820E+03  0.94989029820E+03  0.00000000000E+00 0. -1.
         21   -1    0    0  501  503 -0.00000000000E+00 -0.00000000000E+00 -0.49447618352E+02  0.49447618352E+02  0.00000000000E+00 0.  1.
          6    2    1    2  501    0 -0.47873322774E+02 -0.58811574569E+02  0.18267858770E+03  0.25824265269E+03  0.16603356566E+03 0.  0.
         24    2    3    3    0    0 -0.66096030061E+02  0.26518715564E+01  0.15867400853E+03  0.18962682294E+03  0.80032327113E+02 0.  0.
         -6    2    1    2    0  502  0.47873322774E+02  0.58811574569E+02  0.71776409215E+03  0.74109526387E+03  0.16818514147E+03 0.  0.
        -24    2    5    5    0    0 -0.13131681014E+02  0.20725866441E+02  0.57709348719E+03  0.58303691784E+03  0.79329389356E+02 0.  0.
          5    1    3    3  501    0  0.18222707287E+02 -0.61463446126E+02  0.24004579172E+02  0.68615829746E+02  0.47000000000E+01 0. -1.
        -13    1    4    4    0    0 -0.55666468179E+01 -0.12171018517E+02 -0.51578049276E+01  0.14343088936E+02  0.00000000000E+00 0.  1.
         14    1    4    4    0    0 -0.60529383244E+02  0.14822890074E+02  0.16383181346E+03  0.17528373401E+03  0.00000000000E+00 0. -1.
         -5    1    5    5    0  502  0.61005003788E+02  0.38085708128E+02  0.14067060496E+03  0.15805834603E+03  0.47000000000E+01 0.  1.
         11    1    6    6    0    0 -0.26812274178E+02  0.41578899043E+02  0.24136626000E+03  0.24638460658E+03  0.00000000000E+00 0. -1.
        -12    1    6    6    0    0  0.13680593164E+02 -0.20853032602E+02  0.33572722719E+03  0.33665231126E+03  0.00000000000E+00 0.  1.
</event>
<event>
12    1  0.1628146E-001  0.2296616E+03  0.7818608E-02  0.1127006E+00
         21   -1    0    0  501  502  0.00000000000E+00  0.00000000000E+00  0.60046731350E+03  0.60046731350E+03  0.00000000000E+00 0. -1.
         21   -1    0    0  502  503 -0.00000000000E+00 -0.00000000000E+00 -0.99394343552E+02  0.99394343552E+02  0.00000000000E+00 0. -1.
         -6    2    1    2    0  503 -0.80593355081E+02 -0.12955446298E+03  0.13015382556E+03  0.26397813002E+03  0.17165310093E+03 0.  0.
        -24    2    3    3    0    0 -0.73278789334E+01 -0.11341067545E+03  0.13040488091E+03  0.18880762450E+03  0.75678312538E+02 0.  0.
          6    2    1    2  501    0  0.80593355081E+02  0.12955446298E+03  0.37091914439E+03  0.43588352703E+03  0.17068623173E+03 0.  0.
         24    2    5    5    0    0  0.99073052002E+02  0.46048850322E+02  0.16860078706E+03  0.21618033121E+03  0.79823204362E+02 0.  0.
          5    1    5    5  501    0 -0.18479696921E+02  0.83505612662E+02  0.20231835733E+03  0.21970319583E+03  0.47000000000E+01 0. -1.
        -11    1    6    6    0    0  0.47022133546E+02 -0.10402934406E+02  0.27287390306E+02  0.55352540657E+02  0.00000000000E+00 0.  1.
         12    1    6    6    0    0  0.52050918456E+02  0.56451784728E+02  0.14131339675E+03  0.16082779055E+03  0.00000000000E+00 0. -1.
         -5    1    3    3    0  503 -0.73265476148E+02 -0.16143787534E+02 -0.25105535004E+00  0.75170505518E+02  0.47000000000E+01 0.  1.
         13    1    4    4    0    0 -0.27024045132E+02 -0.90927803312E+02  0.12730104389E+03  0.15875679578E+03  0.00000000000E+00 0. -1.
        -14    1    4    4    0    0  0.19696166199E+02 -0.22482872138E+02  0.31038370170E+01  0.30050828720E+02  0.00000000000E+00 0.  1.
</event>
<event>
12    1  0.1628146E-001  0.1807540E+03  0.7818608E-02  0.1168543E+00
         21   -1    0    0  503  502  0.00000000000E+00  0.00000000000E+00  0.14195633017E+03  0.14195633017E+03  0.00000000000E+00 0.  1.
         21   -1    0    0  501  503 -0.00000000000E+00 -0.00000000000E+00 -0.27058568606E+03  0.27058568606E+03  0.00000000000E+00 0.  1.
          6    2    1    2  501    0 -0.48518071548E+02  0.27584643778E+02 -0.15206797900E+03  0.23621319398E+03  0.17192174655E+03 0.  0.
         24    2    3    3    0    0 -0.32753898298E+02 -0.49585312405E+02 -0.65519375737E+02  0.11909589372E+03  0.79746612737E+02 0.  0.
         -6    2    1    2    0  502  0.48518071548E+02 -0.27584643778E+02  0.23438623107E+02  0.17632882224E+03  0.16561270682E+03 0.  0.
        -24    2    5    5    0    0 -0.35162593560E+02 -0.16115824242E+02 -0.39465244112E+00  0.88441948606E+02  0.79534236312E+02 0.  0.
          5    1    3    3  501    0 -0.15764173250E+02  0.77169956182E+02 -0.86548603259E+02  0.11711730027E+03  0.47000000000E+01 0. -1.
        -11    1    4    4    0    0 -0.14770305259E+02 -0.60068953199E+01  0.17469013846E+02  0.23651874208E+02  0.00000000000E+00 0.  1.
         12    1    4    4    0    0 -0.17983593039E+02 -0.43578417085E+02 -0.82988389583E+02  0.95444019508E+02  0.00000000000E+00 0. -1.
         -5    1    5    5    0  502  0.83680665108E+02 -0.11468819535E+02  0.23833275548E+02  0.87886873637E+02  0.47000000000E+01 0.  1.
         13    1    6    6    0    0 -0.46350441459E+02  0.19720116824E+02  0.45491030122E+01  0.50576088907E+02  0.00000000000E+00 0. -1.
        -14    1    6    6    0    0  0.11187847899E+02 -0.35835941066E+02 -0.49437554534E+01  0.37865859698E+02  0.00000000000E+00 0.  1.
</event>
<event>
12    1  0.1628146E-001  0.1778623E+03  0.7818608E-02  0.1169931E+00
         21   -1    0    0  501  502  0.00000000000E+00  0.00000000000E+00  0.62523685118E+03  0.62523685118E+03  0.00000000000E+00 0.  1.
         21   -1    0    0  502  503 -0.00000000000E+00 -0.00000000000E+00 -0.89811817897E+02  0.89811817897E+02  0.00000000000E+00 0.  1.
         -6    2    1    2    0  503  0.98859308641E+01  0.43149102084E+02  0.31245000730E+02  0.18041561912E+03  0.17208709688E+03 0.  0.
        -24    2    3    3    0    0 -0.41964564392E+02 -0.23426366008E+02  0.55686653483E+01  0.92085946823E+02  0.78351721612E+02 0.  0.
          6    2    1    2  501    0 -0.98859308641E+01 -0.43149102084E+02  0.50418003256E+03  0.53463304996E+03  0.17226553990E+03 0.  0.
         24    2    5    5    0    0 -0.85362257379E+01 -0.78728934048E+02  0.47475395926E+03  0.48820321110E+03  0.81730907797E+02 0.  0.
          5    1    5    5  501    0 -0.13497051262E+01  0.35579831964E+02  0.29426073295E+02  0.46429838855E+02  0.47000000000E+01 0. -1.
        -11    1    6    6    0    0  0.69268096169E+01 -0.65106171268E+02  0.16143027843E+03  0.17420255171E+03  0.00000000000E+00 0.  1.
         12    1    6    6    0    0 -0.15463035355E+02 -0.13622762780E+02  0.31332368083E+03  0.31400065939E+03  0.00000000000E+00 0. -1.
         -5    1    3    3    0  503  0.51850495257E+02  0.66575468092E+02  0.25676335381E+02  0.88329672300E+02  0.47000000000E+01 0.  1.
         11    1    4    4    0    0 -0.30903650137E+01 -0.38384719437E+02 -0.19815156983E+02  0.43307937938E+02  0.00000000000E+00 0. -1.
        -12    1    4    4    0    0 -0.38874199379E+02  0.14958353429E+02  0.25383822331E+02  0.48778008885E+02  0.00000000000E+00 0.  1.
</event>
<event>
12    1  0.1628146E-001  0.3335676E+03  0.7818608E-02  0.1069593E+00
         21   -1    0    0  503  502  0.00000000000E+00  0.00000000000E+00  0.24700059388E+03  0.24700059388E+03  0.00000000000E+00 0.  1.
         21   -1    0    0  501  503 -0.00000000000E+00 -0.00000000000E+00 -0.45295033542E+03  0.45295033542E+03  0.00000000000E+00 0. -1.
          6    2    1    2  501    0 -0.25953327752E+03  0.11919998331E+03 -0.75628433084E+02  0.34203365815E+03  0.17234037615E+03 0.  0.
         24    2    3    3    0    0 -0.18484458840E+03  0.14748622261E+03 -0.37807086288E+02  0.25354040479E+03  0.83268561683E+02 0.  0.
         -6    2    1    2    0  502  0.25953327752E+03 -0.11919998331E+03 -0.13032130845E+03  0.35791727115E+03  0.17191559379E+03 0.  0.
        -24    2    5    5    0    0  0.16925998544E+03 -0.87034943164E+02 -0.15587801045E+03  0.25862431023E+03  0.79778165545E+02 0.  0.
          5    1    3    3  501    0 -0.74688689119E+02 -0.28286239302E+02 -0.37821346796E+02  0.88493253357E+02  0.47000000000E+01 0. -1.
        -13    1    4    4    0    0 -0.62308680873E+02  0.92864811909E+02 -0.41626655107E+02  0.11932737917E+03  0.00000000000E+00 0.  1.
         14    1    4    4    0    0 -0.12253590753E+03  0.54621410705E+02  0.38195688188E+01  0.13421302562E+03  0.00000000000E+00 0. -1.
         -5    1    5    5    0  502  0.90273292078E+02 -0.32165040148E+02  0.25556702002E+02  0.99292960916E+02  0.47000000000E+01 0.  1.
         11    1    6    6    0    0  0.60977980727E+01  0.36375646681E+00 -0.39528221080E+02  0.39997446442E+02  0.00000000000E+00 0. -1.
        -12    1    6    6    0    0  0.16316218737E+03 -0.87398699631E+02 -0.11634978937E+03  0.21862686379E+03  0.00000000000E+00 0.  1.
</event>
<event>
12    1  0.1628146E-001  0.1880403E+03  0.7818608E-02  0.1161976E+00
         21   -1    0    0  501  502  0.00000000000E+00  0.00000000000E+00  0.37975337187E+03  0.37975337187E+03  0.00000000000E+00 0.  1.
         21   -1    0    0  502  503 -0.00000000000E+00 -0.00000000000E+00 -0.13544031909E+03  0.13544031909E+03  0.00000000000E+00 0. -1.
         -6    2    1    2    0  503  0.78166414578E+02  0.12952843197E+02  0.27058612508E+03  0.32532677333E+03  0.16230494090E+03 0.  0.
        -24    2    3    3    0    0  0.99611784887E+02 -0.31058443241E+02  0.18044239084E+03  0.22263850689E+03  0.78238825092E+02 0.  0.
          6    2    1    2  501    0 -0.78166414578E+02 -0.12952843197E+02 -0.26273072297E+02  0.18986691763E+03  0.17053271701E+03 0.  0.
         24    2    5    5    0    0 -0.57097452835E+01 -0.53426618991E+02  0.14050626644E+02  0.97475434538E+02  0.80106400626E+02 0.  0.
          5    1    5    5  501    0 -0.72456669295E+02  0.40473775795E+02 -0.40323698941E+02  0.92391483096E+02  0.47000000000E+01 0. -1.
        -13    1    6    6    0    0 -0.23346264727E+02 -0.60627171432E+02  0.30993467417E+02  0.71981226824E+02  0.00000000000E+00 0.  1.
         14    1    6    6    0    0  0.17636519443E+02  0.72005524408E+01 -0.16942840773E+02  0.25494207714E+02  0.00000000000E+00 0. -1.
         -5    1    3    3    0  503 -0.21445370309E+02  0.44011286437E+02  0.90143734239E+02  0.10268826644E+03  0.47000000000E+01 0.  1.
         11    1    4    4    0    0  0.82652826493E+02  0.13278620783E+01  0.77168805150E+02  0.11308526621E+03  0.00000000000E+00 0. -1.
        -12    1    4    4    0    0  0.16958958394E+02 -0.32386305319E+02  0.10327358569E+03  0.10955324068E+03  0.00000000000E+00 0.  1.
</event>
<event>
12    1  0.1628146E-001  0.2474385E+03  0.7818608E-02  0.1114968E+00
         21   -1    0    0  501  502  0.00000000000E+00  0.00000000000E+00  0.24298274452E+03  0.24298274452E+03  0.00000000000E+00 0. -1.
         21   -1    0    0  502  503 -0.00000000000E+00 -0.00000000000E+00 -0.43828598520E+03  0.43828598520E+03  0.00000000000E+00 0.  1.
         -6    2    1    2    0  503  0.26987813463E+02  0.17576603742E+03 -0.31984521880E+03  0.40425512916E+03  0.17175332159E+03 0.  0.
        -24    2    3    3    0    0 -0.22312319897E+02  0.40450840209E+02 -0.18025880882E+03  0.20363817674E+03  0.82711297764E+02 0.  0.
          6    2    1    2  501    0 -0.26987813463E+02 -0.17576603742E+03  0.12454197812E+03  0.27701360056E+03  0.17205751537E+03 0.  0.
         24    2    5    5    0    0 -0.18439212503E+02 -0.14718480502E+02  0.23803430007E+02  0.86803876196E+02  0.80072913127E+02 0.  0.
          5    1    5    5  501    0 -0.85486009604E+01 -0.16104755692E+03  0.10073854812E+03  0.19020972437E+03  0.47000000000E+01 0. -1.
        -11    1    6    6    0    0 -0.41951989146E+02 -0.13181802604E+02  0.38990545284E+02  0.58770672403E+02  0.00000000000E+00 0.  1.
         12    1    6    6    0    0  0.23512776643E+02 -0.15366778987E+01 -0.15187115277E+02  0.28033203793E+02  0.00000000000E+00 0. -1.
         -5    1    3    3    0  503  0.49300133360E+02  0.13531519721E+03 -0.13958640998E+03  0.20061695241E+03  0.47000000000E+01 0.  1.
         11    1    4    4    0    0 -0.15422135850E+01 -0.25271153346E+02 -0.39641849930E+02  0.47037069211E+02  0.00000000000E+00 0. -1.
        -12    1    4    4    0    0 -0.20770106312E+02  0.65721993554E+02 -0.14061695889E+03  0.15660110753E+03  0.00000000000E+00 0.  1.
</event>
<event>
12    1  0.1628146E-001  0.3387786E+03  0.7818608E-02  0.1068096E+00
         21   -1    0    0  503  502  0.00000000000E+00  0.00000000000E+00  0.77825054152E+03  0.77825054152E+03  0.00000000000E+00 0. -1.
         21   -1    0    0  501  503 -0.00000000000E+00 -0.00000000000E+00 -0.15287323815E+03  0.15287323815E+03  0.00000000000E+00 0.  1.
          6    2    1    2  501    0 -0.21063566396E+03 -0.18871822053E+03  0.19963792154E+03  0.38704199007E+03  0.17310185634E+03 0.  0.
         24    2    3    3    0    0 -0.31833180473E+02 -0.29214939686E+02  0.74838149036E+02  0.11684077260E+03  0.78639389060E+02 0.  0.
         -6    2    1    2    0  502  0.21063566396E+03  0.18871822053E+03  0.42573938183E+03  0.54408178960E+03  0.18651815685E+03 0.  0.
        -24    2    5    5    0    0  0.69493254551E+02  0.72938099974E+01  0.16226135319E+03  0.19439799236E+03  0.81113011303E+02 0.  0.
          5    1    3    3  501    0 -0.17880248349E+03 -0.15950328085E+03  0.12479977250E+03  0.27020121747E+03  0.47000000000E+01 0. -1.
        -11    1    4    4    0    0 -0.17756407484E+02  0.11501564512E+02 -0.86788362836E+01  0.22866967271E+02  0.00000000000E+00 0.  1.
         12    1    4    4    0    0 -0.14076772989E+02 -0.40716504198E+02  0.83516985319E+02  0.93973805333E+02  0.00000000000E+00 0. -1.
         -5    1    5    5    0  502  0.14114240941E+03  0.18142441054E+03  0.26347802864E+03  0.34968379724E+03  0.47000000000E+01 0.  1.
         11    1    6    6    0    0  0.17076821075E+02  0.41206301651E+02  0.69696397427E+02  0.82747597718E+02  0.00000000000E+00 0. -1.
        -12    1    6    6    0    0  0.52416433476E+02 -0.33912491654E+02  0.92564955761E+02  0.11165039464E+03  0.00000000000E+00 0.  1.
</event>
<event>
12    1  0.1628146E-001  0.1906316E+03  0.7818608E-02  0.1158325E+00
         21   -1    0    0  501  502  0.00000000000E+00  0.00000000000E+00  0.59519027080E+02  0.59519027080E+02  0.00000000000E+00 0.  1.
         21   -1    0    0  502  503 -0.00000000000E+00 -0.00000000000E+00 -0.61530899865E+03  0.61530899865E+03  0.00000000000E+00 0.  1.
         -6    2    1    2    0  503  0.65253831431E+02  0.48501875174E+02 -0.32408740115E+03  0.37599608378E+03  0.17242365562E+03 0.  0.
        -24    2    3    3    0    0  0.30644807845E+02  0.87090160993E+02 -0.16441502489E+03  0.20805502847E+03  0.87924934304E+02 0.  0.
          6    2    1    2  501    0 -0.65253831431E+02 -0.48501875174E+02 -0.23170257042E+03  0.29883194195E+03  0.17030547255E+03 0.  0.
         24    2    5    5    0    0 -0.18535216201E+02 -0.89634572312E+02 -0.16341753437E+03  0.20631457098E+03  0.86501450092E+02 0.  0.
          5    1    5    5  501    0 -0.46718615230E+02  0.41132697138E+02 -0.68285036051E+02  0.92517370970E+02  0.47000000000E+01 0. -1.
        -11    1    6    6    0    0  0.33467370903E+02 -0.21288143540E+02 -0.44240490251E+02  0.59417766267E+02  0.00000000000E+00 0.  1.
         12    1    6    6    0    0 -0.52002587104E+02 -0.68346428773E+02 -0.11917704412E+03  0.14689680472E+03  0.00000000000E+00 0. -1.
         -5    1    3    3    0  503  0.34609023586E+02 -0.38588285819E+02 -0.15967237627E+03  0.16794105531E+03  0.47000000000E+01 0.  1.
         11    1    4    4    0    0  0.23790651190E+02  0.65249010416E+02 -0.37179252406E+02  0.78776425749E+02  0.00000000000E+00 0. -1.
        -12    1    4    4    0    0  0.68541566554E+01  0.21841150577E+02 -0.12723577248E+03  0.12927860272E+03  0.00000000000E+00 0.  1.
</event>
<event>
12    1  0.1628146E-001  0.3558378E+03  0.7818608E-02  0.1060331E+00
         21   -1    0    0  503  502  0.00000000000E+00  0.00000000000E+00  0.32042042889E+03  0.32042042889E+03  0.00000000000E+00 0.  1.
         21   -1    0    0  501  503 -0.00000000000E+00 -0.00000000000E+00 -0.49118320438E+03  0.49118320438E+03  0.00000000000E+00 0. -1.
          6    2    1    2  501    0  0.11077119289E+03 -0.29065767347E+03  0.94843436495E+02  0.36826056752E+03  0.17282484725E+03 0.  0.
         24    2    3    3    0    0  0.12357410739E+02 -0.17835848373E+03  0.97584560109E+02  0.21884174577E+03  0.80028176313E+02 0.  0.
         -6    2    1    2    0  502 -0.11077119289E+03  0.29065767347E+03 -0.26560621199E+03  0.44334306575E+03  0.17103880780E+03 0.  0.
        -24    2    5    5    0    0 -0.96341063383E+02  0.25796379115E+03 -0.28321767254E+03  0.40322608528E+03  0.80945091117E+02 0.  0.
          5    1    3    3  501    0  0.98413782155E+02 -0.11229918974E+03 -0.27411236143E+01  0.14941882175E+03  0.47000000000E+01 0. -1.
        -13    1    4    4    0    0  0.32761181728E+02 -0.16998190688E+03  0.80341400799E+02  0.19084518432E+03  0.00000000000E+00 0.  1.
         14    1    4    4    0    0 -0.20403770989E+02 -0.83765768437E+01  0.17243159311E+02  0.27996561453E+02  0.00000000000E+00 0. -1.
         -5    1    5    5    0  502 -0.14430129510E+02  0.32693882321E+02  0.17611460548E+02  0.40116980464E+02  0.47000000000E+01 0.  1.
         11    1    6    6    0    0 -0.11046536411E+03  0.23562176819E+03 -0.25101039695E+03  0.36156110644E+03  0.00000000000E+00 0. -1.
        -12    1    6    6    0    0  0.14124300728E+02  0.22342022955E+02 -0.32207275596E+02  0.41664978844E+02  0.00000000000E+00 0.  1.
</event>
<event>
12    1  0.1628146E-001  0.1923616E+03  0.7818608E-02  0.1156563E+00
         21   -1    0    0  501  502  0.00000000000E+00  0.00000000000E+00  0.91228791201E+03  0.91228791201E+03  0.00000000000E+00 0.  1.
         21   -1    0    0  502  503 -0.00000000000E+00 -0.00000000000E+00 -0.43248684569E+02  0.43248684569E+02  0.00000000000E+00 0.  1.
         -6    2    1    2    0  503 -0.52410192943E+02  0.67247342868E+02  0.30996196058E+03  0.36429183400E+03  0.17135661605E+03 0.  0.
        -24    2    3    3    0    0 -0.18761650286E+01  0.76448763108E+02  0.28809942321E+03  0.30827027876E+03  0.78621585683E+02 0.  0.
          6    2    1    2  501    0  0.52410192943E+02 -0.67247342868E+02  0.55907726685E+03  0.59124476257E+03  0.17243533719E+03 0.  0.
         24    2    5    5    0    0  0.69468913165E+02 -0.65175358545E+02  0.22136279104E+03  0.25306071471E+03  0.77230064191E+02 0.  0.
          5    1    5    5  501    0 -0.17058720222E+02 -0.20719843230E+01  0.33771447581E+03  0.33818404786E+03  0.47000000000E+01 0. -1.
        -11    1    6    6    0    0  0.83919838732E+02 -0.44737931810E+02  0.19349534579E+03  0.21560257586E+03  0.00000000000E+00 0.  1.
         12    1    6    6    0    0 -0.14450925567E+02 -0.20437426735E+02  0.27867445249E+02  0.37458138849E+02  0.00000000000E+00 0. -1.
         -5    1    3    3    0  503 -0.50534027915E+02 -0.92014202393E+01  0.21862537374E+02  0.56021555246E+02  0.47000000000E+01 0.  1.
         11    1    4    4    0    0  0.24570425522E+02  0.89765045215E+01  0.28236433348E+02  0.38491292677E+02  0.00000000000E+00 0. -1.
        -12    1    4    4    0    0 -0.26446590550E+02  0.67472258586E+02  0.25986298986E+03  0.26977898608E+03  0.00000000000E+00 0.  1.
</event>
<event>
12    1  0.1628146E-001  0.1793729E+03  0.7818608E-02  0.1168475E+00
         21   -1    0    0  501  502  0.00000000000E+00  0.00000000000E+00  0.10138338286E+04  0.10138338286E+04  0.00000000000E+00 0.  1.
         21   -1    0    0  502  503 -0.00000000000E+00 -0.00000000000E+00 -0.55846369695E+02  0.55846369695E+02  0.00000000000E+00 0.  1.
         -6    2    1    2    0  503 -0.52703173779E+02 -0.78892730848E+01  0.12743034210E+03  0.22002987295E+03  0.17127401363E+03 0.  0.
        -24    2    3    3    0    0 -0.52090954052E+02 -0.32189972907E+02  0.10537132463E+02  0.10054342483E+03  0.79046108482E+02 0.  0.
          6    2    1    2  501    0  0.52703173779E+02  0.78892730848E+01  0.83055711685E+03  0.84965032539E+03  0.17099908167E+03 0.  0.
         24    2    5    5    0    0  0.59510883242E+02 -0.22143741412E+02  0.28217184570E+03  0.30038097208E+03  0.81091845313E+02 0.  0.
          5    1    5    5  501    0 -0.68077094637E+01  0.30033014496E+02  0.54838527116E+03  0.54926935331E+03  0.47000000000E+01 0. -1.
        -13    1    6    6    0    0  0.72423947437E+02 -0.17901458356E+02  0.27514543769E+03  0.28508016812E+03  0.00000000000E+00 0.  1.
         14    1    6    6    0    0 -0.12913064195E+02 -0.42422830559E+01  0.70264080104E+01  0.15300803964E+02  0.00000000000E+00 0. -1.
         -5    1    3    3    0  503 -0.61221972677E+00  0.24300699822E+02  0.11689320963E+03  0.11948644812E+03  0.47000000000E+01 0.  1.
         11    1    4    4    0    0  0.19834970897E+02 -0.65456061310E+01 -0.73017489747E+01  0.22126603178E+02  0.00000000000E+00 0. -1.
        -12    1    4    4    0    0 -0.71925924949E+02 -0.25644366776E+02  0.17838881438E+02  0.78416821652E+02  0.00000000000E+00 0.  1.
</event>
<event>
12    1  0.1628146E-001  0.1821055E+03  0.7818608E-02  0.1166175E+00
         21   -1    0    0  501  502  0.00000000000E+00  0.00000000000E+00  0.59556827350E+03  0.59556827350E+03  0.00000000000E+00 0. -1.
         21   -1    0    0  502  503 -0.00000000000E+00 -0.00000000000E+00 -0.98748762650E+02  0.98748762650E+02  0.00000000000E+00 0. -1.
         -6    2    1    2    0  503 -0.55164616191E+02 -0.54692046831E+01  0.17184343850E+02  0.18127481681E+03  0.17173296264E+03 0.  0.
        -24    2    3    3    0    0  0.17173186256E+02 -0.42246554976E+02 -0.16145646529E+02  0.93420907301E+02  0.79919298580E+02 0.  0.
          6    2    1    2  501    0  0.55164616191E+02  0.54692046831E+01  0.47963516700E+03  0.51304221934E+03  0.17346290186E+03 0.  0.
         24    2    5    5    0    0  0.79058566741E+02  0.54964985787E+02  0.36990251468E+03  0.39022488259E+03  0.78588688702E+02 0.  0.
          5    1    5    5  501    0 -0.23893950550E+02 -0.49495781104E+02  0.10973265232E+03  0.12281733675E+03  0.47000000000E+01 0. -1.
        -13    1    6    6    0    0 -0.95904705934E+01  0.17520132686E+02  0.24198808014E+02  0.31376973800E+02  0.00000000000E+00 0.  1.
         14    1    6    6    0    0  0.88649037334E+02  0.37444853101E+02  0.34570370666E+03  0.35884790879E+03  0.00000000000E+00 0. -1.
         -5    1    3    3    0  503 -0.72337802447E+02  0.36777350293E+02  0.33329990379E+02  0.87853909510E+02  0.47000000000E+01 0.  1.
         13    1    4    4    0    0  0.25076404082E+02 -0.15345188873E+02 -0.44636001642E+02  0.53447857822E+02  0.00000000000E+00 0. -1.
        -14    1    4    4    0    0 -0.79032178256E+01 -0.26901366103E+02  0.28490355112E+02  0.39973049479E+02  0.00000000000E+00 0.  1.
</event>
<event>
12    1  0.1628146E-001  0.1882917E+03  0.7818608E-02  0.1160838E+00
         21   -1    0    0  503  502  0.00000000000E+00  0.00000000000E+00  0.11100209015E+04  0.11100209015E+04  0.00000000000E+00 0.  1.
         21   -1    0    0  501  503 -0.00000000000E+00 -0.00000000000E+00 -0.80558334314E+02  0.80558334314E+02  0.00000000000E+00 0. -1.
          6    2    1    2  501    0  0.75704542446E+02  0.17053776299E+02  0.47482731237E+02  0.19071015447E+03  0.16761188568E+03 0.  0.
         24    2    3    3    0    0  0.44763378001E+02 -0.36135740774E+02  0.74515690008E+02  0.12333544673E+03  0.79683703421E+02 0.  0.
         -6    2    1    2    0  502 -0.75704542446E+02 -0.17053776299E+02  0.98197983594E+03  0.99986908133E+03  0.17155690770E+03 0.  0.
        -24    2    5    5    0    0 -0.50044852240E+02  0.29131330230E+02  0.29738901237E+03  0.31322640170E+03  0.79482277341E+02 0.  0.
          5    1    3    3  501    0  0.30941164445E+02  0.53189517073E+02 -0.27032958771E+02  0.67374707744E+02  0.47000000000E+01 0. -1.
        -13    1    4    4    0    0  0.13193097114E+02 -0.52059062380E+02  0.17945015212E+02  0.56623558333E+02  0.00000000000E+00 0.  1.
         14    1    4    4    0    0  0.31570280887E+02  0.15923321606E+02  0.56570674796E+02  0.66711888394E+02  0.00000000000E+00 0. -1.
         -5    1    5    5    0  502 -0.25659690206E+02 -0.46185106529E+02  0.68459082357E+03  0.68664267963E+03  0.47000000000E+01 0.  1.
         11    1    6    6    0    0 -0.35524863246E+02 -0.85268860627E+01  0.46617096131E+02  0.59227336140E+02  0.00000000000E+00 0. -1.
        -12    1    6    6    0    0 -0.14519988993E+02  0.37658216292E+02  0.25077191623E+03  0.25399906556E+03  0.00000000000E+00 0.  1.
</event>
<event>
12    1  0.1628146E-001  0.1898299E+03  0.7818608E-02  0.1159030E+00
         21   -1    0    0  503  502  0.00000000000E+00  0.00000000000E+00  0.16402369471E+03  0.16402369471E+03  0.00000000000E+00 0. -1.
         21   -1    0    0  501  503 -0.00000000000E+00 -0.00000000000E+00 -0.22241699376E+03  0.22241699376E+03  0.00000000000E+00 0.  1.
          6    2    1    2  501    0  0.84471033605E+01 -0.78633013753E+02 -0.57810659765E+02  0.19843750768E+03  0.17257134080E+03 0.  0.
         24    2    3    3    0    0  0.10034510986E+02 -0.65321197589E+02  0.31301058621E+02  0.10820052709E+03  0.79749906123E+02 0.  0.
         -6    2    1    2    0  502 -0.84471033605E+01  0.78633013753E+02 -0.58263928309E+00  0.18800318078E+03  0.17055894028E+03 0.  0.
        -24    2    5    5    0    0  0.11605962499E+02  0.38803485725E+02  0.64999546944E+02  0.10855741372E+03  0.76937390788E+02 0.  0.
          5    1    3    3  501    0 -0.15874076255E+01 -0.13311816164E+02 -0.89111718387E+02  0.90236980592E+02  0.47000000000E+01 0. -1.
        -13    1    4    4    0    0  0.35967022778E+02 -0.61692047433E+02  0.57944506717E+01  0.71645733317E+02  0.00000000000E+00 0.  1.
         14    1    4    4    0    0 -0.25932511792E+02 -0.36291501562E+01  0.25506607949E+02  0.36554793773E+02  0.00000000000E+00 0. -1.
         -5    1    5    5    0  502 -0.20053065860E+02  0.39829528028E+02 -0.65582186228E+02  0.79445767060E+02  0.47000000000E+01 0.  1.
         11    1    6    6    0    0  0.19175783790E+02 -0.11417145502E+02 -0.42114372273E+01  0.22711188848E+02  0.00000000000E+00 0. -1.
        -12    1    6    6    0    0 -0.75698212909E+01  0.50220631227E+02  0.69210984172E+02  0.85846224875E+02  0.00000000000E+00 0.  1.
</event>
<event>
12    1  0.1628146E-001  0.2209411E+03  0.7818608E-02  0.1133464E+00
         21   -1    0    0  501  502  0.00000000000E+00  0.00000000000E+00  0.47154598147E+03  0.47154598147E+03  0.00000000000E+00 0. -1.
         21   -1    0    0  502  503 -0.00000000000E+00 -0.00000000000E+00 -0.11632691568E+03  0.11632691568E+03  0.00000000000E+00 0. -1.
         -6    2    1    2    0  503 -0.30711935552E+02  0.13380746277E+03  0.77971145007E+02  0.23429568346E+03  0.17311068066E+03 0.  0.
        -24    2    3    3    0    0 -0.54586461056E+02  0.14732908527E+02  0.37212174846E+02  0.10610782879E+03  0.81715268160E+02 0.  0.
          6    2    1    2  501    0  0.30711935552E+02 -0.13380746277E+03  0.27724792078E+03  0.35357721370E+03  0.17118053741E+03 0.  0.
         24    2    5    5    0    0  0.55406591195E+02 -0.47411707730E+02  0.72149326532E+02  0.12960941273E+03  0.79216880598E+02 0.  0.
          5    1    5    5  501    0 -0.24694655643E+02 -0.86395755038E+02  0.20509859425E+03  0.22396780097E+03  0.47000000000E+01 0. -1.
        -11    1    6    6    0    0  0.11102423356E+02  0.17845943703E+02 -0.23047189632E+01  0.21143633569E+02  0.00000000000E+00 0.  1.
         12    1    6    6    0    0  0.44304167840E+02 -0.65257651433E+02  0.74454045495E+02  0.10846577916E+03  0.00000000000E+00 0. -1.
         -5    1    3    3    0  503  0.23874525504E+02  0.11907455424E+03  0.40758970161E+02  0.12818785467E+03  0.47000000000E+01 0.  1.
         11    1    4    4    0    0 -0.44406315051E+02  0.46707826748E+02  0.32637972404E+02  0.72241118060E+02  0.00000000000E+00 0. -1.
        -12    1    4    4    0    0 -0.10180146005E+02 -0.31974918222E+02  0.45742024421E+01  0.33866710734E+02  0.00000000000E+00 0.  1.
</event>
<event>
12    1  0.1628146E-001  0.1806565E+03  0.7818608E-02  0.1167328E+00
         21   -1    0    0  503  502  0.00000000000E+00  0.00000000000E+00  0.31823539942E+03  0.31823539942E+03  0.00000000000E+00 0. -1.
         21   -1    0    0  501  503 -0.00000000000E+00 -0.00000000000E+00 -0.13474131750E+03  0.13474131750E+03  0.00000000000E+00 0. -1.
          6    2    1    2  501    0 -0.61804143392E+01 -0.53428087186E+02 -0.19462026499E+02  0.18170183405E+03  0.17246457027E+03 0.  0.
         24    2    3    3    0    0 -0.65585162083E+02 -0.37382305425E+01 -0.68184907307E+01  0.10308914484E+03  0.79154861597E+02 0.  0.
         -6    2    1    2    0  502  0.61804143392E+01  0.53428087186E+02  0.20295610842E+03  0.27127488287E+03  0.17177346160E+03 0.  0.
        -24    2    5    5    0    0  0.51513574692E+02  0.31935870390E+02  0.19697309982E+03  0.22053143795E+03  0.78499457803E+02 0.  0.
          5    1    3    3  501    0  0.59404747744E+02 -0.49689856643E+02 -0.12643535768E+02  0.78612689208E+02  0.47000000000E+01 0. -1.
        -11    1    4    4    0    0 -0.59383277439E+00 -0.98214884158E+01  0.27595738370E+02  0.29297423918E+02  0.00000000000E+00 0.  1.
         12    1    4    4    0    0 -0.64991329309E+02  0.60832578733E+01 -0.34414229101E+02  0.73791720919E+02  0.00000000000E+00 0. -1.
         -5    1    5    5    0  502 -0.45333160353E+02  0.21492216795E+02  0.59830085978E+01  0.50743444919E+02  0.47000000000E+01 0.  1.
         13    1    6    6    0    0  0.16640911908E+02  0.54381210868E+02  0.99559803508E+02  0.11465771025E+03  0.00000000000E+00 0. -1.
        -14    1    6    6    0    0  0.34872662784E+02 -0.22445340477E+02  0.97413296315E+02  0.10587372770E+03  0.00000000000E+00 0.  1.
</event>
<event>
12    1  0.1628146E-001  0.1758726E+03  0.7818608E-02  0.1171958E+00
         21   -1    0    0  503  502  0.00000000000E+00  0.00000000000E+00  0.13483571843E+03  0.13483571843E+03  0.00000000000E+00 0. -1.
         21   -1    0    0  501  503 -0.00000000000E+00 -0.00000000000E+00 -0.48017178199E+03  0.48017178199E+03  0.00000000000E+00 0. -1.
          6    2    1    2  501    0 -0.19983519218E+02  0.25706048787E+02 -0.39502913355E+03  0.43224930478E+03  0.17242767512E+03 0.  0.
         24    2    3    3    0    0  0.20191815434E+02 -0.25172523387E+02 -0.10573011582E+03  0.13573843098E+03  0.78769911200E+02 0.  0.
         -6    2    1    2    0  502  0.19983519218E+02 -0.25706048787E+02  0.49693069979E+02  0.18275819564E+03  0.17283233171E+03 0.  0.
        -24    2    5    5    0    0  0.81027475795E+01 -0.80526193143E+02  0.37776532621E+02  0.12522129596E+03  0.87767785919E+02 0.  0.
          5    1    3    3  501    0 -0.40175334653E+02  0.50878572174E+02 -0.28929901773E+03  0.29651087380E+03  0.47000000000E+01 0. -1.
        -13    1    4    4    0    0 -0.28354818077E+01 -0.53109415480E+01  0.12385415549E+02  0.13771150117E+02  0.00000000000E+00 0.  1.
         14    1    4    4    0    0  0.23027297242E+02 -0.19861581839E+02 -0.11811553137E+03  0.12196728087E+03  0.00000000000E+00 0. -1.
         -5    1    5    5    0  502  0.11880771639E+02  0.54820144356E+02  0.11916537357E+02  0.57536899678E+02  0.47000000000E+01 0.  1.
         13    1    6    6    0    0  0.17207699985E+02 -0.82062140027E+02 -0.25156753516E+01  0.83884613530E+02  0.00000000000E+00 0. -1.
        -14    1    6    6    0    0 -0.91049524057E+01  0.15359468844E+01  0.40292207973E+02  0.41336682432E+02  0.00000000000E+00 0.  1.
</event>
<event>
12    1  0.1628146E-001  0.1771971E+03  0.7818608E-02  0.1170580E+00
         21   -1    0    0  501  502  0.00000000000E+00  0.00000000000E+00  0.21696343650E+03  0.21696343650E+03  0.00000000000E+00 0. -1.
         21   -1    0    0  502  503 -0.00000000000E+00 -0.00000000000E+00 -0.24699406993E+03  0.24699406993E+03  0.00000000000E+00 0. -1.
         -6    2    1    2    0  503 -0.15712511301E+02  0.47055863470E+02 -0.16437587356E+03  0.24158965063E+03  0.16995585952E+03 0.  0.
        -24    2    3    3    0    0 -0.33495163958E+02  0.80247338488E+02 -0.16592282924E+03  0.20361097476E+03  0.79783973551E+02 0.  0.
          6    2    1    2  501    0  0.15712511301E+02 -0.47055863470E+02  0.13434524012E+03  0.22236785580E+03  0.17011079463E+03 0.  0.
         24    2    5    5    0    0  0.45862960032E+02  0.28168120374E+02  0.70253321291E+02  0.11893883974E+03  0.79461086935E+02 0.  0.
          5    1    5    5  501    0 -0.30150448731E+02 -0.75223983844E+02  0.64091918832E+02  0.10342901606E+03  0.47000000000E+01 0. -1.
        -13    1    6    6    0    0  0.19240821326E+02  0.10477923295E+02 -0.15884780317E+02  0.27061454647E+02  0.00000000000E+00 0.  1.
         14    1    6    6    0    0  0.26622138706E+02  0.17690197079E+02  0.86138101608E+02  0.91877385088E+02  0.00000000000E+00 0. -1.
         -5    1    3    3    0  503  0.17782652657E+02 -0.33191475018E+02  0.15469556813E+01  0.37978675876E+02  0.47000000000E+01 0.  1.
         13    1    4    4    0    0 -0.18970367758E+02 -0.73289949696E+00 -0.88922171595E+02  0.90926149131E+02  0.00000000000E+00 0. -1.
        -14    1    4    4    0    0 -0.14524796199E+02  0.80980237985E+02 -0.77000657645E+02  0.11268482563E+03  0.00000000000E+00 0.  1.
</event>
<event>
12    1  0.1628146E-001  0.1892286E+03  0.7818608E-02  0.1159254E+00
         21   -1    0    0  503  502  0.00000000000E+00  0.00000000000E+00  0.97399090646E+02  0.97399090646E+02  0.00000000000E+00 0. -1.
         21   -1    0    0  501  503 -0.00000000000E+00 -0.00000000000E+00 -0.36771191313E+03  0.36771191313E+03  0.00000000000E+00 0. -1.
          6    2    1    2  501    0 -0.51737001951E+02  0.55773985457E+02 -0.14675830560E+03  0.23946912506E+03  0.17326282570E+03 0.  0.
         24    2    3    3    0    0  0.23956511043E+02  0.10859163810E+02 -0.12241286188E+03  0.14802712299E+03  0.78963817836E+02 0.  0.
         -6    2    1    2    0  502  0.51737001951E+02 -0.55773985457E+02 -0.12355451688E+03  0.22564187871E+03  0.17280359939E+03 0.  0.
        -24    2    5    5    0    0 -0.19848085203E+02  0.14475900560E+02 -0.32132573767E+02  0.89849637141E+02  0.80230647599E+02 0.  0.
          5    1    3    3  501    0 -0.75693512994E+02  0.44914821646E+02 -0.24345443723E+02  0.91442002072E+02  0.47000000000E+01 0. -1.
        -11    1    4    4    0    0 -0.15898314631E+02  0.30916670038E+02 -0.32210170817E+02  0.47392953046E+02  0.00000000000E+00 0.  1.
         12    1    4    4    0    0  0.39854825674E+02 -0.20057506227E+02 -0.90202691060E+02  0.10063416994E+03  0.00000000000E+00 0. -1.
         -5    1    5    5    0  502  0.71585087154E+02 -0.70249886017E+02 -0.91421943113E+02  0.13579224157E+03  0.47000000000E+01 0.  1.
         13    1    6    6    0    0  0.31624794896E+01 -0.17750357767E+02 -0.44785907171E+02  0.48278918366E+02  0.00000000000E+00 0. -1.
        -14    1    6    6    0    0 -0.23010564692E+02  0.32226258328E+02  0.12653333404E+02  0.41570718775E+02  0.00000000000E+00 0.  1.
</event>
<event>
12    1  0.1628146E-001  0.2154205E+03  0.7818608E-02  0.1137537E+00
         21   -1    0    0  503  502  0.00000000000E+00  0.00000000000E+00  0.23501705883E+03  0.23501705883E+03  0.00000000000E+00 0.  1.
         21   -1    0    0  501  503 -0.00000000000E+00 -0.00000000000E+00 -0.28423776869E+03  0.28423776869E+03  0.00000000000E+00 0. -1.
          6    2    1    2  501    0  0.10397406841E+03  0.76534290198E+02 -0.16878674582E+03  0.27287696913E+03  0.17118636113E+03 0.  0.
         24    2    3    3    0    0  0.69281856675E+02  0.99747454518E+02 -0.62106092256E+02  0.15822422211E+03  0.80176102557E+02 0.  0.
         -6    2    1    2    0  502 -0.10397406841E+03 -0.76534290198E+02  0.11956603597E+03  0.24637785839E+03  0.17244682563E+03 0.  0.
        -24    2    5    5    0    0 -0.63134895769E+02 -0.40002296895E+02 -0.56193371035E+01  0.10964493555E+03  0.80026471384E+02 0.  0.
          5    1    3    3  501    0  0.34692211737E+02 -0.23213164320E+02 -0.10668065356E+03  0.11465274701E+03  0.47000000000E+01 0. -1.
        -13    1    4    4    0    0  0.75442770937E+00 -0.20704891717E+01  0.13761638543E+02  0.13936957415E+02  0.00000000000E+00 0.  1.
         14    1    4    4    0    0  0.68527428966E+02  0.10181794369E+03 -0.75867730799E+02  0.14428726470E+03  0.00000000000E+00 0. -1.
         -5    1    5    5    0  502 -0.40839172643E+02 -0.36531993304E+02  0.12518537307E+03  0.13673292284E+03  0.47000000000E+01 0.  1.
         11    1    6    6    0    0  0.46315570680E+01  0.18752969520E+02 -0.49948010257E+01  0.19951772452E+02  0.00000000000E+00 0. -1.
        -12    1    6    6    0    0 -0.67766452837E+02 -0.58755266415E+02 -0.62453607783E+00  0.89693163100E+02  0.00000000000E+00 0.  1.
</event>
<event>
12    1  0.1628146E-001  0.1741995E+03  0.7818608E-02  0.1174336E+00
         21   -1    0    0  503  502  0.00000000000E+00  0.00000000000E+00  0.32305156598E+03  0.32305156598E+03  0.00000000000E+00 0. -1.
         21   -1    0    0  501  503 -0.00000000000E+00 -0.00000000000E+00 -0.93964506345E+02  0.93964506345E+02  0.00000000000E+00 0. -1.
          6    2    1    2  501    0 -0.16184980805E+02 -0.20714677588E+02  0.14370307042E+03  0.22582301812E+03  0.17220456322E+03 0.  0.
         24    2    3    3    0    0 -0.70803654998E+02 -0.19721767115E+02  0.13389280529E+03  0.17012277805E+03  0.74915756974E+02 0.  0.
         -6    2    1    2    0  502  0.16184980805E+02  0.20714677588E+02  0.85383989213E+02  0.19119305420E+03  0.16903640700E+03 0.  0.
        -24    2    5    5    0    0  0.65732156403E+02  0.14723056678E+02  0.93678283661E+02  0.14038254888E+03  0.79963456760E+02 0.  0.
          5    1    3    3  501    0  0.54618674193E+02 -0.99291047270E+00  0.98102651264E+01  0.55700240068E+02  0.47000000000E+01 0. -1.
        -11    1    4    4    0    0 -0.44984883808E+02 -0.38785483225E+02  0.41888821263E+02  0.72681681509E+02  0.00000000000E+00 0.  1.
         12    1    4    4    0    0 -0.25818771190E+02  0.19063716110E+02  0.92003984030E+02  0.97441096540E+02  0.00000000000E+00 0. -1.
         -5    1    5    5    0  502 -0.49547175598E+02  0.59916209096E+01 -0.82942944483E+01  0.50810505324E+02  0.47000000000E+01 0.  1.
         13    1    6    6    0    0  0.32970465532E+02 -0.10458729349E+02 -0.35173850838E+01  0.34767925086E+02  0.00000000000E+00 0. -1.
        -14    1    6    6    0    0  0.32761690871E+02  0.25181786028E+02  0.97195668745E+02  0.10561462379E+03  0.00000000000E+00 0.  1.
</event>
<event>
12    1  0.1628146E-001  0.1834492E+03  0.7818608E-02  0.1164761E+00
         21   -1    0    0  501  502  0.00000000000E+00  0.00000000000E+00  0.72157784937E+03  0.72157784937E+03  0.00000000000E+00 0.  1.
         21   -1    0    0  502  503 -0.00000000000E+00 -0.00000000000E+00 -0.65744567435E+02  0.65744567435E+02  0.00000000000E+00 0.  1.
         -6    2    1    2    0  503  0.64718438128E+02 -0.11226199879E+02  0.11487074841E+03  0.21644606317E+03  0.17128661835E+03 0.  0.
        -24    2    3    3    0    0 -0.28907332094E+02 -0.23637855234E+01  0.31136940316E+02  0.90439048067E+02  0.79802825966E+02 0.  0.
          6    2    1    2  501    0 -0.64718438128E+02  0.11226199879E+02  0.54096253352E+03  0.57087635363E+03  0.17013184494E+03 0.  0.
         24    2    5    5    0    0 -0.76915229823E+02 -0.25791546141E+02  0.50540922246E+03  0.51791218484E+03  0.78825076141E+02 0.  0.
          5    1    5    5  501    0  0.12196791696E+02  0.37017746020E+02  0.35553311063E+02  0.52964168790E+02  0.47000000000E+01 0. -1.
        -11    1    6    6    0    0 -0.17907577194E+02 -0.46462232426E+02  0.25493371576E+03  0.25975107274E+03  0.00000000000E+00 0.  1.
         12    1    6    6    0    0 -0.59007652629E+02  0.20670686286E+02  0.25047550670E+03  0.25816111210E+03  0.00000000000E+00 0. -1.
         -5    1    3    3    0  503  0.93625770221E+02 -0.88624143558E+01  0.83733808094E+02  0.12600701510E+03  0.47000000000E+01 0.  1.
         13    1    4    4    0    0 -0.46424136298E+02 -0.15684577922E+02  0.43215363740E+02  0.65335855997E+02  0.00000000000E+00 0. -1.
        -14    1    4    4    0    0  0.17516804205E+02  0.13320792399E+02 -0.12078423424E+02  0.25103192070E+02  0.00000000000E+00 0.  1.
</event>
<event>
12    1  0.1628146E-001  0.2094949E+03  0.7818608E-02  0.1142136E+00
         21   -1    0    0  501  502  0.00000000000E+00  0.00000000000E+00  0.99548527807E+02  0.99548527807E+02  0.00000000000E+00 0. -1.
         21   -1    0    0  502  503 -0.00000000000E+00 -0.00000000000E+00 -0.93916608247E+03  0.93916608247E+03  0.00000000000E+00 0.  1.
         -6    2    1    2    0  503 -0.79621519659E+02  0.87217004173E+02 -0.79918624122E+03  0.82618809369E+03  0.17303677582E+03 0.  0.
        -24    2    3    3    0    0 -0.93304056517E+01  0.39257404161E+02 -0.63369744449E+03  0.64004407475E+03  0.80347782944E+02 0.  0.
          6    2    1    2  501    0  0.79621519659E+02 -0.87217004173E+02 -0.40431313436E+02  0.21252651658E+03  0.17200708397E+03 0.  0.
         24    2    5    5    0    0  0.58156609596E+02  0.17499920777E+02 -0.10133563361E+02  0.10132210842E+03  0.80467646180E+02 0.  0.
          5    1    5    5  501    0  0.21464910063E+02 -0.10471692495E+03 -0.30297750075E+02  0.11120440816E+03  0.47000000000E+01 0. -1.
        -13    1    6    6    0    0  0.13204696273E+02  0.21626743659E+01 -0.42030611630E+02  0.44109108788E+02  0.00000000000E+00 0.  1.
         14    1    6    6    0    0  0.44951913323E+02  0.15337246411E+02  0.31897048269E+02  0.57212999634E+02  0.00000000000E+00 0. -1.
         -5    1    3    3    0  503 -0.70291114007E+02  0.47959600012E+02 -0.16548879673E+03  0.18614401894E+03  0.47000000000E+01 0.  1.
         11    1    4    4    0    0  0.31185376966E+01  0.40532679597E+02 -0.13037242262E+03  0.13656350893E+03  0.00000000000E+00 0. -1.
        -12    1    4    4    0    0 -0.12448943348E+02 -0.12752754366E+01 -0.50332502187E+03  0.50348056582E+03  0.00000000000E+00 0.  1.
</event>
<event>
12    1  0.1628146E-001  0.1865680E+03  0.7818608E-02  0.1161717E+00
         21   -1    0    0  501  502  0.00000000000E+00  0.00000000000E+00  0.28989540302E+03  0.28989540302E+03  0.00000000000E+00 0.  1.
         21   -1    0    0  502  503 -0.00000000000E+00 -0.00000000000E+00 -0.39568743059E+03  0.39568743059E+03  0.00000000000E+00 0. -1.
         -6    2    1    2    0  503  0.64448311879E+02  0.35413564625E+02 -0.33914458203E+03  0.38681700352E+03  0.17088195114E+03 0.  0.
        -24    2    3    3    0    0 -0.40121078378E+00  0.77008594812E+02 -0.21725492081E+03  0.24254369816E+03  0.75480197781E+02 0.  0.
          6    2    1    2  501    0 -0.64448311879E+02 -0.35413564625E+02  0.23335255446E+03  0.29876583010E+03  0.17146399358E+03 0.  0.
         24    2    5    5    0    0 -0.41115409573E+02 -0.11675187083E+02  0.34424611479E+02  0.97017592440E+02  0.80003577855E+02 0.  0.
          5    1    5    5  501    0 -0.23332902306E+02 -0.23738377543E+02  0.19892794298E+03  0.20174823766E+03  0.47000000000E+01 0. -1.
        -11    1    6    6    0    0 -0.61970581923E+02 -0.11523661525E+02  0.40947681328E+02  0.75165553313E+02  0.00000000000E+00 0.  1.
         12    1    6    6    0    0  0.20855172350E+02 -0.15152555718E+00 -0.65230698484E+01  0.21852039127E+02  0.00000000000E+00 0. -1.
         -5    1    3    3    0  503  0.64849522662E+02 -0.41595030187E+02 -0.12188966122E+03  0.14427330536E+03  0.47000000000E+01 0.  1.
         13    1    4    4    0    0  0.80846422755E+01  0.37896733494E+02 -0.24878897978E+02  0.46048706983E+02  0.00000000000E+00 0. -1.
        -14    1    4    4    0    0 -0.84858530593E+01  0.39111861318E+02 -0.19237602283E+03  0.19649499118E+03  0.00000000000E+00 0.  1.
</event>
<event>
12    1  0.1628146E-001  0.1994914E+03  0.7818608E-02  0.1150399E+00
         21   -1    0    0  501  502  0.00000000000E+00  0.00000000000E+00  0.12174012683E+03  0.12174012683E+03  0.00000000000E+00 0. -1.
         21   -1    0    0  502  503 -0.00000000000E+00 -0.00000000000E+00 -0.56120383843E+03  0.56120383843E+03  0.00000000000E+00 0. -1.
         -6    2    1    2    0  503  0.46140827379E+02 -0.86889727410E+02 -0.44085825530E+03  0.48344770927E+03  0.17229882662E+03 0.  0.
        -24    2    3    3    0    0  0.71956650300E+02 -0.86256082961E+02 -0.21083543859E+03  0.25193217107E+03  0.80002283021E+02 0.  0.
          6    2    1    2  501    0 -0.46140827379E+02  0.86889727410E+02  0.13945437052E+01  0.19949625599E+03  0.17354541400E+03 0.  0.
         24    2    5    5    0    0 -0.55128047883E+02  0.16946135402E+01  0.39260540346E+02  0.10571512110E+03  0.81193124231E+02 0.  0.
          5    1    5    5  501    0  0.89872205037E+01  0.85195113870E+02 -0.37865996641E+02  0.93781134890E+02  0.47000000000E+01 0. -1.
        -13    1    6    6    0    0 -0.39519275542E+02 -0.38348966621E+02  0.24515779513E+02  0.60278021081E+02  0.00000000000E+00 0.  1.
         14    1    6    6    0    0 -0.15608772341E+02  0.40043580161E+02  0.14744760834E+02  0.45437100019E+02  0.00000000000E+00 0. -1.
         -5    1    3    3    0  503 -0.25815822921E+02 -0.63364444918E+00 -0.23002281671E+03  0.23151553820E+03  0.47000000000E+01 0.  1.
         13    1    4    4    0    0  0.36553654980E+02 -0.76276032294E+02 -0.19368359699E+03  0.21134696245E+03  0.00000000000E+00 0. -1.
        -14    1    4    4    0    0  0.35402995320E+02 -0.99800506666E+01 -0.17151841600E+02  0.40585208626E+02  0.00000000000E+00 0.  1.
</event>
<event>
12    1  0.1628146E-001  0.2680070E+03  0.7818608E-02  0.1102494E+00
         21   -1    0    0  503  502  0.00000000000E+00  0.00000000000E+00  0.27252073297E+03  0.27252073297E+03  0.00000000000E+00 0. -1.
         21   -1    0    0  501  503 -0.00000000000E+00 -0.00000000000E+00 -0.30931497531E+03  0.30931497531E+03  0.00000000000E+00 0.  1.
          6    2    1    2  501    0 -0.55152662419E+02  0.19781360720E+03 -0.13085283880E+03  0.29824523927E+03  0.17220835624E+03 0.  0.
         24    2    3    3    0    0  0.36294985377E+02  0.10692720900E+03 -0.92327263520E+02  0.16360007739E+03  0.74093911672E+02 0.  0.
         -6    2    1    2    0  502  0.55152662419E+02 -0.19781360720E+03  0.94058596460E+02  0.28359046901E+03  0.17147738971E+03 0.  0.
        -24    2    5    5    0    0  0.33208662776E+02 -0.13466159835E+03  0.13122436113E+03  0.20695431954E+03  0.79835431177E+02 0.  0.
          5    1    3    3  501    0 -0.91447647795E+02  0.90886398201E+02 -0.38525575284E+02  0.13464516187E+03  0.47000000000E+01 0. -1.
        -13    1    4    4    0    0  0.17069016186E+02  0.81854924300E+02 -0.10072414120E+03  0.13090810734E+03  0.00000000000E+00 0.  1.
         14    1    4    4    0    0  0.19225969191E+02  0.25072284696E+02  0.83968776842E+01  0.32691970055E+02  0.00000000000E+00 0. -1.
         -5    1    5    5    0  502  0.21943999642E+02 -0.63152008851E+02 -0.37165764666E+02  0.76636149468E+02  0.47000000000E+01 0.  1.
         11    1    6    6    0    0 -0.22877149274E+02 -0.65370568290E+02  0.42929677598E+02  0.81483939375E+02  0.00000000000E+00 0. -1.
        -12    1    6    6    0    0  0.56085812051E+02 -0.69291030057E+02  0.88294683528E+02  0.12547038017E+03  0.00000000000E+00 0.  1.
</event>
<event>
12    1  0.1628146E-001  0.3006314E+03  0.7818608E-02  0.1084995E+00
         21   -1    0    0  503  502  0.00000000000E+00  0.00000000000E+00  0.77143849529E+02  0.77143849529E+02  0.00000000000E+00 0.  1.
         21   -1    0    0  501  503 -0.00000000000E+00 -0.00000000000E+00 -0.15294751257E+04  0.15294751257E+04  0.00000000000E+00 0.  1.
          6    2    1    2  501    0 -0.54962245890E+02 -0.24041349308E+03 -0.11164555536E+04  0.11562232560E+04  0.17192939961E+03 0.  0.
         24    2    3    3    0    0 -0.24654244899E+02 -0.22969497358E+03 -0.75548993661E+03  0.79379846625E+03  0.77352104189E+02 0.  0.
         -6    2    1    2    0  502  0.54962245890E+02  0.24041349308E+03 -0.33587572254E+03  0.45039571919E+03  0.17095118234E+03 0.  0.
        -24    2    5    5    0    0  0.17052775718E+02  0.22941731444E+03 -0.22091574723E+03  0.32875719816E+03  0.79714657669E+02 0.  0.
          5    1    3    3  501    0 -0.30308000991E+02 -0.10718519497E+02 -0.36096561698E+03  0.36242478976E+03  0.47000000000E+01 0. -1.
        -11    1    4    4    0    0 -0.24296373799E+02 -0.15789101653E+03 -0.62239629148E+03  0.64257064244E+03  0.00000000000E+00 0.  1.
         12    1    4    4    0    0 -0.35787110011E+00 -0.71803957048E+02 -0.13309364513E+03  0.15122782381E+03  0.00000000000E+00 0. -1.
         -5    1    5    5    0  502  0.37909470172E+02  0.10996178639E+02 -0.11495997531E+03  0.12163852102E+03  0.47000000000E+01 0.  1.
         13    1    6    6    0    0  0.99141570336E+01  0.23541035553E+02 -0.66711457743E+02  0.71434511678E+02  0.00000000000E+00 0. -1.
        -14    1    6    6    0    0  0.71386186841E+01  0.20587627888E+03 -0.15420428949E+03  0.25732268649E+03  0.00000000000E+00 0.  1.
</event>
<event>
12    1  0.1628146E-001  0.2852998E+03  0.7818608E-02  0.1093046E+00
         21   -1    0    0  501  502  0.00000000000E+00  0.00000000000E+00  0.31512384177E+03  0.31512384177E+03  0.00000000000E+00 0.  1.
         21   -1    0    0  502  503 -0.00000000000E+00 -0.00000000000E+00 -0.28700485090E+03  0.28700485090E+03  0.00000000000E+00 0.  1.
         -6    2    1    2    0  503 -0.22662866648E+03  0.27357551878E+02 -0.83588426010E+02  0.29573921238E+03  0.16842110515E+03 0.  0.
        -24    2    3    3    0    0 -0.20632431824E+03 -0.57521209432E+01 -0.10898053043E+03  0.24909839379E+03  0.87008290326E+02 0.  0.
          6    2    1    2  501    0  0.22662866648E+03 -0.27357551878E+02  0.11170741687E+03  0.30638948029E+03  0.17113438735E+03 0.  0.
         24    2    5    5    0    0  0.23103704064E+03 -0.89281934515E+01  0.13103486138E+03  0.27891740127E+03  0.84657870582E+02 0.  0.
          5    1    5    5  501    0 -0.44083741574E+01 -0.18429358427E+02 -0.19327444502E+02  0.27472079021E+02  0.47000000000E+01 0. -1.
        -13    1    6    6    0    0  0.21851667830E+03 -0.29950218823E+02  0.12573640774E+03  0.25388225328E+03  0.00000000000E+00 0.  1.
         14    1    6    6    0    0  0.12520362343E+02  0.21022025371E+02  0.52984536364E+01  0.25035147989E+02  0.00000000000E+00 0. -1.
         -5    1    3    3    0  503 -0.20304348244E+02  0.33109672821E+02  0.25392104416E+02  0.46640818589E+02  0.47000000000E+01 0.  1.
         13    1    4    4    0    0 -0.83286481987E+02 -0.44641194594E+02 -0.53991582945E+02  0.10883274032E+03  0.00000000000E+00 0. -1.
        -14    1    4    4    0    0 -0.12303783625E+03  0.38889073651E+02 -0.54988947481E+02  0.14026565347E+03  0.00000000000E+00 0.  1.
</event>
<event>
12    1  0.1628146E-001  0.2024835E+03  0.7818608E-02  0.1147904E+00
         21   -1    0    0  501  502  0.00000000000E+00  0.00000000000E+00  0.13397472739E+03  0.13397472739E+03  0.00000000000E+00 0.  1.
         21   -1    0    0  502  503 -0.00000000000E+00 -0.00000000000E+00 -0.30998728362E+03  0.30998728362E+03  0.00000000000E+00 0.  1.
         -6    2    1    2    0  503  0.10645299393E+03  0.73139509293E+01 -0.58078069769E+02  0.21064815551E+03  0.17208674975E+03 0.  0.
        -24    2    3    3    0    0  0.13026715226E+03 -0.30920035999E+02 -0.31709431561E+02  0.15824255491E+03  0.78164176892E+02 0.  0.
          6    2    1    2  501    0 -0.10645299393E+03 -0.73139509293E+01 -0.11793448647E+03  0.23331385549E+03  0.17070758118E+03 0.  0.
         24    2    5    5    0    0  0.62318406148E+01  0.43430301202E+01 -0.15948882861E+02  0.80811689982E+02  0.78857242059E+02 0.  0.
          5    1    5    5  501    0 -0.11268483454E+03 -0.11656981050E+02 -0.10198560361E+03  0.15250216551E+03  0.47000000000E+01 0. -1.
        -13    1    6    6    0    0 -0.15358017063E+02  0.17596944939E+02 -0.39715920982E+02  0.46074673507E+02  0.00000000000E+00 0.  1.
         14    1    6    6    0    0  0.21589857678E+02 -0.13253914819E+02  0.23767038121E+02  0.34737016475E+02  0.00000000000E+00 0. -1.
         -5    1    3    3    0  503 -0.23814158337E+02  0.38233986928E+02 -0.26368638208E+02  0.52405600604E+02  0.47000000000E+01 0.  1.
         13    1    4    4    0    0  0.54640336734E+02  0.11399158949E+02 -0.43522008864E+02  0.70779039826E+02  0.00000000000E+00 0. -1.
        -14    1    4    4    0    0  0.75626815530E+02 -0.42319194948E+02  0.11812577303E+02  0.87463515083E+02  0.00000000000E+00 0.  1.
</event>
<event>
12    1  0.1628146E-001  0.2260804E+03  0.7818608E-02  0.1129460E+00
         21   -1    0    0  503  502  0.00000000000E+00  0.00000000000E+00  0.50165644390E+03  0.50165644390E+03  0.00000000000E+00 0. -1.
         21   -1    0    0  501  503 -0.00000000000E+00 -0.00000000000E+00 -0.11424199058E+03  0.11424199058E+03  0.00000000000E+00 0.  1.
          6    2    1    2  501    0 -0.82426593947E+02 -0.12055595145E+03  0.29535886620E+03  0.37195325521E+03  0.17258181654E+03 0.  0.
         24    2    3    3    0    0  0.14939423151E+02 -0.91695673754E+02  0.21701719300E+03  0.24360776571E+03  0.60141487437E+02 0.  0.
         -6    2    1    2    0  502  0.82426593947E+02  0.12055595145E+03  0.92055587116E+02  0.24394517927E+03  0.17235758919E+03 0.  0.
        -24    2    5    5    0    0  0.95465232133E+02  0.14838635375E+03  0.86685829077E+02  0.21239424141E+03  0.80403733110E+02 0.  0.
          5    1    3    3  501    0 -0.97366017098E+02 -0.28860277693E+02  0.78341673205E+02  0.12834548950E+03  0.47000000000E+01 0. -1.
        -13    1    4    4    0    0 -0.15264246162E+02 -0.62520493131E+02  0.96568754454E+02  0.11604884148E+03  0.00000000000E+00 0.  1.
         14    1    4    4    0    0  0.30203669313E+02 -0.29175180622E+02  0.12044843854E+03  0.12755892423E+03  0.00000000000E+00 0. -1.
         -5    1    5    5    0  502 -0.13038638186E+02 -0.27830402303E+02  0.53697580388E+01  0.31550937854E+02  0.47000000000E+01 0.  1.
         11    1    6    6    0    0  0.13588777039E+02  0.53252078436E+02  0.64828526495E+02  0.84989273245E+02  0.00000000000E+00 0. -1.
        -12    1    6    6    0    0  0.81876455094E+02  0.95134275314E+02  0.21857302582E+02  0.12740496817E+03  0.00000000000E+00 0.  1.
</event>
<event>
12    1  0.1628146E-001  0.1727696E+03  0.7818608E-02  0.1175904E+00
         21   -1    0    0  503  502  0.00000000000E+00  0.00000000000E+00  0.60308903004E+03  0.60308903004E+03  0.00000000000E+00 0.  1.
         21   -1    0    0  501  503 -0.00000000000E+00 -0.00000000000E+00 -0.58911436749E+02  0.58911436749E+02  0.00000000000E+00 0.  1.
          6    2    1    2  501    0 -0.18542872424E+02 -0.56591883028E+01  0.13516224783E+03  0.21935851075E+03  0.17167835761E+03 0.  0.
         24    2    3    3    0    0 -0.65860068300E+02  0.28405272832E+02  0.53881379597E+02  0.11921873804E+03  0.78520674420E+02 0.  0.
         -6    2    1    2    0  502  0.18542872424E+02  0.56591883028E+01  0.40901534546E+03  0.44264195604E+03  0.16811449637E+03 0.  0.
        -24    2    5    5    0    0  0.63701999593E+02 -0.30289015771E+02  0.23995213334E+03  0.26393526943E+03  0.84317441433E+02 0.  0.
          5    1    3    3  501    0  0.47317195876E+02 -0.34064461135E+02  0.81280868228E+02  0.10013977271E+03  0.47000000000E+01 0. -1.
        -13    1    4    4    0    0 -0.36666058911E+02  0.11518599529E+02 -0.15995565472E+02  0.41628549409E+02  0.00000000000E+00 0.  1.
         14    1    4    4    0    0 -0.29194009389E+02  0.16886673303E+02  0.69876945069E+02  0.77590188630E+02  0.00000000000E+00 0. -1.
         -5    1    5    5    0  502 -0.45159127169E+02  0.35948204074E+02  0.16906321213E+03  0.17870668660E+03  0.47000000000E+01 0.  1.
         11    1    6    6    0    0  0.27231090503E+02 -0.34177941537E+02  0.35734598651E+02  0.56450203883E+02  0.00000000000E+00 0. -1.
        -12    1    6    6    0    0  0.36470909089E+02  0.38889257659E+01  0.20421753469E+03  0.20748506555E+03  0.00000000000E+00 0.  1.
</event>
<event>
12    1  0.1628146E-001  0.1854905E+03  0.7818608E-02  0.1162840E+00
         21   -1    0    0  501  502  0.00000000000E+00  0.00000000000E+00  0.22554012049E+03  0.22554012049E+03  0.00000000000E+00 0. -1.
         21   -1    0    0  502  503 -0.00000000000E+00 -0.00000000000E+00 -0.16639130321E+03  0.16639130321E+03  0.00000000000E+00 0. -1.
         -6    2    1    2    0  503  0.52037712448E+02 -0.44461717814E+02 -0.28616460359E+02  0.18768489117E+03  0.17240054728E+03 0.  0.
        -24    2    3    3    0    0  0.45140510365E+02 -0.81946946652E+02 -0.62077142030E+02  0.13674943206E+03  0.78063229906E+02 0.  0.
          6    2    1    2  501    0 -0.52037712448E+02  0.44461717814E+02  0.87765277643E+02  0.20424653252E+03  0.17125750851E+03 0.  0.
         24    2    5    5    0    0 -0.77512004758E+02 -0.21953874675E+02  0.48009257972E+02  0.12262177161E+03  0.79000800797E+02 0.  0.
          5    1    5    5  501    0  0.25474292311E+02  0.66415592489E+02  0.39756019670E+02  0.81624760915E+02  0.47000000000E+01 0. -1.
        -11    1    6    6    0    0  0.76464874240E+01 -0.85555895283E+01 -0.12751678282E+02  0.17154363325E+02  0.00000000000E+00 0.  1.
         12    1    6    6    0    0 -0.85158492182E+02 -0.13398285146E+02  0.60760936254E+02  0.10546740828E+03  0.00000000000E+00 0. -1.
         -5    1    3    3    0  503  0.68972020825E+01  0.37485228838E+02  0.33460681671E+02  0.50935459117E+02  0.47000000000E+01 0.  1.
         11    1    4    4    0    0  0.33315354075E+02 -0.64785844734E+02 -0.16926161991E+01  0.72869633213E+02  0.00000000000E+00 0. -1.
        -12    1    4    4    0    0  0.11825156290E+02 -0.17161101918E+02 -0.60384525831E+02  0.63879798842E+02  0.00000000000E+00 0.  1.
</event>
<event>
12    1  0.1628146E-001  0.1864670E+03  0.7818608E-02  0.1161815E+00
         21   -1    0    0  503  502  0.00000000000E+00  0.00000000000E+00  0.11478830723E+03  0.11478830723E+03  0.00000000000E+00 0. -1.
         21   -1    0    0  501  503 -0.00000000000E+00 -0.00000000000E+00 -0.47345777700E+03  0.47345777700E+03  0.00000000000E+00 0. -1.
          6    2    1    2  501    0 -0.45166115227E+02 -0.53265654608E+02 -0.35615864206E+03  0.40176218307E+03  0.17229818777E+03 0.  0.
         24    2    3    3    0    0  0.98709201387E+00  0.22562694157E+02 -0.93084683569E+02  0.12407521066E+03  0.78866026055E+02 0.  0.
         -6    2    1    2    0  502  0.45166115227E+02  0.53265654608E+02 -0.25108277069E+01  0.18648390116E+03  0.17289515091E+03 0.  0.
        -24    2    5    5    0    0 -0.34231800470E+02  0.60561180774E+02 -0.87078299474E+01  0.10637306197E+03  0.79999557685E+02 0.  0.
          5    1    3    3  501    0 -0.46153207241E+02 -0.75828348765E+02 -0.26307395849E+03  0.27768697242E+03  0.47000000000E+01 0. -1.
        -11    1    4    4    0    0 -0.37345251411E+02  0.21674315833E+02 -0.42346611131E+02  0.60478750351E+02  0.00000000000E+00 0.  1.
         12    1    4    4    0    0  0.38332343424E+02  0.88837832367E+00 -0.50738072438E+02  0.63596460304E+02  0.00000000000E+00 0. -1.
         -5    1    5    5    0  502  0.79397915697E+02 -0.72955261656E+01  0.61970022405E+01  0.80110839191E+02  0.47000000000E+01 0.  1.
         13    1    6    6    0    0 -0.39594975561E+02  0.73712844531E+02  0.84496046596E+01  0.84099591898E+02  0.00000000000E+00 0. -1.
        -14    1    6    6    0    0  0.53631750912E+01 -0.13151663757E+02 -0.17157434607E+02  0.22273470070E+02  0.00000000000E+00 0.  1.
</event>
<event>
12    1  0.1628146E-001  0.1956215E+03  0.7818608E-02  0.1153489E+00
         21   -1    0    0  503  502  0.00000000000E+00  0.00000000000E+00  0.11853725650E+04  0.11853725650E+04  0.00000000000E+00 0. -1.
         21   -1    0    0  501  503 -0.00000000000E+00 -0.00000000000E+00 -0.40579749372E+02  0.40579749372E+02  0.00000000000E+00 0. -1.
          6    2    1    2  501    0  0.69933555034E+02  0.59353310837E+02  0.29518764021E+03  0.35411705673E+03  0.17277045266E+03 0.  0.
         24    2    3    3    0    0  0.27603521244E+02  0.77728260867E+02  0.92609578157E+02  0.14629638458E+03  0.77604518252E+02 0.  0.
         -6    2    1    2    0  502 -0.69933555034E+02 -0.59353310837E+02  0.84960517540E+03  0.87183525762E+03  0.17278380923E+03 0.  0.
        -24    2    5    5    0    0 -0.68473617467E+02 -0.10288057177E+03  0.72381397440E+03  0.73863514458E+03  0.80013492303E+02 0.  0.
          5    1    3    3  501    0  0.42330033790E+02 -0.18374950030E+02  0.20257806205E+03  0.20782067215E+03  0.47000000000E+01 0. -1.
        -13    1    4    4    0    0 -0.66711691295E+01 -0.12464227277E+02  0.26587306662E+01  0.14385072399E+02  0.00000000000E+00 0.  1.
         14    1    4    4    0    0  0.34274690373E+02  0.90192488144E+02  0.89950847490E+02  0.13191131218E+03  0.00000000000E+00 0. -1.
         -5    1    5    5    0  502 -0.14599375663E+01  0.43527260929E+02  0.12579120101E+03  0.13320011303E+03  0.47000000000E+01 0.  1.
         11    1    6    6    0    0 -0.15588888725E+02 -0.70713736027E+02  0.23460949180E+03  0.24553016018E+03  0.00000000000E+00 0. -1.
        -12    1    6    6    0    0 -0.52884728742E+02 -0.32166835739E+02  0.48920448259E+03  0.49310498440E+03  0.00000000000E+00 0.  1.
</event>
<event>
12    1  0.1628146E-001  0.1902116E+03  0.7818608E-02  0.1158394E+00
         21   -1    0    0  503  502  0.00000000000E+00  0.00000000000E+00  0.12716300037E+03  0.12716300037E+03  0.00000000000E+00 0.  1.
         21   -1    0    0  501  503 -0.00000000000E+00 -0.00000000000E+00 -0.29282350189E+03  0.29282350189E+03  0.00000000000E+00 0.  1.
          6    2    1    2  501    0 -0.29805995277E+02  0.72990514406E+02 -0.45657281509E+02  0.19508378904E+03  0.17250241982E+03 0.  0.
         24    2    3    3    0    0 -0.37247898148E+01  0.17420605889E+02  0.38431893190E+02  0.90866116296E+02  0.80388364256E+02 0.  0.
         -6    2    1    2    0  502  0.29805995277E+02 -0.72990514406E+02 -0.12000322002E+03  0.22490271322E+03  0.17310241203E+03 0.  0.
        -24    2    5    5    0    0 -0.51598683605E+02 -0.49699284091E+02 -0.38291692780E+02  0.10713995664E+03  0.69858954932E+02 0.  0.
          5    1    3    3  501    0 -0.26081205462E+02  0.55569908517E+02 -0.84089174699E+02  0.10421767275E+03  0.47000000000E+01 0. -1.
        -13    1    4    4    0    0 -0.25702238390E+02  0.81158807937E+01 -0.16061352686E+02  0.31375780937E+02  0.00000000000E+00 0.  1.
         14    1    4    4    0    0  0.21977448575E+02  0.93047250957E+01  0.54493245876E+02  0.59490335359E+02  0.00000000000E+00 0. -1.
         -5    1    5    5    0  502  0.81404678882E+02 -0.23291230315E+02 -0.81711527238E+02  0.11776275658E+03  0.47000000000E+01 0.  1.
         11    1    6    6    0    0 -0.47649293597E+02 -0.22228695919E+01 -0.28947414049E+01  0.47788867504E+02  0.00000000000E+00 0. -1.
        -12    1    6    6    0    0 -0.39493900083E+01 -0.47476414499E+02 -0.35396951375E+02  0.59351089138E+02  0.00000000000E+00 0.  1.
</event>
<event>
12    1  0.1628146E-001  0.3102360E+03  0.7818608E-02  0.1080396E+00
         21   -1    0    0  503  502  0.00000000000E+00  0.00000000000E+00  0.74332319408E+03  0.74332319408E+03  0.00000000000E+00 0. -1.
         21   -1    0    0  501  503 -0.00000000000E+00 -0.00000000000E+00 -0.18308357534E+03  0.18308357534E+03  0.00000000000E+00 0.  1.
          6    2    1    2  501    0 -0.23319614551E+03 -0.10972933525E+03  0.27736733158E+02  0.31012301024E+03  0.17025271163E+03 0.  0.
         24    2    3    3    0    0 -0.23180301187E+03 -0.85444575617E+02 -0.16643768967E+02  0.25929576025E+03  0.76966644885E+02 0.  0.
         -6    2    1    2    0  502  0.23319614551E+03  0.10972933525E+03  0.53250288558E+03  0.61628375919E+03  0.17270025879E+03 0.  0.
        -24    2    5    5    0    0  0.63406150288E+02  0.72581321465E+02  0.30664317984E+03  0.33125163103E+03  0.80057574250E+02 0.  0.
          5    1    3    3  501    0 -0.13931336363E+01 -0.24284759635E+02  0.44380502125E+02  0.50827249982E+02  0.47000000000E+01 0. -1.
        -11    1    4    4    0    0 -0.61437388212E+02 -0.48874534502E+01 -0.33401852597E+02  0.70100810469E+02  0.00000000000E+00 0.  1.
         12    1    4    4    0    0 -0.17036562366E+03 -0.80557122167E+02  0.16758083631E+02  0.18919494978E+03  0.00000000000E+00 0. -1.
         -5    1    5    5    0  502  0.16978999522E+03  0.37148013787E+02  0.22585970574E+03  0.28503212816E+03  0.47000000000E+01 0.  1.
         11    1    6    6    0    0  0.63434642317E+02  0.80917688787E+02  0.30608944111E+03  0.32289684446E+03  0.00000000000E+00 0. -1.
        -12    1    6    6    0    0 -0.28492029046E-01 -0.83363673225E+01  0.55373872952E+00  0.83547865629E+01  0.00000000000E+00 0.  1.
</event>
<event>
12    1  0.1628146E-001  0.1754855E+03  0.7818608E-02  0.1172404E+00
         21   -1    0    0  503  502  0.00000000000E+00  0.00000000000E+00  0.21653118231E+03  0.21653118231E+03  0.00000000000E+00 0. -1.
         21   -1    0    0  501  503 -0.00000000000E+00 -0.00000000000E+00 -0.37394572759E+03  0.37394572759E+03  0.00000000000E+00 0. -1.
          6    2    1    2  501    0  0.25769807512E+02  0.98245029040E+01 -0.31132104069E+03  0.35706231259E+03  0.17266181065E+03 0.  0.
         24    2    3    3    0    0  0.45068063640E+01 -0.41218900671E+02 -0.82630315649E+02  0.12173470693E+03  0.79197605581E+02 0.  0.
         -6    2    1    2    0  502 -0.25769807512E+02 -0.98245029040E+01  0.15390649541E+03  0.23341459732E+03  0.17330482127E+03 0.  0.
        -24    2    5    5    0    0  0.43644236604E+01 -0.70605381461E+02  0.92948480968E+02  0.14208904442E+03  0.80905552009E+02 0.  0.
          5    1    3    3  501    0  0.21263001148E+02  0.51043403575E+02 -0.22869072504E+03  0.23532760566E+03  0.47000000000E+01 0. -1.
        -13    1    4    4    0    0 -0.27235185844E+02 -0.46002327396E+02 -0.67889479418E+02  0.86411520583E+02  0.00000000000E+00 0.  1.
         14    1    4    4    0    0  0.31741992208E+02  0.47834267256E+01 -0.14740836231E+02  0.35323186342E+02  0.00000000000E+00 0. -1.
         -5    1    5    5    0  502 -0.30134231172E+02  0.60780878557E+02  0.60958014441E+02  0.91325552892E+02  0.47000000000E+01 0.  1.
         13    1    6    6    0    0 -0.10202945361E+02 -0.23568878664E+02  0.89066768810E+02  0.92695638742E+02  0.00000000000E+00 0. -1.
        -14    1    6    6    0    0  0.14567369021E+02 -0.47036502797E+02  0.38817121579E+01  0.49393405682E+02  0.00000000000E+00 0.  1.
</event>
<event>
12    1  0.1628146E-001  0.1831535E+03  0.7818608E-02  0.1165836E+00
         21   -1    0    0  501  502  0.00000000000E+00  0.00000000000E+00  0.11224028582E+04  0.11224028582E+04  0.00000000000E+00 0.  1.
         21   -1    0    0  502  503 -0.00000000000E+00 -0.00000000000E+00 -0.52791291767E+02  0.52791291767E+02  0.00000000000E+00 0.  1.
         -6    2    1    2    0  503  0.47305557578E+02  0.39350759221E+02  0.13823737377E+03  0.22598232624E+03  0.16784559046E+03 0.  0.
        -24    2    3    3    0    0 -0.24319449478E+02  0.55866719165E+02  0.10275990448E+03  0.14422867558E+03  0.80807097195E+02 0.  0.
          6    2    1    2  501    0 -0.47305557578E+02 -0.39350759221E+02  0.93137419266E+03  0.94921182373E+03  0.17250768540E+03 0.  0.
         24    2    5    5    0    0 -0.40344296356E+02 -0.24626930451E+02  0.92705832089E+03  0.93171991015E+03  0.80191724580E+02 0.  0.
          5    1    5    5  501    0 -0.69612612222E+01 -0.14723828770E+02  0.43158717728E+01  0.17491913578E+02  0.47000000000E+01 0. -1.
        -11    1    6    6    0    0 -0.52456825851E+02 -0.22331870115E+02  0.35663070760E+03  0.36115909598E+03  0.00000000000E+00 0.  1.
         12    1    6    6    0    0  0.12112529495E+02 -0.22950603361E+01  0.57042761329E+03  0.57056081418E+03  0.00000000000E+00 0. -1.
         -5    1    3    3    0  503  0.71625007057E+02 -0.16515959944E+02  0.35477469289E+02  0.81753650658E+02  0.47000000000E+01 0.  1.
         13    1    4    4    0    0 -0.37286368240E+02  0.50077257246E+01  0.77136872841E+02  0.85822186672E+02  0.00000000000E+00 0. -1.
        -14    1    4    4    0    0  0.12966918761E+02  0.50858993441E+02  0.25623031638E+02  0.58406488906E+02  0.00000000000E+00 0.  1.
</event>
<event>
12    1  0.1628146E-001  0.1836814E+03  0.7818608E-02  0.1164309E+00
         21   -1    0    0  501  502  0.00000000000E+00  0.00000000000E+00  0.38992752493E+03  0.38992752493E+03  0.00000000000E+00 0.  1.
         21   -1    0    0  502  503 -0.00000000000E+00 -0.00000000000E+00 -0.91829471138E+02  0.91829471138E+02  0.00000000000E+00 0.  1.
         -6    2    1    2    0  503 -0.51393061735E+01  0.64900256844E+02  0.90954190007E+02  0.20496715286E+03  0.17175684343E+03 0.  0.
        -24    2    3    3    0    0 -0.62125946232E+02  0.11013769686E+02  0.63889235920E+02  0.12186581483E+03  0.82392390665E+02 0.  0.
          6    2    1    2  501    0  0.51393061735E+01 -0.64900256844E+02  0.20714386379E+03  0.27678984321E+03  0.17165541410E+03 0.  0.
         24    2    5    5    0    0 -0.50420529246E+02 -0.24626623218E+02  0.17627709809E+03  0.20139947179E+03  0.79620547520E+02 0.  0.
          5    1    5    5  501    0  0.55559835419E+02 -0.40273633626E+02  0.30866765699E+02  0.75390371414E+02  0.47000000000E+01 0. -1.
        -11    1    6    6    0    0 -0.11659092922E+01 -0.43586904475E+02  0.94440444625E+02  0.10402007098E+03  0.00000000000E+00 0.  1.
         12    1    6    6    0    0 -0.49254619954E+02  0.18960281257E+02  0.81836653462E+02  0.97379400810E+02  0.00000000000E+00 0. -1.
         -5    1    3    3    0  503  0.56986640058E+02  0.53886487157E+02  0.27064954087E+02  0.83101338034E+02  0.47000000000E+01 0.  1.
         11    1    4    4    0    0 -0.16854384294E+02 -0.25630755211E+02  0.54960369756E+02  0.62941624751E+02  0.00000000000E+00 0. -1.
        -12    1    4    4    0    0 -0.45271561938E+02  0.36644524897E+02  0.89288661637E+01  0.58924190077E+02  0.00000000000E+00 0.  1.
</event>
<event>
12    1  0.1628146E-001  0.1932271E+03  0.7818608E-02  0.1155651E+00
         21   -1    0    0  503  502  0.00000000000E+00  0.00000000000E+00  0.33819911912E+03  0.33819911912E+03  0.00000000000E+00 0.  1.
         21   -1    0    0  501  503 -0.00000000000E+00 -0.00000000000E+00 -0.13207037109E+03  0.13207037109E+03  0.00000000000E+00 0.  1.
          6    2    1    2  501    0 -0.32354515277E+02  0.81722577855E+02  0.19877408853E+03  0.27721446167E+03  0.17207941509E+03 0.  0.
         24    2    3    3    0    0 -0.76879297373E+02  0.70442111093E+02  0.89163068621E+02  0.15827594462E+03  0.78922141763E+02 0.  0.
         -6    2    1    2    0  502  0.32354515277E+02 -0.81722577855E+02  0.73546594976E+01  0.19305502854E+03  0.17172873562E+03 0.  0.
        -24    2    5    5    0    0 -0.90615950393E+01 -0.78223875765E+01 -0.45612820697E+02  0.93034149340E+02  0.80196766016E+02 0.  0.
          5    1    3    3  501    0  0.44524782096E+02  0.11280466762E+02  0.10961101991E+03  0.11893851705E+03  0.47000000000E+01 0. -1.
        -13    1    4    4    0    0 -0.77115318379E+02  0.22491906735E+02  0.40510746041E+02  0.89965430817E+02  0.00000000000E+00 0.  1.
         14    1    4    4    0    0  0.23602100625E+00  0.47950204359E+02  0.48652322580E+02  0.68310513806E+02  0.00000000000E+00 0. -1.
         -5    1    5    5    0  502  0.41416110316E+02 -0.73900190279E+02  0.52967480195E+02  0.10002087920E+03  0.47000000000E+01 0.  1.
         11    1    6    6    0    0 -0.20918751445E+02 -0.34018799866E+02 -0.98901567056E+00  0.39948104564E+02  0.00000000000E+00 0. -1.
        -12    1    6    6    0    0  0.11857156405E+02  0.26196412289E+02 -0.44623805027E+02  0.53086044775E+02  0.00000000000E+00 0.  1.
</event>
<event>
12    1  0.1628146E-001  0.1906139E+03  0.7818608E-02  0.1158050E+00
         21   -1    0    0  503  502  0.00000000000E+00  0.00000000000E+00  0.12741881351E+03  0.12741881351E+03  0.00000000000E+00 0. -1.
         21   -1    0    0  501  503 -0.00000000000E+00 -0.00000000000E+00 -0.30998759004E+03  0.30998759004E+03  0.00000000000E+00 0.  1.
          6    2    1    2  501    0 -0.18671324806E+02 -0.79770212050E+02 -0.15420874785E+03  0.24469436058E+03  0.17141495584E+03 0.  0.
         24    2    3    3    0    0  0.15643476774E+02 -0.10655071436E+03 -0.76433857123E+02  0.15544345281E+03  0.81992435074E+02 0.  0.
         -6    2    1    2    0  502  0.18671324806E+02  0.79770212050E+02 -0.28360028679E+02  0.19271204297E+03  0.17210966032E+03 0.  0.
        -24    2    5    5    0    0 -0.13611240133E+02 -0.21671906948E+02 -0.19815017187E+02  0.85811272495E+02  0.79473279613E+02 0.  0.
          5    1    3    3  501    0 -0.34314801580E+02  0.26780502309E+02 -0.77774890728E+02  0.89250907777E+02  0.47000000000E+01 0. -1.
        -11    1    4    4    0    0  0.44737786138E+02 -0.41486179429E+02 -0.51790402306E+02  0.80030109104E+02  0.00000000000E+00 0.  1.
         12    1    4    4    0    0 -0.29094309363E+02 -0.65064534929E+02 -0.24643454817E+02  0.75413343701E+02  0.00000000000E+00 0. -1.
         -5    1    5    5    0  502  0.32282564939E+02  0.10144211900E+03 -0.85450114923E+01  0.10690077047E+03  0.47000000000E+01 0.  1.
         13    1    6    6    0    0  0.16692100134E+02  0.21753427077E+02  0.40706296991E+01  0.27720169960E+02  0.00000000000E+00 0. -1.
        -14    1    6    6    0    0 -0.30303340267E+02 -0.43425334025E+02 -0.23885646886E+02  0.58091102535E+02  0.00000000000E+00 0.  1.
</event>
<event>
12    1  0.1628146E-001  0.2121645E+03  0.7818608E-02  0.1140524E+00
         21   -1    0    0  503  502  0.00000000000E+00  0.00000000000E+00  0.11383673222E+03  0.11383673222E+03  0.00000000000E+00 0.  1.
         21   -1    0    0  501  503 -0.00000000000E+00 -0.00000000000E+00 -0.58098705463E+03  0.58098705463E+03  0.00000000000E+00 0.  1.
          6    2    1    2  501    0 -0.33517329297E+02  0.11534524186E+03 -0.43442181344E+03  0.48346261369E+03  0.17488810897E+03 0.  0.
         24    2    3    3    0    0 -0.58037268161E+02  0.95982570576E+02 -0.19247882543E+03  0.23946540082E+03  0.87832804813E+02 0.  0.
         -6    2    1    2    0  502  0.33517329297E+02 -0.11534524186E+03 -0.32728508972E+02  0.21136117315E+03  0.17080531032E+03 0.  0.
        -24    2    5    5    0    0 -0.19455248505E+02 -0.83620210959E+02 -0.73692637178E+02  0.13711347026E+03  0.77450968864E+02 0.  0.
          5    1    3    3  501    0  0.24519938864E+02  0.19362671286E+02 -0.24194298801E+03  0.24399721287E+03  0.47000000000E+01 0. -1.
        -11    1    4    4    0    0 -0.63015483945E+02  0.57771884503E+02 -0.17947643589E+03  0.19879721551E+03  0.00000000000E+00 0.  1.
         12    1    4    4    0    0  0.49782157842E+01  0.38210686073E+02 -0.13002389542E+02  0.40668185310E+02  0.00000000000E+00 0. -1.
         -5    1    5    5    0  502  0.52972577802E+02 -0.31725030903E+02  0.40964128206E+02  0.74247702890E+02  0.47000000000E+01 0.  1.
         13    1    6    6    0    0 -0.37818990236E+02 -0.17110329900E+02 -0.88806026038E+01  0.42448845854E+02  0.00000000000E+00 0. -1.
        -14    1    6    6    0    0  0.18363741731E+02 -0.66509881058E+02 -0.64812034574E+02  0.94664624408E+02  0.00000000000E+00 0.  1.
</event>
<event>
12    1  0.1628146E-001  0.1780082E+03  0.7818608E-02  0.1169941E+00
         21   -1    0    0  503  502  0.00000000000E+00  0.00000000000E+00  0.66843095685E+03  0.66843095685E+03  0.00000000000E+00 0.  1.
         21   -1    0    0  501  503 -0.00000000000E+00 -0.00000000000E+00 -0.47332773316E+02  0.47332773316E+02  0.00000000000E+00 0.  1.
          6    2    1    2  501    0  0.33426136189E+02 -0.31496887729E+02  0.32929335205E+03  0.37394946696E+03  0.17115703788E+03 0.  0.
         24    2    3    3    0    0 -0.16986980093E+02 -0.52478280274E+02  0.10285688499E+03  0.14097465128E+03  0.79068237114E+02 0.  0.
         -6    2    1    2    0  502 -0.33426136189E+02  0.31496887729E+02  0.29180483149E+03  0.34181426321E+03  0.17198130811E+03 0.  0.
        -24    2    5    5    0    0  0.34877258027E+02  0.57110102825E+02  0.16050596834E+03  0.19153827740E+03  0.80291711047E+02 0.  0.
          5    1    3    3  501    0  0.50413116281E+02  0.20981392545E+02  0.22643646706E+03  0.23297481568E+03  0.47000000000E+01 0. -1.
        -13    1    4    4    0    0  0.17821160691E+02  0.25701033378E+01  0.60885834133E+02  0.63492393227E+02  0.00000000000E+00 0.  1.
         14    1    4    4    0    0 -0.34808140783E+02 -0.55048383611E+02  0.41971050860E+02  0.77482258055E+02  0.00000000000E+00 0. -1.
         -5    1    5    5    0  502 -0.68303394216E+02 -0.25613215096E+02  0.13129886314E+03  0.15027598581E+03  0.47000000000E+01 0.  1.
         11    1    6    6    0    0 -0.68397744571E+01 -0.16746444638E+02  0.42681734791E+02  0.46356837763E+02  0.00000000000E+00 0. -1.
        -12    1    6    6    0    0  0.41717032485E+02  0.73856547463E+02  0.11782423355E+03  0.14518143963E+03  0.00000000000E+00 0.  1.
</event>
<event>
12    1  0.1628146E-001  0.1725415E+03  0.7818608E-02  0.1175288E+00
         21   -1    0    0  503  502  0.00000000000E+00  0.00000000000E+00  0.60352010042E+03  0.60352010042E+03  0.00000000000E+00 0.  1.
         21   -1    0    0  501  503 -0.00000000000E+00 -0.00000000000E+00 -0.37299705883E+03  0.37299705883E+03  0.00000000000E+00 0.  1.
          6    2    1    2  501    0 -0.75582557286E+01 -0.19423023741E+02 -0.33960659567E+03  0.38092416681E+03  0.17127813624E+03 0.  0.
         24    2    3    3    0    0  0.57333263824E+02 -0.35119596046E+02 -0.18356931758E+03  0.21113896767E+03  0.79758887562E+02 0.  0.
         -6    2    1    2    0  502  0.75582557286E+01  0.19423023741E+02  0.57012963727E+03  0.59559299244E+03  0.17102288817E+03 0.  0.
        -24    2    5    5    0    0 -0.39305713025E+02  0.43895654837E+02  0.48732986815E+03  0.49724141388E+03  0.79289694782E+02 0.  0.
          5    1    3    3  501    0 -0.64891519552E+02  0.15696572305E+02 -0.15603727809E+03  0.16978519914E+03  0.47000000000E+01 0. -1.
        -11    1    4    4    0    0  0.45117835298E+02  0.18668004300E+02 -0.94633833557E+02  0.10648791434E+03  0.00000000000E+00 0.  1.
         12    1    4    4    0    0  0.12215428525E+02 -0.53787600346E+02 -0.88935484026E+02  0.10465105333E+03  0.00000000000E+00 0. -1.
         -5    1    5    5    0  502  0.46863968753E+02 -0.24472631096E+02  0.82799769114E+02  0.98351578560E+02  0.47000000000E+01 0.  1.
         11    1    6    6    0    0 -0.84697287963E+01  0.35614269604E+02  0.72820968992E+02  0.81504638091E+02  0.00000000000E+00 0. -1.
        -12    1    6    6    0    0 -0.30835984229E+02  0.82813852328E+01  0.41450889916E+03  0.41573677579E+03  0.00000000000E+00 0.  1.
</event>
<event>
12    1  0.1628146E-001  0.1966682E+03  0.7818608E-02  0.1153335E+00
         21   -1    0    0  501  502  0.00000000000E+00  0.00000000000E+00  0.12756277681E+04  0.12756277681E+04  0.00000000000E+00 0.  1.
         21   -1    0    0  502  503 -0.00000000000E+00 -0.00000000000E+00 -0.54449436788E+02  0.54449436788E+02  0.00000000000E+00 0.  1.
         -6    2    1    2    0  503  0.11274567730E+01 -0.95308430956E+02  0.16007075218E+03  0.25089803701E+03  0.16805419097E+03 0.  0.
        -24    2    3    3    0    0 -0.43728019563E+02 -0.10609054789E+03  0.88502186675E+02  0.16561956745E+03  0.80186408010E+02 0.  0.
          6    2    1    2  501    0 -0.11274567730E+01  0.95308430956E+02  0.10611075791E+04  0.10791791679E+04  0.17202736329E+03 0.  0.
         24    2    5    5    0    0 -0.30667935405E+02  0.11483569795E+02  0.29365073152E+03  0.30657878594E+03  0.81776556713E+02 0.  0.
          5    1    5    5  501    0  0.29540478632E+02  0.83824861161E+02  0.76745684759E+03  0.77260038192E+03  0.47000000000E+01 0. -1.
        -13    1    6    6    0    0 -0.24215730419E+02  0.42252303365E+02  0.11058671453E+03  0.12083492943E+03  0.00000000000E+00 0.  1.
         14    1    6    6    0    0 -0.64522049854E+01 -0.30768733570E+02  0.18306401699E+03  0.18574385651E+03  0.00000000000E+00 0. -1.
         -5    1    3    3    0  503  0.44855476336E+02  0.10782116930E+02  0.71568565508E+02  0.85278469567E+02  0.47000000000E+01 0.  1.
         13    1    4    4    0    0 -0.19554873183E+02  0.95695445223E+01  0.12037933853E+02  0.24877320978E+02  0.00000000000E+00 0. -1.
        -14    1    4    4    0    0 -0.24173146380E+02 -0.11566009241E+03  0.76464252822E+02  0.14074224647E+03  0.00000000000E+00 0.  1.
</event>
<event>
12    1  0.1628146E-001  0.1755384E+03  0.7818608E-02  0.1172958E+00
         21   -1    0    0  503  502  0.00000000000E+00  0.00000000000E+00  0.85498427567E+02  0.85498427567E+02  0.00000000000E+00 0.  1.
         21   -1    0    0  501  503 -0.00000000000E+00 -0.00000000000E+00 -0.41360553350E+03  0.41360553350E+03  0.00000000000E+00 0.  1.
          6    2    1    2  501    0  0.63812799834E+01  0.36926368304E+02 -0.25740293250E+03  0.30986124929E+03  0.16838481743E+03 0.  0.
         24    2    3    3    0    0  0.57191182701E+02  0.46531039997E+02 -0.11049938621E+03  0.15405162877E+03  0.78011671650E+02 0.  0.
         -6    2    1    2    0  502 -0.63812799834E+01 -0.36926368304E+02 -0.70704173436E+02  0.18924271178E+03  0.17149182607E+03 0.  0.
        -24    2    5    5    0    0  0.18613473292E+02  0.60447906683E+00 -0.10358862744E+03  0.13323575229E+03  0.81696604404E+02 0.  0.
          5    1    3    3  501    0 -0.50809902718E+02 -0.96046716928E+01 -0.14690354629E+03  0.15580962052E+03  0.47000000000E+01 0. -1.
        -13    1    4    4    0    0  0.39272437800E+02  0.24979054292E+02 -0.11644298876E+03  0.12540034751E+03  0.00000000000E+00 0.  1.
         14    1    4    4    0    0  0.17918744901E+02  0.21551985705E+02  0.59436025548E+01  0.28651281262E+02  0.00000000000E+00 0. -1.
         -5    1    5    5    0  502 -0.24994753275E+02 -0.37530847371E+02  0.32884454004E+02  0.56006959485E+02  0.47000000000E+01 0.  1.
         11    1    6    6    0    0  0.24295611749E+02  0.26188132758E+02 -0.11556941340E+02  0.37545411714E+02  0.00000000000E+00 0. -1.
        -12    1    6    6    0    0 -0.56821384579E+01 -0.25583653691E+02 -0.92031686100E+02  0.95690340579E+02  0.00000000000E+00 0.  1.
</event>
<event>
12    1  0.1628146E-001  0.2082230E+03  0.7818608E-02  0.1143146E+00
         21   -1    0    0  503  502  0.00000000000E+00  0.00000000000E+00  0.59647112287E+02  0.59647112287E+02  0.00000000000E+00 0.  1.
         21   -1    0    0  501  503 -0.00000000000E+00 -0.00000000000E+00 -0.93731097047E+03  0.93731097047E+03  0.00000000000E+00 0. -1.
          6    2    1    2  501    0  0.44315145757E+02  0.10647794952E+03 -0.20037806767E+03  0.28838707875E+03  0.17237851174E+03 0.  0.
         24    2    3    3    0    0  0.30192175691E+02  0.74991040884E+01 -0.28233211118E+02  0.89258447553E+02  0.78753744130E+02 0.  0.
         -6    2    1    2    0  502 -0.44315145757E+02 -0.10647794952E+03 -0.67728579051E+03  0.70857100400E+03  0.17336504783E+03 0.  0.
        -24    2    5    5    0    0 -0.85073188379E+01 -0.66595738202E+02 -0.62376587619E+03  0.63268119918E+03  0.81818486103E+02 0.  0.
          5    1    3    3  501    0  0.14122970066E+02  0.98978845429E+02 -0.17214485655E+03  0.19912863120E+03  0.47000000000E+01 0. -1.
        -11    1    4    4    0    0  0.12715517730E+02  0.38997918089E+02 -0.33361888008E+02  0.52872843482E+02  0.00000000000E+00 0.  1.
         12    1    4    4    0    0  0.17476657961E+02 -0.31498814001E+02  0.51286768896E+01  0.36385604071E+02  0.00000000000E+00 0. -1.
         -5    1    5    5    0  502 -0.35807826919E+02 -0.39882211315E+02 -0.53519914320E+02  0.75889804828E+02  0.47000000000E+01 0.  1.
         11    1    6    6    0    0  0.98228216041E+01 -0.11613264400E+01 -0.36523435121E+03  0.36536826328E+03  0.00000000000E+00 0. -1.
        -12    1    6    6    0    0 -0.18330140442E+02 -0.65434411762E+02 -0.25853152498E+03  0.26731293590E+03  0.00000000000E+00 0.  1.
</event>
<event>
12    1  0.1628146E-001  0.1893525E+03  0.7818608E-02  0.1159133E+00
         21   -1    0    0  501  502  0.00000000000E+00  0.00000000000E+00  0.10189220609E+03  0.10189220609E+03  0.00000000000E+00 0.  1.
         21   -1    0    0  502  503 -0.00000000000E+00 -0.00000000000E+00 -0.40270928764E+03  0.40270928764E+03  0.00000000000E+00 0.  1.
         -6    2    1    2    0  503 -0.23105314189E+02 -0.74255573515E+02 -0.24052778734E+03  0.30588269265E+03  0.17222909000E+03 0.  0.
        -24    2    3    3    0    0 -0.27460341658E+00 -0.64172765121E+02 -0.25788818904E+03  0.27511943654E+03  0.71177012603E+02 0.  0.
          6    2    1    2  501    0  0.23105314189E+02  0.74255573515E+02 -0.60289294208E+02  0.19871880109E+03  0.17264593006E+03 0.  0.
         24    2    5    5    0    0  0.27473517972E+02 -0.77616016521E+01  0.16912674045E+02  0.85899777296E+02  0.79231916209E+02 0.  0.
          5    1    5    5  501    0 -0.43682037833E+01  0.82017175167E+02 -0.77201968253E+02  0.11281902379E+03  0.47000000000E+01 0. -1.
        -13    1    6    6    0    0  0.43188646677E+02  0.23451047663E+02  0.75469412691E+01  0.49720892599E+02  0.00000000000E+00 0.  1.
         14    1    6    6    0    0 -0.15715128705E+02 -0.31212649315E+02  0.93657327757E+01  0.36178884697E+02  0.00000000000E+00 0. -1.
         -5    1    3    3    0  503 -0.22830710772E+02 -0.10082808394E+02  0.17360401703E+02  0.30763256114E+02  0.47000000000E+01 0.  1.
         11    1    4    4    0    0  0.29411481626E+02 -0.13415967688E+02 -0.54146668172E+02  0.63062549224E+02  0.00000000000E+00 0. -1.
        -12    1    4    4    0    0 -0.29686085043E+02 -0.50756797433E+02 -0.20374152087E+03  0.21205688732E+03  0.00000000000E+00 0.  1.
</event>
<event>
12    1  0.1628146E-001  0.2233247E+03  0.7818608E-02  0.1131464E+00
         21   -1    0    0  501  502  0.00000000000E+00  0.00000000000E+00  0.28034452469E+02  0.28034452469E+02  0.00000000000E+00 0. -1.
         21   -1    0    0  502  503 -0.00000000000E+00 -0.00000000000E+00 -0.25634723823E+04  0.25634723823E+04  0.00000000000E+00 0.  1.
         -6    2    1    2    0  503 -0.63796215840E+02 -0.12663201246E+03 -0.19856069884E+04  0.19981263754E+04  0.17253485423E+03 0.  0.
        -24    2    3    3    0    0 -0.98154460524E+02 -0.55960960592E+02 -0.14673982234E+04  0.14739724851E+04  0.81064256409E+02 0.  0.
          6    2    1    2  501    0  0.63796215840E+02  0.12663201246E+03 -0.54983094146E+03  0.59338045941E+03  0.17228082215E+03 0.  0.
         24    2    5    5    0    0  0.25908742402E+01  0.66327978925E+02 -0.44913031005E+03  0.46092149418E+03  0.79526567735E+02 0.  0.
          5    1    5    5  501    0  0.61205341600E+02  0.60304033540E+02 -0.10070063141E+03  0.13245896522E+03  0.47000000000E+01 0. -1.
        -13    1    6    6    0    0  0.15204706043E+02 -0.55068768819E+01 -0.21703214582E+03  0.21763377747E+03  0.00000000000E+00 0.  1.
         14    1    6    6    0    0 -0.12613831803E+02  0.71834855806E+02 -0.23209816423E+03  0.24328771671E+03  0.00000000000E+00 0. -1.
         -5    1    3    3    0  503  0.34358244684E+02 -0.70671051872E+02 -0.51820876501E+03  0.52415389027E+03  0.47000000000E+01 0.  1.
         13    1    4    4    0    0 -0.85591474752E+02 -0.71039291679E+02 -0.10009218741E+04  0.10070834522E+04  0.00000000000E+00 0. -1.
        -14    1    4    4    0    0 -0.12562985773E+02  0.15078331087E+02 -0.46647634923E+03  0.46688903293E+03  0.00000000000E+00 0.  1.
</event>
<event>
12    1  0.1628146E-001  0.1926293E+03  0.7818608E-02  0.1157879E+00
         21   -1    0    0  503  502  0.00000000000E+00  0.00000000000E+00  0.13207785133E+03  0.13207785133E+03  0.00000000000E+00 0.  1.
         21   -1    0    0  501  503 -0.00000000000E+00 -0.00000000000E+00 -0.17140694004E+04  0.17140694004E+04  0.00000000000E+00 0.  1.
          6    2    1    2  501    0  0.70738076632E+02  0.47622359484E+01 -0.16408973893E+04  0.16521653326E+04  0.17910748026E+03 0.  0.
         24    2    3    3    0    0  0.78232271345E+02 -0.14670582749E+02 -0.16140014060E+04  0.16178246670E+04  0.77592526080E+02 0.  0.
         -6    2    1    2    0  502 -0.70738076632E+02 -0.47622359484E+01  0.58905840204E+02  0.19398191920E+03  0.17068254917E+03 0.  0.
        -24    2    5    5    0    0 -0.32357770438E+02 -0.65507512442E+02  0.56417082818E+02  0.12193110080E+03  0.79662077640E+02 0.  0.
          5    1    3    3  501    0 -0.74941947131E+01  0.19432818698E+02 -0.26895983303E+02  0.34340665613E+02  0.47000000000E+01 0. -1.
        -13    1    4    4    0    0  0.55877354854E+02  0.28361912443E+02 -0.90482823017E+03  0.90699548124E+03  0.00000000000E+00 0.  1.
         14    1    4    4    0    0  0.22354916491E+02 -0.43032495192E+02 -0.70917317584E+03  0.71082918571E+03  0.00000000000E+00 0. -1.
         -5    1    5    5    0  502 -0.38380306194E+02  0.60745276493E+02  0.24887573859E+01  0.72050818407E+02  0.47000000000E+01 0.  1.
         11    1    6    6    0    0 -0.49358491643E+01  0.18720577826E+02  0.12670132698E+02  0.23137737653E+02  0.00000000000E+00 0. -1.
        -12    1    6    6    0    0 -0.27421921274E+02 -0.84228090268E+02  0.43746950119E+02  0.98793363144E+02  0.00000000000E+00 0.  1.
</event>
<event>
12    1  0.1628146E-001  0.2008007E+03  0.7818608E-02  0.1149286E+00
         21   -1    0    0  501  502  0.00000000000E+00  0.00000000000E+00  0.12245623117E+03  0.12245623117E+03  0.00000000000E+00 0. -1.
         21   -1    0    0  502  503 -0.00000000000E+00 -0.00000000000E+00 -0.36716521797E+03  0.36716521797E+03  0.00000000000E+00 0. -1.
         -6    2    1    2    0  503  0.55397597095E+02  0.86687910189E+02 -0.20305050601E+03  0.28557036888E+03  0.17244488991E+03 0.  0.
        -24    2    3    3    0    0 -0.30988522169E+02  0.27966831600E+02 -0.12596330989E+03  0.15566558653E+03  0.81379280010E+02 0.  0.
          6    2    1    2  501    0 -0.55397597095E+02 -0.86687910189E+02 -0.41658480791E+02  0.20405108026E+03  0.17122420038E+03 0.  0.
         24    2    5    5    0    0 -0.20310309494E+01 -0.67147420969E+02 -0.84912656919E+02  0.13247709858E+03  0.76335582223E+02 0.  0.
          5    1    5    5  501    0 -0.53366566146E+02 -0.19540489220E+02  0.43254176128E+02  0.71573981681E+02  0.47000000000E+01 0. -1.
        -13    1    6    6    0    0  0.14850522090E+02  0.86233658754E+01 -0.38187710305E+02  0.41871251041E+02  0.00000000000E+00 0.  1.
         14    1    6    6    0    0 -0.16881553039E+02 -0.75770786844E+02 -0.46724946614E+02  0.90605847538E+02  0.00000000000E+00 0. -1.
         -5    1    3    3    0  503  0.86386119264E+02  0.58721078588E+02 -0.77087196114E+02  0.12990478235E+03  0.47000000000E+01 0.  1.
         13    1    4    4    0    0  0.19020271104E+02  0.25605228106E+02 -0.85622264389E+02  0.91370512630E+02  0.00000000000E+00 0. -1.
        -14    1    4    4    0    0 -0.50008793272E+02  0.23616034939E+01 -0.40341045506E+02  0.64295073902E+02  0.00000000000E+00 0.  1.
</event>
<event>
12    1  0.1628146E-001  0.1944217E+03  0.7818608E-02  0.1154589E+00
         21   -1    0    0  503  502  0.00000000000E+00  0.00000000000E+00  0.79638765819E+03  0.79638765819E+03  0.00000000000E+00 0. -1.
         21   -1    0    0  501  503 -0.00000000000E+00 -0.00000000000E+00 -0.14126798921E+03  0.14126798921E+03  0.00000000000E+00 0. -1.
          6    2    1    2  501    0  0.11873472159E+02 -0.89826014530E+02 -0.54529131716E+02  0.20192379822E+03  0.17201773704E+03 0.  0.
         24    2    3    3    0    0  0.41799217206E+02 -0.11748056797E+03 -0.62562185547E+02  0.16012733311E+03  0.78599474156E+02 0.  0.
         -6    2    1    2    0  502 -0.11873472159E+02  0.89826014530E+02  0.70964880069E+03  0.73573184918E+03  0.17172722949E+03 0.  0.
        -24    2    5    5    0    0 -0.33567673726E+02  0.10295689539E+03  0.69122041820E+03  0.70403399917E+03  0.78430188228E+02 0.  0.
          5    1    3    3  501    0 -0.29925745047E+02  0.27654553440E+02  0.80330538309E+01  0.41796465119E+02  0.47000000000E+01 0. -1.
        -13    1    4    4    0    0 -0.99225120661E+01 -0.65378563486E+02 -0.55577310383E+02  0.86380844164E+02  0.00000000000E+00 0.  1.
         14    1    4    4    0    0  0.51721729272E+02 -0.52102004484E+02 -0.69848751640E+01  0.73746488941E+02  0.00000000000E+00 0. -1.
         -5    1    5    5    0  502  0.21694201567E+02 -0.13130880862E+02  0.18428382488E+02  0.31697850006E+02  0.47000000000E+01 0.  1.
         13    1    6    6    0    0 -0.41206093291E+02  0.30461481006E+02  0.16459440247E+03  0.17238666212E+03  0.00000000000E+00 0. -1.
        -14    1    6    6    0    0  0.76384195647E+01  0.72495414386E+02  0.52662601572E+03  0.53164733705E+03  0.00000000000E+00 0.  1.
</event>
<event>
12    1  0.1628146E-001  0.2445003E+03  0.7818608E-02  0.1116936E+00
         21   -1    0    0  503  502  0.00000000000E+00  0.00000000000E+00  0.21097587461E+03  0.21097587461E+03  0.00000000000E+00 0. -1.
         21   -1    0    0  501  503 -0.00000000000E+00 -0.00000000000E+00 -0.28347825672E+03  0.28347825672E+03  0.00000000000E+00 0.  1.
          6    2    1    2  501    0  0.12166606662E+03 -0.12349827995E+03 -0.22442622212E+02  0.24488171178E+03  0.17149030455E+03 0.  0.
         24    2    3    3    0    0  0.68815611531E+01 -0.90717878056E+02 -0.34360348071E+02  0.12482272780E+03  0.78249540401E+02 0.  0.
         -6    2    1    2    0  502 -0.12166606662E+03  0.12349827995E+03 -0.50059759896E+02  0.24957241956E+03  0.17241216931E+03 0.  0.
        -24    2    5    5    0    0 -0.35516513060E+02  0.12110796575E+02  0.22128004443E+02  0.91262342965E+02  0.80193968410E+02 0.  0.
          5    1    3    3  501    0  0.11478450547E+03 -0.32780401891E+02  0.11917725859E+02  0.12005898398E+03  0.47000000000E+01 0. -1.
        -11    1    4    4    0    0  0.34738858772E+02 -0.46849825578E+02 -0.42576958608E+02  0.72211438635E+02  0.00000000000E+00 0.  1.
         12    1    4    4    0    0 -0.27857297619E+02 -0.43868052478E+02  0.82166105367E+01  0.52611289164E+02  0.00000000000E+00 0. -1.
         -5    1    5    5    0  502 -0.86149553564E+02  0.11138748337E+03 -0.72187764340E+02  0.15831007660E+03  0.47000000000E+01 0.  1.
         11    1    6    6    0    0  0.43036481439E+01  0.38401471835E+02  0.19970486145E+02  0.43497295816E+02  0.00000000000E+00 0. -1.
        -12    1    6    6    0    0 -0.39820161204E+02 -0.26290675260E+02  0.21575182982E+01  0.47765047149E+02  0.00000000000E+00 0.  1.
</event>
<event>
12    1  0.1628146E-001  0.2093264E+03  0.7818608E-02  0.1142513E+00
         21   -1    0    0  503  502  0.00000000000E+00  0.00000000000E+00  0.14436357515E+03  0.14436357515E+03  0.00000000000E+00 0.  1.
         21   -1    0    0  501  503 -0.00000000000E+00 -0.00000000000E+00 -0.53228314775E+03  0.53228314775E+03  0.00000000000E+00 0.  1.
          6    2    1    2  501    0  0.93509415504E+02 -0.70501049453E+02 -0.41774022953E+03  0.46725198915E+03  0.17350248769E+03 0.  0.
         24    2    3    3    0    0  0.12368120236E+03 -0.89518459178E+02 -0.34127440498E+03  0.38274689510E+03  0.81953473803E+02 0.  0.
         -6    2    1    2    0  502 -0.93509415504E+02  0.70501049453E+02  0.29820656924E+02  0.20939473376E+03  0.17100431043E+03 0.  0.
        -24    2    5    5    0    0 -0.25768719168E+02 -0.14058780555E+02 -0.15798211338E+02  0.91741268309E+02  0.85470466427E+02 0.  0.
          5    1    3    3  501    0 -0.30171786858E+02  0.19017409725E+02 -0.76465824552E+02  0.84505094044E+02  0.47000000000E+01 0. -1.
        -13    1    4    4    0    0  0.91704801989E+02 -0.73690283054E+02 -0.32061650539E+03  0.34151862621E+03  0.00000000000E+00 0.  1.
         14    1    4    4    0    0  0.31976400373E+02 -0.15828176125E+02 -0.20657899590E+02  0.41228268891E+02  0.00000000000E+00 0. -1.
         -5    1    5    5    0  502 -0.67740696335E+02  0.84559830008E+02  0.45618868262E+02  0.11765346545E+03  0.47000000000E+01 0.  1.
         13    1    6    6    0    0 -0.10699599000E+02 -0.31786630332E+02  0.26980593635E+02  0.43044438892E+02  0.00000000000E+00 0. -1.
        -14    1    6    6    0    0 -0.15069120168E+02  0.17727849777E+02 -0.42778804973E+02  0.48696829417E+02  0.00000000000E+00 0.  1.
</event>
<event>
12    1  0.1628146E-001  0.2219278E+03  0.7818608E-02  0.1134373E+00
         21   -1    0    0  503  502  0.00000000000E+00  0.00000000000E+00  0.39175234019E+03  0.39175234019E+03  0.00000000000E+00 0. -1.
         21   -1    0    0  501  503 -0.00000000000E+00 -0.00000000000E+00 -0.12012781636E+03  0.12012781636E+03  0.00000000000E+00 0.  1.
          6    2    1    2  501    0 -0.68428573877E+02  0.11002805415E+03  0.14607358470E+03  0.26568671879E+03  0.18017574190E+03 0.  0.
         24    2    3    3    0    0 -0.10367454346E+02 -0.98297694148E+00  0.11624490179E+02  0.81857472902E+02  0.80355875608E+02 0.  0.
         -6    2    1    2    0  502  0.68428573877E+02 -0.11002805415E+03  0.12555093913E+03  0.24619343776E+03  0.16750978496E+03 0.  0.
        -24    2    5    5    0    0 -0.20767934263E+02 -0.85018694900E+02  0.77588453535E+02  0.14177133695E+03  0.80122770055E+02 0.  0.
          5    1    3    3  501    0 -0.58061119531E+02  0.11101103109E+03  0.13444909452E+03  0.18382924589E+03  0.47000000000E+01 0. -1.
        -11    1    4    4    0    0 -0.41782715210E+02 -0.49850238366E+01  0.23306538089E+02  0.48102395686E+02  0.00000000000E+00 0.  1.
         12    1    4    4    0    0  0.31415260864E+02  0.40020468951E+01 -0.11682047910E+02  0.33755077217E+02  0.00000000000E+00 0. -1.
         -5    1    5    5    0  502  0.89196508140E+02 -0.25009359249E+02  0.47962485596E+02  0.10442210082E+03  0.47000000000E+01 0.  1.
         13    1    6    6    0    0  0.83855182685E+01 -0.76202903380E+02  0.24351187703E+02  0.80437427500E+02  0.00000000000E+00 0. -1.
        -14    1    6    6    0    0 -0.29153452531E+02 -0.88157915194E+01  0.53237265832E+02  0.61333909446E+02  0.00000000000E+00 0.  1.
</event>
<event>
12    1  0.1628146E-001  0.2004726E+03  0.7818608E-02  0.1150511E+00
         21   -1    0    0  503  502  0.00000000000E+00  0.00000000000E+00  0.13765045149E+04  0.13765045149E+04  0.00000000000E+00 0.  1.
         21   -1    0    0  501  503 -0.00000000000E+00 -0.00000000000E+00 -0.28520110058E+02  0.28520110058E+02  0.00000000000E+00 0.  1.
          6    2    1    2  501    0  0.36503403776E+02 -0.86045011560E+02  0.61982560011E+03  0.64977333303E+03  0.17112967966E+03 0.  0.
         24    2    3    3    0    0  0.40061999426E+02 -0.87751410691E+02  0.62795146702E+03  0.63959025324E+03  0.73806322464E+02 0.  0.
         -6    2    1    2    0  502 -0.36503403776E+02  0.86045011560E+02  0.72815880477E+03  0.75525129197E+03  0.17735001143E+03 0.  0.
        -24    2    5    5    0    0  0.47508914166E+02  0.27998585044E+02  0.31459186510E+03  0.32923819265E+03  0.79929520368E+02 0.  0.
          5    1    3    3  501    0 -0.35585956498E+01  0.17063991302E+01 -0.81258669064E+01  0.10183079788E+02  0.47000000000E+01 0. -1.
        -11    1    4    4    0    0  0.38855758136E+02 -0.13426266985E+02  0.13673974871E+03  0.14278583075E+03  0.00000000000E+00 0.  1.
         12    1    4    4    0    0  0.12062412891E+01 -0.74325143706E+02  0.49121171831E+03  0.49680442250E+03  0.00000000000E+00 0. -1.
         -5    1    5    5    0  502 -0.84012317941E+02  0.58046426516E+02  0.41356693968E+03  0.42601309932E+03  0.47000000000E+01 0.  1.
         11    1    6    6    0    0  0.57346124392E+02  0.39827471104E+02  0.30005760836E+03  0.30807364991E+03  0.00000000000E+00 0. -1.
        -12    1    6    6    0    0 -0.98372102267E+01 -0.11828886059E+02  0.14534256742E+02  0.21164542742E+02  0.00000000000E+00 0.  1.
</event>
<event>
12    1  0.1628146E-001  0.1796215E+03  0.7818608E-02  0.1168346E+00
         21   -1    0    0  503  502  0.00000000000E+00  0.00000000000E+00  0.36194641007E+03  0.36194641007E+03  0.00000000000E+00 0. -1.
         21   -1    0    0  501  503 -0.00000000000E+00 -0.00000000000E+00 -0.26540770072E+03  0.26540770072E+03  0.00000000000E+00 0. -1.
          6    2    1    2  501    0 -0.49761744925E+02 -0.64559010539E+01 -0.20758870917E+03  0.27451218755E+03  0.17247016851E+03 0.  0.
         24    2    3    3    0    0 -0.70181232889E+02 -0.26572584261E+02 -0.21758084083E+03  0.24379461722E+03  0.80392073033E+02 0.  0.
         -6    2    1    2    0  502  0.49761744925E+02  0.64559010539E+01  0.30412741852E+03  0.35284192324E+03  0.17171495620E+03 0.  0.
        -24    2    5    5    0    0  0.44499683788E+02 -0.25864698669E+02  0.30506287346E+03  0.31974697604E+03  0.80780984350E+02 0.  0.
          5    1    3    3  501    0  0.20419487964E+02  0.20116683207E+02  0.99921316593E+01  0.30717570332E+02  0.47000000000E+01 0. -1.
        -11    1    4    4    0    0 -0.66839343378E+02 -0.26673958616E+02 -0.85858353895E+02  0.11202970510E+03  0.00000000000E+00 0.  1.
         12    1    4    4    0    0 -0.33418895116E+01  0.10137435511E+00 -0.13172248693E+03  0.13176491212E+03  0.00000000000E+00 0. -1.
         -5    1    5    5    0  502  0.52620611366E+01  0.32320599723E+02 -0.93545493805E+00  0.33094947195E+02  0.47000000000E+01 0.  1.
         11    1    6    6    0    0  0.16975794083E+02  0.62969765119E+01  0.24818932849E+03  0.24884889446E+03  0.00000000000E+00 0. -1.
        -12    1    6    6    0    0  0.27523889706E+02 -0.32161675181E+02  0.56873544966E+02  0.70898081582E+02  0.00000000000E+00 0.  1.
</event>
<event>
12    1  0.1628146E-001  0.2442815E+03  0.7818608E-02  0.1116978E+00
         21   -1    0    0  503  502  0.00000000000E+00  0.00000000000E+00  0.39922306671E+03  0.39922306671E+03  0.00000000000E+00 0. -1.
         21   -1    0    0  501  503 -0.00000000000E+00 -0.00000000000E+00 -0.17231878620E+03  0.17231878620E+03  0.00000000000E+00 0. -1.
          6    2    1    2  501    0 -0.13623080162E+03  0.10707624621E+03  0.93493195501E+01  0.24442778952E+03  0.17214348870E+03 0.  0.
         24    2    3    3    0    0 -0.12365428977E+03  0.27197252999E+02  0.46323208732E+02  0.15538858081E+03  0.77263817077E+02 0.  0.
         -6    2    1    2    0  502  0.13623080162E+03 -0.10707624621E+03  0.21755496095E+03  0.32711406339E+03  0.17218970823E+03 0.  0.
        -24    2    5    5    0    0  0.12940144760E+03 -0.12083771919E+03  0.12025678399E+03  0.22849842845E+03  0.80020926554E+02 0.  0.
          5    1    3    3  501    0 -0.12576511853E+02  0.79878993212E+02 -0.36973889182E+02  0.89039208712E+02  0.47000000000E+01 0. -1.
        -11    1    4    4    0    0 -0.41660518245E+01 -0.15780645533E+02  0.19810463676E+02  0.25667863805E+02  0.00000000000E+00 0.  1.
         12    1    4    4    0    0 -0.11948823795E+03  0.42977898532E+02  0.26512745056E+02  0.12972071700E+03  0.00000000000E+00 0. -1.
         -5    1    5    5    0  502  0.68293540196E+01  0.13761472981E+02  0.97298176958E+02  0.98615634938E+02  0.47000000000E+01 0.  1.
         13    1    6    6    0    0  0.55196596737E+02 -0.41720579264E+01  0.25959605334E+02  0.61138952132E+02  0.00000000000E+00 0. -1.
        -14    1    6    6    0    0  0.74204850867E+02 -0.11666566126E+03  0.94297178660E+02  0.16735947632E+03  0.00000000000E+00 0.  1.
</event>
<event>
12    1  0.1628146E-001  0.2063636E+03  0.7818608E-02  0.1144704E+00
         21   -1    0    0  503  502  0.00000000000E+00  0.00000000000E+00  0.54712952468E+02  0.54712952468E+02  0.00000000000E+00 0. -1.
         21   -1    0    0  501  503 -0.00000000000E+00 -0.00000000000E+00 -0.12644405544E+04  0.12644405544E+04  0.00000000000E+00 0. -1.
          6    2    1    2  501    0 -0.90107567260E+02 -0.66530033779E+02 -0.10165693972E+04  0.10373038521E+04  0.17332144474E+03 0.  0.
         24    2    3    3    0    0 -0.59996392054E+02 -0.16820711458E+01 -0.84976490345E+03  0.85576110159E+03  0.81389651911E+02 0.  0.
         -6    2    1    2    0  502  0.90107567260E+02  0.66530033779E+02 -0.19315820479E+03  0.28184965481E+03  0.17199859525E+03 0.  0.
        -24    2    5    5    0    0  0.58139495242E+02 -0.40740489468E+01 -0.17669643952E+03  0.20247728026E+03  0.79866253824E+02 0.  0.
          5    1    3    3  501    0 -0.30111175206E+02 -0.64847962633E+02 -0.16680449371E+03  0.18154275048E+03  0.47000000000E+01 0. -1.
        -13    1    4    4    0    0 -0.20201153106E+02 -0.17801389286E+02 -0.68387623675E+03  0.68440608066E+03  0.00000000000E+00 0.  1.
         14    1    4    4    0    0 -0.39795238948E+02  0.16119318140E+02 -0.16588866670E+03  0.17135502094E+03  0.00000000000E+00 0. -1.
         -5    1    5    5    0  502  0.31968072018E+02  0.70604082726E+02 -0.16461765262E+02  0.79372374549E+02  0.47000000000E+01 0.  1.
         13    1    6    6    0    0  0.37730907823E+02  0.69166336448E+01 -0.18492887809E+02  0.42584599631E+02  0.00000000000E+00 0. -1.
        -14    1    6    6    0    0  0.20408587418E+02 -0.10990682592E+02 -0.15820355172E+03  0.15989268063E+03  0.00000000000E+00 0.  1.
</event>
<event>
12    1  0.1628146E-001  0.1974615E+03  0.7818608E-02  0.1151943E+00
         21   -1    0    0  501  502  0.00000000000E+00  0.00000000000E+00  0.13681394205E+03  0.13681394205E+03  0.00000000000E+00 0.  1.
         21   -1    0    0  502  503 -0.00000000000E+00 -0.00000000000E+00 -0.33051733016E+03  0.33051733016E+03  0.00000000000E+00 0.  1.
         -6    2    1    2    0  503  0.29104640752E+02  0.90069840780E+02 -0.18381439482E+03  0.26962227941E+03  0.17305717403E+03 0.  0.
        -24    2    3    3    0    0  0.71326538857E+02  0.62476188625E+02 -0.63763350253E+02  0.13932093015E+03  0.79710773754E+02 0.  0.
          6    2    1    2  501    0 -0.29104640752E+02 -0.90069840780E+02 -0.98889932929E+01  0.19770899279E+03  0.17329569328E+03 0.  0.
         24    2    5    5    0    0  0.29249898130E+02 -0.79861635166E+01  0.27783484289E+02  0.90078663195E+02  0.80143048453E+02 0.  0.
          5    1    5    5  501    0 -0.58354538882E+02 -0.82083677264E+02 -0.37672477582E+02  0.10763032959E+03  0.47000000000E+01 0. -1.
        -13    1    6    6    0    0 -0.32139672785E+01 -0.30272918596E+02  0.38678073621E+02  0.49221667637E+02  0.00000000000E+00 0.  1.
         14    1    6    6    0    0  0.32463865409E+02  0.22286755079E+02 -0.10894589332E+02  0.40856995557E+02  0.00000000000E+00 0. -1.
         -5    1    3    3    0  503 -0.42221898105E+02  0.27593652155E+02 -0.12005104456E+03  0.13030134926E+03  0.47000000000E+01 0.  1.
         13    1    4    4    0    0  0.46790069465E+02 -0.57439132316E+00 -0.53189193362E+02  0.70843001181E+02  0.00000000000E+00 0. -1.
        -14    1    4    4    0    0  0.24536469392E+02  0.63050579948E+02 -0.10574156891E+02  0.68477928970E+02  0.00000000000E+00 0.  1.
</event>
<event>
12    1  0.1628146E-001  0.3034045E+03  0.7818608E-02  0.1084020E+00
         21   -1    0    0  503  502  0.00000000000E+00  0.00000000000E+00  0.53209691653E+02  0.53209691653E+02  0.00000000000E+00 0. -1.
         21   -1    0    0  501  503 -0.00000000000E+00 -0.00000000000E+00 -0.23179701367E+04  0.23179701367E+04  0.00000000000E+00 0. -1.
          6    2    1    2  501    0  0.15342993030E+03 -0.19739599488E+03 -0.17455091503E+04  0.17716818252E+04  0.17189640324E+03 0.  0.
         24    2    3    3    0    0  0.40550339013E+02 -0.14309540649E+03 -0.77494209816E+03  0.79305378103E+03  0.79236473584E+02 0.  0.
         -6    2    1    2    0  502 -0.15342993030E+03  0.19739599488E+03 -0.51925129468E+03  0.59949800315E+03  0.16513638739E+03 0.  0.
        -24    2    5    5    0    0 -0.19503613735E+02  0.56669851878E+02 -0.16125730193E+03  0.19216288995E+03  0.85620066509E+02 0.  0.
          5    1    3    3  501    0  0.11287959129E+03 -0.54300588394E+02 -0.97056705216E+03  0.97862804414E+03  0.47000000000E+01 0. -1.
        -11    1    4    4    0    0 -0.17120608464E+02 -0.24468621827E+02 -0.73813758160E+02  0.79625998153E+02  0.00000000000E+00 0.  1.
         12    1    4    4    0    0  0.57670947477E+02 -0.11862678466E+03 -0.70112834000E+03  0.71342778288E+03  0.00000000000E+00 0. -1.
         -5    1    5    5    0  502 -0.13392631657E+03  0.14072614300E+03 -0.35799399275E+03  0.40733511319E+03  0.47000000000E+01 0.  1.
         11    1    6    6    0    0  0.24411748804E+01  0.74735933967E+02 -0.10234120918E+03  0.12674834222E+03  0.00000000000E+00 0. -1.
        -12    1    6    6    0    0 -0.21944788615E+02 -0.18066082089E+02 -0.58916092752E+02  0.65414547729E+02  0.00000000000E+00 0.  1.
</event>
<event>
12    1  0.1628146E-001  0.3084068E+03  0.7818608E-02  0.1081157E+00
         21   -1    0    0  501  502  0.00000000000E+00  0.00000000000E+00  0.10837130518E+03  0.10837130518E+03  0.00000000000E+00 0.  1.
         21   -1    0    0  502  503 -0.00000000000E+00 -0.00000000000E+00 -0.91213954661E+03  0.91213954661E+03  0.00000000000E+00 0. -1.
         -6    2    1    2    0  503  0.22592317670E+03 -0.12017007411E+03 -0.50282151196E+03  0.58986798983E+03  0.17214134904E+03 0.  0.
        -24    2    3    3    0    0  0.13348096222E+03 -0.13756047594E+03 -0.39747517599E+03  0.44856006508E+03  0.80495742991E+02 0.  0.
          6    2    1    2  501    0 -0.22592317670E+03  0.12017007411E+03 -0.30094672947E+03  0.43064286197E+03  0.17147073249E+03 0.  0.
         24    2    5    5    0    0 -0.22621088341E+03  0.14665624602E+03 -0.27369993822E+03  0.39235346773E+03  0.79687948837E+02 0.  0.
          5    1    5    5  501    0  0.28770670740E+00 -0.26486171906E+02 -0.27246791253E+02  0.38289394236E+02  0.47000000000E+01 0. -1.
        -11    1    6    6    0    0 -0.18682513231E+03  0.15069597595E+03 -0.24810367588E+03  0.34520767838E+03  0.00000000000E+00 0.  1.
         12    1    6    6    0    0 -0.39385751100E+02 -0.40397299267E+01 -0.25596262340E+02  0.47145789349E+02  0.00000000000E+00 0. -1.
         -5    1    3    3    0  503  0.92442214482E+02  0.17390401826E+02 -0.10534633597E+03  0.14130792475E+03  0.47000000000E+01 0.  1.
         13    1    4    4    0    0  0.13420488524E+03 -0.14515382479E+03 -0.36390865559E+03  0.41413777138E+03  0.00000000000E+00 0. -1.
        -14    1    4    4    0    0 -0.72392302053E+00  0.75933488536E+01 -0.33566520407E+02  0.34422293700E+02  0.00000000000E+00 0.  1.
</event>
<event>
12    1  0.1628146E-001  0.3065696E+03  0.7818608E-02  0.1082075E+00
         21   -1    0    0  503  502  0.00000000000E+00  0.00000000000E+00  0.94888945480E+03  0.94888945480E+03  0.00000000000E+00 0. -1.
         21   -1    0    0  501  503 -0.00000000000E+00 -0.00000000000E+00 -0.18811547889E+03  0.18811547889E+03  0.00000000000E+00 0.  1.
          6    2    1    2  501    0  0.16828407248E+03  0.19055013363E+03 -0.11418312642E+02  0.30618254811E+03  0.17026007291E+03 0.  0.
         24    2    3    3    0    0  0.61662307201E+02  0.27228370414E+02  0.26031895436E+02  0.10752000193E+03  0.79619513625E+02 0.  0.
         -6    2    1    2    0  502 -0.16828407248E+03 -0.19055013363E+03  0.77219228855E+03  0.83082238557E+03  0.17133599564E+03 0.  0.
        -24    2    5    5    0    0 -0.14640701377E+03 -0.73728880278E+02  0.38606934986E+03  0.42679413815E+03  0.78947653491E+02 0.  0.
          5    1    3    3  501    0  0.10662176528E+03  0.16332176322E+03 -0.37450208078E+02  0.19866254618E+03  0.47000000000E+01 0. -1.
        -13    1    4    4    0    0  0.40887735857E+02  0.11361846613E+02 -0.25661896504E+02  0.49592655043E+02  0.00000000000E+00 0.  1.
         14    1    4    4    0    0  0.20774571343E+02  0.15866523800E+02  0.51693791940E+02  0.57927346885E+02  0.00000000000E+00 0. -1.
         -5    1    5    5    0  502 -0.21877058702E+02 -0.11682125336E+03  0.38612293869E+03  0.40402824742E+03  0.47000000000E+01 0.  1.
         11    1    6    6    0    0 -0.74373439387E+02 -0.78757973072E+02  0.25704867333E+03  0.27894129718E+03  0.00000000000E+00 0. -1.
        -12    1    6    6    0    0 -0.72033574387E+02  0.50290927944E+01  0.12902067653E+03  0.14785284098E+03  0.00000000000E+00 0.  1.
</event>
<event>
12    1  0.1628146E-001  0.1777759E+03  0.7818608E-02  0.1170902E+00
         21   -1    0    0  501  502  0.00000000000E+00  0.00000000000E+00  0.95630429674E+03  0.95630429674E+03  0.00000000000E+00 0.  1.
         21   -1    0    0  502  503 -0.00000000000E+00 -0.00000000000E+00 -0.32521134298E+02  0.32521134298E+02  0.00000000000E+00 0.  1.
         -6    2    1    2    0  503 -0.44088362436E+02 -0.15701228498E+02  0.50185347926E+03  0.53241072406E+03  0.17150496250E+03 0.  0.
        -24    2    3    3    0    0  0.18084101350E+02 -0.41300312658E+02  0.39869693225E+03  0.40918697815E+03  0.80262000689E+02 0.  0.
          6    2    1    2  501    0  0.44088362436E+02  0.15701228498E+02  0.42192968318E+03  0.45641470699E+03  0.16762880100E+03 0.  0.
         24    2    5    5    0    0 -0.22419823473E+02  0.31372746821E+02  0.13969919103E+03  0.16599246958E+03  0.80936631111E+02 0.  0.
          5    1    5    5  501    0  0.66508185909E+02 -0.15671518323E+02  0.28223049215E+03  0.29042223741E+03  0.47000000000E+01 0. -1.
        -11    1    6    6    0    0  0.23644452845E+02  0.36304471335E+02  0.67645524470E+02  0.80330515809E+02  0.00000000000E+00 0.  1.
         12    1    6    6    0    0 -0.46064276318E+02 -0.49317245137E+01  0.72053666558E+02  0.85661953771E+02  0.00000000000E+00 0. -1.
         -5    1    3    3    0  503 -0.62172463786E+02  0.25599084160E+02  0.10315654701E+03  0.12322374591E+03  0.47000000000E+01 0.  1.
         11    1    4    4    0    0  0.13847548659E+02  0.13862102872E+02  0.26807094629E+02  0.33204409682E+02  0.00000000000E+00 0. -1.
        -12    1    4    4    0    0  0.42365526912E+01 -0.55162415530E+02  0.37188983762E+03  0.37598256847E+03  0.00000000000E+00 0.  1.
</event>
<event>
12    1  0.1628146E-001  0.2499437E+03  0.7818608E-02  0.1113410E+00
         21   -1    0    0  503  502  0.00000000000E+00  0.00000000000E+00  0.13451262279E+04  0.13451262279E+04  0.00000000000E+00 0.  1.
         21   -1    0    0  501  503 -0.00000000000E+00 -0.00000000000E+00 -0.13634411208E+03  0.13634411208E+03  0.00000000000E+00 0.  1.
          6    2    1    2  501    0 -0.58619718524E+02 -0.17166872099E+03  0.24501651880E+01  0.24951715618E+03  0.17130787126E+03 0.  0.
         24    2    3    3    0    0 -0.50962069535E+02 -0.36650333220E+02 -0.45843777285E+02  0.10584043746E+03  0.71834301205E+02 0.  0.
         -6    2    1    2    0  502  0.58619718524E+02  0.17166872099E+03  0.12063319506E+04  0.12319531838E+04  0.17194606944E+03 0.  0.
        -24    2    5    5    0    0 -0.17780068759E+02  0.47704783415E+02  0.28422903529E+03  0.29841161440E+03  0.75309162140E+02 0.  0.
          5    1    3    3  501    0 -0.76576489890E+01 -0.13501838777E+03  0.48293942473E+02  0.14367671872E+03  0.47000000000E+01 0. -1.
        -13    1    4    4    0    0 -0.22475657343E+02 -0.51802812335E+02 -0.47125535238E+02  0.73549320937E+02  0.00000000000E+00 0.  1.
         14    1    4    4    0    0 -0.28486412192E+02  0.15152479115E+02  0.12817579530E+01  0.32291116524E+02  0.00000000000E+00 0. -1.
         -5    1    5    5    0  502  0.76399787283E+02  0.12396393757E+03  0.92210291534E+03  0.93354156939E+03  0.47000000000E+01 0.  1.
         11    1    6    6    0    0 -0.18424139187E+01  0.62645176623E+02  0.25053962258E+03  0.25825939504E+03  0.00000000000E+00 0. -1.
        -12    1    6    6    0    0 -0.15937654840E+02 -0.14940393208E+02  0.33689412709E+02  0.40152219362E+02  0.00000000000E+00 0.  1.
</event>
<event>
12    1  0.1628146E-001  0.2953002E+03  0.7818608E-02  0.1087668E+00
         21   -1    0    0  501  502  0.00000000000E+00  0.00000000000E+00  0.52489689438E+03  0.52489689438E+03  0.00000000000E+00 0. -1.
         21   -1    0    0  502  503 -0.00000000000E+00 -0.00000000000E+00 -0.17975616665E+03  0.17975616665E+03  0.00000000000E+00 0. -1.
         -6    2    1    2    0  503 -0.22064980376E+03 -0.93463239562E+02  0.74610241440E+02  0.30416715619E+03  0.17184079180E+03 0.  0.
        -24    2    3    3    0    0 -0.23094394126E+03 -0.50628422075E+02  0.52091785095E+02  0.25446844663E+03  0.78372795848E+02 0.  0.
          6    2    1    2  501    0  0.22064980376E+03  0.93463239562E+02  0.27053048630E+03  0.40048590484E+03  0.17257028398E+03 0.  0.
         24    2    5    5    0    0  0.63400477259E+02  0.83672010131E+02  0.16174092805E+03  0.20896442604E+03  0.80531843067E+02 0.  0.
          5    1    5    5  501    0  0.15724932650E+03  0.97912294305E+01  0.10878955825E+03  0.19152147880E+03  0.47000000000E+01 0. -1.
        -13    1    6    6    0    0  0.90815248149E+01  0.41998635324E+02  0.12470358229E+02  0.44742254037E+02  0.00000000000E+00 0.  1.
         14    1    6    6    0    0  0.54318952444E+02  0.41673374808E+02  0.14927056982E+03  0.16422217200E+03  0.00000000000E+00 0. -1.
         -5    1    3    3    0  503  0.10294137497E+02 -0.42834817486E+02  0.22518456346E+02  0.49698709562E+02  0.47000000000E+01 0.  1.
         13    1    4    4    0    0 -0.65604922603E+02 -0.50443046648E+02  0.28107804427E+02  0.87398830053E+02  0.00000000000E+00 0. -1.
        -14    1    4    4    0    0 -0.16533901865E+03 -0.18537542720E+00  0.23983980668E+02  0.16706961657E+03  0.00000000000E+00 0.  1.
</event>
<event>
12    1  0.1628146E-001  0.2606850E+03  0.7818608E-02  0.1106737E+00
         21   -1    0    0  503  502  0.00000000000E+00  0.00000000000E+00  0.10206932634E+03  0.10206932634E+03  0.00000000000E+00 0. -1.
         21   -1    0    0  501  503 -0.00000000000E+00 -0.00000000000E+00 -0.69891487807E+03  0.69891487807E+03  0.00000000000E+00 0.  1.
          6    2    1    2  501    0  0.29257006685E+02 -0.19395756218E+03 -0.21114610453E+03  0.33546882046E+03  0.17170073873E+03 0.  0.
         24    2    3    3    0    0  0.68916556863E+02 -0.10217819847E+03 -0.71258115705E+02  0.16345989354E+03  0.80321489603E+02 0.  0.
         -6    2    1    2    0  502 -0.29257006685E+02  0.19395756218E+03 -0.38569944720E+03  0.46551538395E+03  0.17165372340E+03 0.  0.
        -24    2    5    5    0    0 -0.77404196873E+02  0.80134446597E+02 -0.20201942276E+03  0.24407849691E+03  0.79683914670E+02 0.  0.
          5    1    3    3  501    0 -0.39659550178E+02 -0.91779363710E+02 -0.13988798882E+03  0.17200892692E+03  0.47000000000E+01 0. -1.
        -11    1    4    4    0    0  0.31589003152E+02  0.16947173688E+01 -0.35238715700E+02  0.47355087068E+02  0.00000000000E+00 0.  1.
         12    1    4    4    0    0  0.37327553711E+02 -0.10387291583E+03 -0.36019400006E+02  0.11610480648E+03  0.00000000000E+00 0. -1.
         -5    1    5    5    0  502  0.48147190187E+02  0.11382311558E+03 -0.18368002444E+03  0.22143688704E+03  0.47000000000E+01 0.  1.
         11    1    6    6    0    0 -0.72930075749E+02  0.90384353471E+02 -0.14403261526E+03  0.18502302981E+03  0.00000000000E+00 0. -1.
        -12    1    6    6    0    0 -0.44741211237E+01 -0.10249906873E+02 -0.57986807495E+02  0.59055467099E+02  0.00000000000E+00 0.  1.
</event>
<event>
12    1  0.1628146E-001  0.3348693E+03  0.7818608E-02  0.1069086E+00
         21   -1    0    0  501  502  0.00000000000E+00  0.00000000000E+00  0.39681536489E+03  0.39681536489E+03  0.00000000000E+00 0.  1.
         21   -1    0    0  502  503 -0.00000000000E+00 -0.00000000000E+00 -0.46971676852E+03  0.46971676852E+03  0.00000000000E+00 0. -1.
         -6    2    1    2    0  503  0.20489312432E+03  0.20064122741E+03 -0.31041509397E+03  0.45661251878E+03  0.17291433490E+03 0.  0.
        -24    2    3    3    0    0  0.10826697657E+03  0.18600040765E+03 -0.25825523523E+03  0.34573552885E+03  0.80742798570E+02 0.  0.
          6    2    1    2  501    0 -0.20489312432E+03 -0.20064122741E+03  0.23751369034E+03  0.40991961463E+03  0.17141541011E+03 0.  0.
         24    2    5    5    0    0  0.77860239274E+00 -0.21648756675E+02  0.19049850753E+02  0.60509106831E+02  0.53190039561E+02 0.  0.
          5    1    5    5  501    0 -0.20567172672E+03 -0.17899247074E+03  0.21846383959E+03  0.34941050780E+03  0.47000000000E+01 0. -1.
        -11    1    6    6    0    0 -0.10642233024E+02 -0.26533140131E+02  0.31764061109E+02  0.42734298018E+02  0.00000000000E+00 0.  1.
         12    1    6    6    0    0  0.11420835417E+02  0.48843834558E+01 -0.12714210356E+02  0.17774808813E+02  0.00000000000E+00 0. -1.
         -5    1    3    3    0  503  0.96626147756E+02  0.14640819759E+02 -0.52159858733E+02  0.11087698993E+03  0.47000000000E+01 0.  1.
         13    1    4    4    0    0  0.19834170829E+02  0.80394994321E+01 -0.65418941138E+02  0.68830703492E+02  0.00000000000E+00 0. -1.
        -14    1    4    4    0    0  0.88432805737E+02  0.17796090822E+03 -0.19283629410E+03  0.27690482536E+03  0.00000000000E+00 0.  1.
</event>
<event>
12    1  0.1628146E-001  0.2122382E+03  0.7818608E-02  0.1140606E+00
         21   -1    0    0  503  502  0.00000000000E+00  0.00000000000E+00  0.59454504596E+02  0.59454504596E+02  0.00000000000E+00 0. -1.
         21   -1    0    0  501  503 -0.00000000000E+00 -0.00000000000E+00 -0.13595404755E+04  0.13595404755E+04  0.00000000000E+00 0. -1.
          6    2    1    2  501    0 -0.12029338933E+03 -0.30442425475E+02 -0.11243027334E+04  0.11434141453E+04  0.16715869869E+03 0.  0.
         24    2    3    3    0    0 -0.11554168950E+03  0.32445734826E+02 -0.72523738490E+03  0.73936867542E+03  0.79335780127E+02 0.  0.
         -6    2    1    2    0  502  0.12029338933E+03  0.30442425475E+02 -0.17578323748E+03  0.27558083477E+03  0.17218539174E+03 0.  0.
        -24    2    5    5    0    0  0.50727278487E+01  0.49209886026E+02 -0.61196478304E+02  0.11193416115E+03  0.79604660830E+02 0.  0.
          5    1    3    3  501    0 -0.47516998306E+01 -0.62888160300E+02 -0.39906534851E+03  0.40404546989E+03  0.47000000000E+01 0. -1.
        -11    1    4    4    0    0 -0.67057892655E+01  0.33698083022E+02 -0.20604175278E+03  0.20888688877E+03  0.00000000000E+00 0.  1.
         12    1    4    4    0    0 -0.10883590024E+03 -0.12523481967E+01 -0.51919563211E+03  0.53048178665E+03  0.00000000000E+00 0. -1.
         -5    1    5    5    0  502  0.11522066148E+03 -0.18767460551E+02 -0.11458675917E+03  0.16364667362E+03  0.47000000000E+01 0.  1.
         11    1    6    6    0    0  0.40688708157E+02  0.21403621819E+02 -0.43851093341E+02  0.63534277250E+02  0.00000000000E+00 0. -1.
        -12    1    6    6    0    0 -0.35615980308E+02  0.27806264206E+02 -0.17345384963E+02  0.48399883904E+02  0.00000000000E+00 0.  1.
</event>
<event>
12    1  0.1628146E-001  0.1985254E+03  0.7818608E-02  0.1151079E+00
         21   -1    0    0  501  502  0.00000000000E+00  0.00000000000E+00  0.15761912188E+03  0.15761912188E+03  0.00000000000E+00 0.  1.
         21   -1    0    0  502  503 -0.00000000000E+00 -0.00000000000E+00 -0.56228056875E+03  0.56228056875E+03  0.00000000000E+00 0.  1.
         -6    2    1    2    0  503 -0.10007409710E+03 -0.62198824421E+01 -0.47069207963E+03  0.51068117788E+03  0.17085291851E+03 0.  0.
        -24    2    3    3    0    0 -0.45684160541E+02 -0.99096915369E+01 -0.11795908520E+03  0.15372945110E+03  0.86793743115E+02 0.  0.
          6    2    1    2  501    0  0.10007409710E+03  0.62198824421E+01  0.66030632764E+02  0.20921851275E+03  0.17134418510E+03 0.  0.
         24    2    5    5    0    0  0.79300809352E+02  0.64745192768E+02  0.68216544271E+02  0.14689989882E+03  0.80284027127E+02 0.  0.
          5    1    5    5  501    0  0.20773287751E+02 -0.58525310326E+02 -0.21859115074E+01  0.62318613928E+02  0.47000000000E+01 0. -1.
        -13    1    6    6    0    0  0.36388054258E+02 -0.41002887356E+00 -0.86211883315E+01  0.37397640361E+02  0.00000000000E+00 0.  1.
         14    1    6    6    0    0  0.42912755094E+02  0.65155221642E+02  0.76837732603E+02  0.10950225846E+03  0.00000000000E+00 0. -1.
         -5    1    3    3    0  503 -0.54389936562E+02  0.36898090948E+01 -0.35273299443E+03  0.35695172678E+03  0.47000000000E+01 0.  1.
         11    1    4    4    0    0  0.22927406583E+02 -0.86683395940E+01 -0.56581824632E+02  0.61662865345E+02  0.00000000000E+00 0. -1.
        -12    1    4    4    0    0 -0.68611567124E+02 -0.12413519428E+01 -0.61377260569E+02  0.92066585756E+02  0.00000000000E+00 0.  1.
</event>
<event>
12    1  0.1628146E-001  0.1841620E+03  0.7818608E-02  0.1164012E+00
         21   -1    0    0  503  502  0.00000000000E+00  0.00000000000E+00  0.17159253254E+04  0.17159253254E+04  0.00000000000E+00 0. -1.
         21   -1    0    0  501  503 -0.00000000000E+00 -0.00000000000E+00 -0.48140573412E+02  0.48140573412E+02  0.00000000000E+00 0. -1.
          6    2    1    2  501    0 -0.63793861452E+02  0.22915249470E+02  0.15506270546E+03  0.24017494678E+03  0.17042534149E+03 0.  0.
         24    2    3    3    0    0 -0.35419097103E+02  0.16568876379E+02  0.63166234391E+00  0.82960313936E+02  0.73164025224E+02 0.  0.
         -6    2    1    2    0  502  0.63793861452E+02 -0.22915249470E+02  0.15127220465E+04  0.15238909520E+04  0.17123340272E+03 0.  0.
        -24    2    5    5    0    0  0.38680164779E+02 -0.68149004377E+02  0.13147438055E+04  0.13192100681E+04  0.74989916720E+02 0.  0.
          5    1    3    3  501    0 -0.28374764349E+02  0.63463730908E+01  0.15443104312E+03  0.15721463285E+03  0.47000000000E+01 0. -1.
        -13    1    4    4    0    0 -0.28883743529E+02  0.35353773025E+02  0.24564456024E+02  0.51841801734E+02  0.00000000000E+00 0.  1.
         14    1    4    4    0    0 -0.65353535742E+01 -0.18784896646E+02 -0.23932793680E+02  0.31118512202E+02  0.00000000000E+00 0. -1.
         -5    1    5    5    0  502  0.25113696672E+02  0.45233754907E+02  0.19797824095E+03  0.20468088390E+03  0.47000000000E+01 0.  1.
         11    1    6    6    0    0  0.12423259063E+02 -0.25075347505E+02  0.10046635866E+04  0.10050532487E+04  0.00000000000E+00 0. -1.
        -12    1    6    6    0    0  0.26256905716E+02 -0.43073656872E+02  0.31008021896E+03  0.31415681945E+03  0.00000000000E+00 0.  1.
</event>
<event>
12    1  0.1628146E-001  0.2463907E+03  0.7818608E-02  0.1115628E+00
         21   -1    0    0  501  502  0.00000000000E+00  0.00000000000E+00  0.12918687350E+03  0.12918687350E+03  0.00000000000E+00 0.  1.
         21   -1    0    0  502  503 -0.00000000000E+00 -0.00000000000E+00 -0.55449762469E+03  0.55449762469E+03  0.00000000000E+00 0.  1.
         -6    2    1    2    0  503  0.92298322570E+02  0.14882664341E+03 -0.34640215571E+03  0.42509153930E+03  0.17332055032E+03 0.  0.
        -24    2    3    3    0    0  0.65295967934E+02  0.21596810508E+02 -0.91535715263E+02  0.13891755375E+03  0.78672192798E+02 0.  0.
          6    2    1    2  501    0 -0.92298322570E+02 -0.14882664341E+03 -0.78908595480E+02  0.25859295889E+03  0.17313405732E+03 0.  0.
         24    2    5    5    0    0 -0.45071542637E+02 -0.17313521233E+03 -0.50372450307E+02  0.19811422835E+03  0.68590218129E+02 0.  0.
          5    1    5    5  501    0 -0.47226779933E+02  0.24308568913E+02 -0.28536145172E+02  0.60478730532E+02  0.47000000000E+01 0. -1.
        -13    1    6    6    0    0 -0.60502855813E+02 -0.10495765244E+03 -0.24650879946E+02  0.12362997310E+03  0.00000000000E+00 0.  1.
         14    1    6    6    0    0  0.15431313176E+02 -0.68177559888E+02 -0.25721570361E+02  0.74484255252E+02  0.00000000000E+00 0. -1.
         -5    1    3    3    0  503  0.27002354635E+02  0.12722983291E+03 -0.25486644045E+03  0.28617398555E+03  0.47000000000E+01 0.  1.
         11    1    4    4    0    0 -0.16229591723E+02  0.15968563109E+02 -0.20639742844E+02  0.30730988269E+02  0.00000000000E+00 0. -1.
        -12    1    4    4    0    0  0.81525559658E+02  0.56282473990E+01 -0.70895972419E+02  0.10818656549E+03  0.00000000000E+00 0.  1.
</event>
<event>
12    1  0.1628146E-001  0.1816495E+03  0.7818608E-02  0.1166659E+00
         21   -1    0    0  503  502  0.00000000000E+00  0.00000000000E+00  0.22401070434E+03  0.22401070434E+03  0.00000000000E+00 0. -1.
         21   -1    0    0  501  503 -0.00000000000E+00 -0.00000000000E+00 -0.15548529769E+03  0.15548529769E+03  0.00000000000E+00 0. -1.
          6    2    1    2  501    0  0.45690310204E+02 -0.33930696595E+02 -0.13239366341E+02  0.18029254036E+03  0.17056149234E+03 0.  0.
         24    2    3    3    0    0 -0.21625903287E+02 -0.58129276090E+02 -0.41357160491E+02  0.10328770807E+03  0.71492961066E+02 0.  0.
         -6    2    1    2    0  502 -0.45690310204E+02  0.33930696595E+02  0.81764772994E+02  0.19920346168E+03  0.17250404176E+03 0.  0.
        -24    2    5    5    0    0 -0.64394342165E+02  0.35716333797E+01 -0.66660197332E+01  0.10373823956E+03  0.80980236232E+02 0.  0.
          5    1    3    3  501    0  0.67316213491E+02  0.24198579495E+02  0.28117794150E+02  0.77004832291E+02  0.47000000000E+01 0. -1.
        -11    1    4    4    0    0 -0.82665335124E+01  0.15138640090E+02  0.15804706794E+01  0.17320851240E+02  0.00000000000E+00 0.  1.
         12    1    4    4    0    0 -0.13359369775E+02 -0.73267916180E+02 -0.42937631170E+02  0.85966856827E+02  0.00000000000E+00 0. -1.
         -5    1    5    5    0  502  0.18704031961E+02  0.30359063216E+02  0.88430792728E+02  0.95465222115E+02  0.47000000000E+01 0.  1.
         11    1    6    6    0    0 -0.57366376749E+02  0.24688997870E+02  0.23085172318E+02  0.66583578892E+02  0.00000000000E+00 0. -1.
        -12    1    6    6    0    0 -0.70279654161E+01 -0.21117364490E+02 -0.29751192052E+02  0.37154660669E+02  0.00000000000E+00 0.  1.
</event>
<event>
12    1  0.1628146E-001  0.1818682E+03  0.7818608E-02  0.1168414E+00
         21   -1    0    0  501  502  0.00000000000E+00  0.00000000000E+00  0.17110205051E+03  0.17110205051E+03  0.00000000000E+00 0. -1.
         21   -1    0    0  502  503 -0.00000000000E+00 -0.00000000000E+00 -0.56569157465E+03  0.56569157465E+03  0.00000000000E+00 0. -1.
         -6    2    1    2    0  503  0.74914337821E+01 -0.16113592853E+02 -0.50200947556E+03  0.53393779322E+03  0.18099802216E+03 0.  0.
        -24    2    3    3    0    0  0.14171369930E+02  0.47835562466E+02 -0.41241288426E+03  0.42355774437E+03  0.82629939778E+02 0.  0.
          6    2    1    2  501    0 -0.74914337821E+01  0.16113592853E+02  0.10741995142E+03  0.20285583193E+03  0.17115978830E+03 0.  0.
         24    2    5    5    0    0  0.18880158744E+02  0.68618153151E+02  0.44950349120E+02  0.11696793432E+03  0.81216084843E+02 0.  0.
          5    1    5    5  501    0 -0.26371592526E+02 -0.52504560299E+02  0.62469602298E+02  0.85887897609E+02  0.47000000000E+01 0. -1.
        -11    1    6    6    0    0  0.45045958520E+02  0.17720725054E+02  0.85837639705E+01  0.49161402333E+02  0.00000000000E+00 0.  1.
         12    1    6    6    0    0 -0.26165799776E+02  0.50897428098E+02  0.36366585149E+02  0.67806531988E+02  0.00000000000E+00 0. -1.
         -5    1    3    3    0  503 -0.66799361483E+01 -0.63949155319E+02 -0.89596591292E+02  0.11038004885E+03  0.47000000000E+01 0.  1.
         11    1    4    4    0    0  0.44003995572E+02  0.55339987674E+01 -0.17100079757E+03  0.17665856769E+03  0.00000000000E+00 0. -1.
        -12    1    4    4    0    0 -0.29832625641E+02  0.42301563699E+02 -0.24141208670E+03  0.24689917668E+03  0.00000000000E+00 0.  1.
</event>
<event>
12    1  0.1628146E-001  0.2374219E+03  0.7818608E-02  0.1121554E+00
         21   -1    0    0  503  502  0.00000000000E+00  0.00000000000E+00  0.25199947172E+03  0.25199947172E+03  0.00000000000E+00 0.  1.
         21   -1    0    0  501  503 -0.00000000000E+00 -0.00000000000E+00 -0.33214692180E+03  0.33214692180E+03  0.00000000000E+00 0.  1.
          6    2    1    2  501    0 -0.12105063962E+03  0.11027200023E+03 -0.20712243616E+03  0.31506958688E+03  0.17191849705E+03 0.  0.
         24    2    3    3    0    0 -0.90837825514E+02  0.14634808243E+03 -0.16106942639E+03  0.24905998491E+03  0.80113945069E+02 0.  0.
         -6    2    1    2    0  502  0.12105063962E+03 -0.11027200023E+03  0.12697498608E+03  0.26907680664E+03  0.17165811776E+03 0.  0.
        -24    2    5    5    0    0  0.52553434020E+02  0.13489903136E+02  0.54685809004E+02  0.11015326835E+03  0.78736039447E+02 0.  0.
          5    1    3    3  501    0 -0.30212814104E+02 -0.36076082194E+02 -0.46053009772E+02  0.66009601965E+02  0.47000000000E+01 0. -1.
        -11    1    4    4    0    0 -0.55248967165E+02  0.59038832680E+02 -0.12339515519E+03  0.14752761254E+03  0.00000000000E+00 0.  1.
         12    1    4    4    0    0 -0.35588858349E+02  0.87309249746E+02 -0.37674271197E+02  0.10153237237E+03  0.00000000000E+00 0. -1.
         -5    1    5    5    0  502  0.68497205599E+02 -0.12376190337E+03  0.72289177079E+02  0.15892353829E+03  0.47000000000E+01 0.  1.
         11    1    6    6    0    0  0.58935957496E+02 -0.11617103287E+02  0.58641090607E+02  0.83947493604E+02  0.00000000000E+00 0. -1.
        -12    1    6    6    0    0 -0.63825234766E+01  0.25107006423E+02 -0.39552816037E+01  0.26205774745E+02  0.00000000000E+00 0.  1.
</event>
<event>
12    1  0.1628146E-001  0.2576869E+03  0.7818608E-02  0.1108865E+00
         21   -1    0    0  503  502  0.00000000000E+00  0.00000000000E+00  0.12459915302E+04  0.12459915302E+04  0.00000000000E+00 0.  1.
         21   -1    0    0  501  503 -0.00000000000E+00 -0.00000000000E+00 -0.11307694560E+03  0.11307694560E+03  0.00000000000E+00 0. -1.
          6    2    1    2  501    0 -0.79905410974E+02 -0.17403713312E+03  0.71645790060E+02  0.26746149376E+03  0.17242022214E+03 0.  0.
         24    2    3    3    0    0 -0.20595686217E+02 -0.16236013970E+03  0.12627172222E+02  0.18284894813E+03  0.80556161150E+02 0.  0.
         -6    2    1    2    0  502  0.79905410974E+02  0.17403713312E+03  0.10612687945E+04  0.10916069820E+04  0.16923519308E+03 0.  0.
        -24    2    5    5    0    0  0.33601829972E+01  0.66331630788E+02  0.26535302644E+03  0.28478380001E+03  0.79236405992E+02 0.  0.
          5    1    3    3  501    0 -0.59309724756E+02 -0.11676993414E+02  0.59018617837E+02  0.84612545626E+02  0.47000000000E+01 0. -1.
        -11    1    4    4    0    0 -0.25965028314E+02 -0.19843077554E+02  0.22833539247E+02  0.39866037384E+02  0.00000000000E+00 0.  1.
         12    1    4    4    0    0  0.53693420965E+01 -0.14251706215E+03 -0.10206367024E+02  0.14298291075E+03  0.00000000000E+00 0. -1.
         -5    1    5    5    0  502  0.76545227976E+02  0.10770550233E+03  0.79591576808E+03  0.80682318201E+03  0.47000000000E+01 0.  1.
         13    1    6    6    0    0  0.30685950728E+02  0.33438648881E+02  0.61152744670E+02  0.76153982113E+02  0.00000000000E+00 0. -1.
        -14    1    6    6    0    0 -0.27325767730E+02  0.32892981907E+02  0.20420028177E+03  0.20862981789E+03  0.00000000000E+00 0.  1.
</event>
<event>
12    1  0.1628146E-001  0.2803240E+03  0.7818608E-02  0.1095561E+00
         21   -1    0    0  503  502  0.00000000000E+00  0.00000000000E+00  0.44551799225E+02  0.44551799225E+02  0.00000000000E+00 0. -1.
         21   -1    0    0  501  503 -0.00000000000E+00 -0.00000000000E+00 -0.17624639828E+04  0.17624639828E+04  0.00000000000E+00 0.  1.
          6    2    1    2  501    0  0.18423849607E+03 -0.12438876547E+03 -0.83781640515E+03  0.88335451886E+03  0.17018369146E+03 0.  0.
         24    2    3    3    0    0  0.81925480983E+02 -0.77480146783E+01 -0.47398028274E+03  0.48778931340E+03  0.80680169012E+02 0.  0.
         -6    2    1    2    0  502 -0.18423849607E+03  0.12438876547E+03 -0.88009577844E+03  0.92366126319E+03  0.17077810594E+03 0.  0.
        -24    2    5    5    0    0 -0.12823101939E+03  0.49120448943E+02 -0.32541264293E+03  0.36108004439E+03  0.75029310548E+02 0.  0.
          5    1    3    3  501    0  0.10231301509E+03 -0.11664075079E+03 -0.36383612241E+03  0.39556520546E+03  0.47000000000E+01 0. -1.
        -13    1    4    4    0    0  0.90795594519E+02 -0.87503857750E+01 -0.46853801084E+03  0.47733455442E+03  0.00000000000E+00 0.  1.
         14    1    4    4    0    0 -0.88701135359E+01  0.10023710967E+01 -0.54422718996E+01  0.10454758983E+02  0.00000000000E+00 0. -1.
         -5    1    5    5    0  502 -0.56007476680E+02  0.75268316529E+02 -0.55468313551E+03  0.56258121880E+03  0.47000000000E+01 0.  1.
         13    1    6    6    0    0 -0.41958703805E+02 -0.19475292418E+02 -0.95711674246E+02  0.10630401886E+03  0.00000000000E+00 0. -1.
        -14    1    6    6    0    0 -0.86272315583E+02  0.68595741361E+02 -0.22970096868E+03  0.25477602553E+03  0.00000000000E+00 0.  1.
</event>
<event>
12    1  0.1628146E-001  0.2328825E+03  0.7818608E-02  0.1124882E+00
         21   -1    0    0  501  502  0.00000000000E+00  0.00000000000E+00  0.22893087597E+03  0.22893087597E+03  0.00000000000E+00 0.  1.
         21   -1    0    0  502  503 -0.00000000000E+00 -0.00000000000E+00 -0.29211578419E+03  0.29211578419E+03  0.00000000000E+00 0.  1.
         -6    2    1    2    0  503  0.39301873421E+01  0.15498057617E+03 -0.14645547662E+03  0.27510624764E+03  0.17378094112E+03 0.  0.
        -24    2    3    3    0    0  0.44034500262E+02  0.40538185663E+02 -0.11228590683E+03  0.14903061098E+03  0.77586187077E+02 0.  0.
          6    2    1    2  501    0 -0.39301873421E+01 -0.15498057617E+03  0.83270568402E+02  0.24594041253E+03  0.17180882861E+03 0.  0.
         24    2    5    5    0    0  0.93524871226E+01 -0.18259962977E+03  0.67454739965E+02  0.21113420630E+03  0.81224487201E+02 0.  0.
          5    1    5    5  501    0 -0.13282674465E+02  0.27619053594E+02  0.15815828437E+02  0.34806206221E+02  0.47000000000E+01 0. -1.
        -11    1    6    6    0    0  0.18292242154E+02 -0.95005548998E+02 -0.53289292602E+01  0.96897151405E+02  0.00000000000E+00 0.  1.
         12    1    6    6    0    0 -0.89397550314E+01 -0.87594080770E+02  0.72783669225E+02  0.11423705490E+03  0.00000000000E+00 0. -1.
         -5    1    3    3    0  503 -0.40104312920E+02  0.11444239051E+03 -0.34169569785E+02  0.12607563666E+03  0.47000000000E+01 0.  1.
         11    1    4    4    0    0  0.10980729929E+02 -0.19845971564E+02 -0.79553224302E+01  0.24035935015E+02  0.00000000000E+00 0. -1.
        -12    1    4    4    0    0  0.33053770333E+02  0.60384157227E+02 -0.10433058440E+03  0.12499467596E+03  0.00000000000E+00 0.  1.
</event>
<event>
12    1  0.1628146E-001  0.1727261E+03  0.7818608E-02  0.1175236E+00
         21   -1    0    0  503  502  0.00000000000E+00  0.00000000000E+00  0.19464180995E+03  0.19464180995E+03  0.00000000000E+00 0.  1.
         21   -1    0    0  501  503 -0.00000000000E+00 -0.00000000000E+00 -0.15616117974E+03  0.15616117974E+03  0.00000000000E+00 0.  1.
          6    2    1    2  501    0 -0.27015940715E+00  0.54475625279E+01 -0.72747324892E+01  0.17287921685E+03  0.17263995182E+03 0.  0.
         24    2    3    3    0    0 -0.67046762708E+02  0.96693586003E+01  0.47177215390E+00  0.10535857820E+03  0.80693509931E+02 0.  0.
         -6    2    1    2    0  502  0.27015940715E+00 -0.54475625279E+01  0.45755362697E+02  0.17792377284E+03  0.17185332934E+03 0.  0.
        -24    2    5    5    0    0  0.42269638481E+02 -0.50585689482E+02  0.18066363743E+01  0.10206214030E+03  0.77895970558E+02 0.  0.
          5    1    3    3  501    0  0.66776603301E+02 -0.42217960724E+01 -0.77465046431E+01  0.67520638657E+02  0.47000000000E+01 0. -1.
        -13    1    4    4    0    0 -0.58246578428E+02  0.81659815446E+01  0.35843591237E+02  0.68877501304E+02  0.00000000000E+00 0.  1.
         14    1    4    4    0    0 -0.88001842804E+01  0.15033770558E+01 -0.35371819083E+02  0.36481076891E+02  0.00000000000E+00 0. -1.
         -5    1    5    5    0  502 -0.41999479073E+02  0.45138126954E+02  0.43948726323E+02  0.75861632548E+02  0.47000000000E+01 0.  1.
         13    1    6    6    0    0 -0.21674551652E+02 -0.80407426149E+01  0.92456282124E+01  0.24898220261E+02  0.00000000000E+00 0. -1.
        -14    1    6    6    0    0  0.63944190133E+02 -0.42544946867E+02 -0.74389918381E+01  0.77163920035E+02  0.00000000000E+00 0.  1.
</event>
<event>
12    1  0.1628146E-001  0.1809903E+03  0.7818608E-02  0.1166958E+00
         21   -1    0    0  501  502  0.00000000000E+00  0.00000000000E+00  0.45635051709E+03  0.45635051709E+03  0.00000000000E+00 0.  1.
         21   -1    0    0  502  503 -0.00000000000E+00 -0.00000000000E+00 -0.27846694015E+03  0.27846694015E+03  0.00000000000E+00 0.  1.
         -6    2    1    2    0  503  0.27752022069E+02 -0.46400551729E+02 -0.22770002723E+03  0.29086902304E+03  0.17272608440E+03 0.  0.
        -24    2    3    3    0    0  0.52849767899E+02  0.27108180810E+02 -0.15809968960E+03  0.18646726250E+03  0.79035287672E+02 0.  0.
          6    2    1    2  501    0 -0.27752022069E+02  0.46400551729E+02  0.40558360417E+03  0.44394843420E+03  0.17224681805E+03 0.  0.
         24    2    5    5    0    0 -0.33097881374E+02  0.98398052964E+02  0.28960132936E+03  0.31664448133E+03  0.74947655142E+02 0.  0.
          5    1    5    5  501    0  0.53458593049E+01 -0.51997501236E+02  0.11598227481E+03  0.12730395287E+03  0.47000000000E+01 0. -1.
        -13    1    6    6    0    0 -0.35976911775E+02  0.39515692952E+02  0.63551737552E+02  0.83034038299E+02  0.00000000000E+00 0.  1.
         14    1    6    6    0    0  0.28790304009E+01  0.58882360012E+02  0.22604959181E+03  0.23361044304E+03  0.00000000000E+00 0. -1.
         -5    1    3    3    0  503 -0.25097745830E+02 -0.73508732538E+02 -0.69600337628E+02  0.10440176054E+03  0.47000000000E+01 0.  1.
         11    1    4    4    0    0 -0.70290511956E+00 -0.12693767190E+02 -0.90841674865E+02  0.91726962740E+02  0.00000000000E+00 0. -1.
        -12    1    4    4    0    0  0.53552673018E+02  0.39801948000E+02 -0.67258014738E+02  0.94740299759E+02  0.00000000000E+00 0.  1.
</event>
<event>
12    1  0.1628146E-001  0.1736755E+03  0.7818608E-02  0.1174332E+00
         21   -1    0    0  501  502  0.00000000000E+00  0.00000000000E+00  0.14700886846E+03  0.14700886846E+03  0.00000000000E+00 0. -1.
         21   -1    0    0  502  503 -0.00000000000E+00 -0.00000000000E+00 -0.32218559699E+03  0.32218559699E+03  0.00000000000E+00 0. -1.
         -6    2    1    2    0  503 -0.17724173954E+02 -0.30663834085E+00 -0.22986765172E+03  0.28810124384E+03  0.17276848389E+03 0.  0.
        -24    2    3    3    0    0 -0.54029624616E+02 -0.51573855108E+02 -0.15869842230E+03  0.19305618884E+03  0.80662506426E+02 0.  0.
          6    2    1    2  501    0  0.17724173954E+02  0.30663834085E+00  0.54690923188E+02  0.18109322161E+03  0.17172483065E+03 0.  0.
         24    2    5    5    0    0  0.24513235000E+02  0.47582371424E+02 -0.10715508700E+02  0.99968764007E+02  0.83749333668E+02 0.  0.
          5    1    5    5  501    0 -0.67890610457E+01 -0.47275733083E+02  0.65406431888E+02  0.81124457599E+02  0.47000000000E+01 0. -1.
        -13    1    6    6    0    0  0.39650553178E+02  0.10632659359E+02 -0.34385789324E+02  0.53549998317E+02  0.00000000000E+00 0.  1.
         14    1    6    6    0    0 -0.15137318178E+02  0.36949712065E+02  0.23670280624E+02  0.46418765690E+02  0.00000000000E+00 0. -1.
         -5    1    3    3    0  503  0.36305450662E+02  0.51267216768E+02 -0.71169229420E+02  0.95045054996E+02  0.47000000000E+01 0.  1.
         11    1    4    4    0    0  0.20588259823E+02 -0.36402578397E+01 -0.24613140397E+02  0.32294497982E+02  0.00000000000E+00 0. -1.
        -12    1    4    4    0    0 -0.74617884440E+02 -0.47933597269E+02 -0.13408528190E+03  0.16076169086E+03  0.00000000000E+00 0.  1.
</event>
<event>
12    1  0.1628146E-001  0.2072889E+03  0.7818608E-02  0.1143770E+00
         21   -1    0    0  501  502  0.00000000000E+00  0.00000000000E+00  0.84921731767E+02  0.84921731767E+02  0.00000000000E+00 0.  1.
         21   -1    0    0  502  503 -0.00000000000E+00 -0.00000000000E+00 -0.51374075273E+03  0.51374075273E+03  0.00000000000E+00 0. -1.
         -6    2    1    2    0  503 -0.11380740576E+03 -0.19159414903E+02 -0.25238594217E+03  0.32659970126E+03  0.17219027926E+03 0.  0.
        -24    2    3    3    0    0 -0.74326441936E+01  0.35930427423E+02 -0.11507005000E+03  0.14431359409E+03  0.78987702947E+02 0.  0.
          6    2    1    2  501    0  0.11380740576E+03  0.19159414903E+02 -0.17643307880E+03  0.27206278324E+03  0.17196022198E+03 0.  0.
         24    2    5    5    0    0  0.53567253878E+01  0.42455047967E+01 -0.23268875729E+02  0.83740352579E+02  0.80151651601E+02 0.  0.
          5    1    5    5  501    0  0.10845068038E+03  0.14913910106E+02 -0.15316420307E+03  0.18832243066E+03  0.47000000000E+01 0. -1.
        -13    1    6    6    0    0  0.31327632327E+02 -0.25510972075E+02 -0.68961243996E+01  0.40985201905E+02  0.00000000000E+00 0.  1.
         14    1    6    6    0    0 -0.25970906939E+02  0.29756476872E+02 -0.16372751330E+02  0.42755150674E+02  0.00000000000E+00 0. -1.
         -5    1    3    3    0  503 -0.10637476157E+03 -0.55089842326E+02 -0.13731589217E+03  0.18228610718E+03  0.47000000000E+01 0.  1.
         11    1    4    4    0    0 -0.41736474972E+02  0.29240941810E+02 -0.79619462778E+02  0.94531607804E+02  0.00000000000E+00 0. -1.
        -12    1    4    4    0    0  0.34303830779E+02  0.66894856134E+01 -0.35450587223E+02  0.49781986283E+02  0.00000000000E+00 0.  1.
</event>
<event>
12    1  0.1628146E-001  0.2169152E+03  0.7818608E-02  0.1136288E+00
         21   -1    0    0  501  502  0.00000000000E+00  0.00000000000E+00  0.19581341871E+03  0.19581341871E+03  0.00000000000E+00 0.  1.
         21   -1    0    0  502  503 -0.00000000000E+00 -0.00000000000E+00 -0.36589268211E+03  0.36589268211E+03  0.00000000000E+00 0.  1.
         -6    2    1    2    0  503  0.12675726591E+03  0.38328963919E+02 -0.24985515882E+03  0.33058624882E+03  0.17124004667E+03 0.  0.
        -24    2    3    3    0    0  0.70548901198E+02  0.90565864679E+02 -0.15841474118E+03  0.21112280653E+03  0.79361740846E+02 0.  0.
          6    2    1    2  501    0 -0.12675726591E+03 -0.38328963919E+02  0.79775895419E+02  0.23111985200E+03  0.17180127638E+03 0.  0.
         24    2    5    5    0    0 -0.73573761019E+02 -0.90109637308E+02  0.34343349295E+02  0.14396522174E+03  0.77547884464E+02 0.  0.
          5    1    5    5  501    0 -0.53183504886E+02  0.51780673389E+02  0.45432546123E+02  0.87154630260E+02  0.47000000000E+01 0. -1.
        -11    1    6    6    0    0 -0.39451846199E+02 -0.63742375864E+02  0.57998704725E+02  0.94780738545E+02  0.00000000000E+00 0.  1.
         12    1    6    6    0    0 -0.34121914820E+02 -0.26367261444E+02 -0.23655355430E+02  0.49184483199E+02  0.00000000000E+00 0. -1.
         -5    1    3    3    0  503  0.56208364707E+02 -0.52236900760E+02 -0.91440417637E+02  0.11946344228E+03  0.47000000000E+01 0.  1.
         11    1    4    4    0    0  0.24467027352E+01  0.46322046327E+02 -0.19728101547E+02  0.50407502624E+02  0.00000000000E+00 0. -1.
        -12    1    4    4    0    0  0.68102198463E+02  0.44243818352E+02 -0.13868663963E+03  0.16071530391E+03  0.00000000000E+00 0.  1.
</event>
<event>
12    1  0.1628146E-001  0.1744251E+03  0.7818608E-02  0.1174431E+00
         21   -1    0    0  501  502  0.00000000000E+00  0.00000000000E+00  0.74660082306E+03  0.74660082306E+03  0.00000000000E+00 0.  1.
         21   -1    0    0  502  503 -0.00000000000E+00 -0.00000000000E+00 -0.39768800063E+02  0.39768800063E+02  0.00000000000E+00 0.  1.
         -6    2    1    2    0  503 -0.74249808798E+01  0.13150934936E+02  0.36982243685E+03  0.40889209835E+03  0.17377006609E+03 0.  0.
        -24    2    3    3    0    0  0.77107715979E+01  0.63443677505E+02  0.32293428820E+03  0.33832978942E+03  0.78076473410E+02 0.  0.
          6    2    1    2  501    0  0.74249808798E+01 -0.13150934936E+02  0.33700958615E+03  0.37747752477E+03  0.16936866038E+03 0.  0.
         24    2    5    5    0    0 -0.50400088659E+00  0.41495800903E+02  0.10186559302E+03  0.13589126276E+03  0.79797748980E+02 0.  0.
          5    1    5    5  501    0  0.79289817664E+01 -0.54646735839E+02  0.23514399313E+03  0.24158626202E+03  0.47000000000E+01 0. -1.
        -13    1    6    6    0    0  0.30563712364E+02  0.33151916183E+02  0.91646415940E+02  0.10213841400E+03  0.00000000000E+00 0.  1.
         14    1    6    6    0    0 -0.31067713250E+02  0.83438847200E+01  0.10219177081E+02  0.33752848754E+02  0.00000000000E+00 0. -1.
         -5    1    3    3    0  503 -0.15135752478E+02 -0.50292742569E+02  0.46888148645E+02  0.70562308930E+02  0.47000000000E+01 0.  1.
         13    1    4    4    0    0  0.13481773778E+02 -0.56005139843E+01  0.97074771770E+01  0.17531659769E+02  0.00000000000E+00 0. -1.
        -14    1    4    4    0    0 -0.57710021804E+01  0.69044191489E+02  0.31322681102E+03  0.32079812965E+03  0.00000000000E+00 0.  1.
</event>
<event>
12    1  0.1628146E-001  0.2806976E+03  0.7818608E-02  0.1097510E+00
         21   -1    0    0  503  502  0.00000000000E+00  0.00000000000E+00  0.20335600527E+03  0.20335600527E+03  0.00000000000E+00 0.  1.
         21   -1    0    0  501  503 -0.00000000000E+00 -0.00000000000E+00 -0.41750975377E+03  0.41750975377E+03  0.00000000000E+00 0.  1.
          6    2    1    2  501    0 -0.82572230622E+02 -0.18581651671E+03 -0.21326138475E+03  0.34016671576E+03  0.16996183434E+03 0.  0.
         24    2    3    3    0    0 -0.87837936405E+02 -0.18960311377E+03 -0.23007740787E+03  0.32154053505E+03  0.82388459412E+02 0.  0.
         -6    2    1    2    0  502  0.82572230622E+02  0.18581651671E+03 -0.89236375121E+00  0.28069904328E+03  0.19350763662E+03 0.  0.
        -24    2    5    5    0    0 -0.23108788964E+02  0.56845734533E+02 -0.38246782351E+02  0.10976226214E+03  0.82580168130E+02 0.  0.
          5    1    3    3  501    0  0.52657057826E+01  0.37865970619E+01  0.16816023112E+02  0.18626180714E+02  0.47000000000E+01 0. -1.
        -11    1    4    4    0    0 -0.46438358808E+02 -0.43233645584E+02 -0.11298320784E+03  0.12957960693E+03  0.00000000000E+00 0.  1.
         12    1    4    4    0    0 -0.41399577597E+02 -0.14636946819E+03 -0.11709420003E+03  0.19196092812E+03  0.00000000000E+00 0. -1.
         -5    1    5    5    0  502  0.10568101959E+03  0.12897078218E+03  0.37354418600E+02  0.17093678114E+03  0.47000000000E+01 0.  1.
         13    1    6    6    0    0  0.64147317480E+01 -0.15267932038E+02  0.87841316919E+01  0.18746186324E+02  0.00000000000E+00 0. -1.
        -14    1    6    6    0    0 -0.29523520712E+02  0.72113666571E+02 -0.47030914043E+02  0.91016075818E+02  0.00000000000E+00 0.  1.
</event>
<event>
12    1  0.1628146E-001  0.1763680E+03  0.7818608E-02  0.1171601E+00
         21   -1    0    0  501  502  0.00000000000E+00  0.00000000000E+00  0.76228058338E+03  0.76228058338E+03  0.00000000000E+00 0. -1.
         21   -1    0    0  502  503 -0.00000000000E+00 -0.00000000000E+00 -0.55570781061E+02  0.55570781061E+02  0.00000000000E+00 0. -1.
         -6    2    1    2    0  503  0.59834378452E+01 -0.36204242943E+02  0.14171223426E+03  0.22624770027E+03  0.17250830648E+03 0.  0.
        -24    2    3    3    0    0 -0.57523637101E+02 -0.50241478792E+02  0.10260599561E+03  0.15021099558E+03  0.78753906838E+02 0.  0.
          6    2    1    2  501    0 -0.59834378452E+01  0.36204242943E+02  0.56499756806E+03  0.59160366417E+03  0.17154035913E+03 0.  0.
         24    2    5    5    0    0 -0.13261514754E+02 -0.32521764056E+02  0.16938251712E+03  0.18997000899E+03  0.78515185154E+02 0.  0.
          5    1    5    5  501    0  0.72780769089E+01  0.68726006999E+02  0.39561505094E+03  0.40163365518E+03  0.47000000000E+01 0. -1.
        -13    1    6    6    0    0 -0.28532618385E+02 -0.51686354661E+02  0.97025588830E+02  0.11357620551E+03  0.00000000000E+00 0.  1.
         14    1    6    6    0    0  0.15271103630E+02  0.19164590605E+02  0.72356928286E+02  0.76393803480E+02  0.00000000000E+00 0. -1.
         -5    1    3    3    0  503  0.63507074946E+02  0.14037235849E+02  0.39106238654E+02  0.76036704690E+02  0.47000000000E+01 0.  1.
         11    1    4    4    0    0 -0.66774928664E+02 -0.11614445606E+02  0.49663303097E+02  0.84025175509E+02  0.00000000000E+00 0. -1.
        -12    1    4    4    0    0  0.92512915630E+01 -0.38627033187E+02  0.52942692509E+02  0.66185820071E+02  0.00000000000E+00 0.  1.
</event>
<event>
12    1  0.1628146E-001  0.2040312E+03  0.7818608E-02  0.1147779E+00
         21   -1    0    0  503  502  0.00000000000E+00  0.00000000000E+00  0.33330452246E+03  0.33330452246E+03  0.00000000000E+00 0. -1.
         21   -1    0    0  501  503 -0.00000000000E+00 -0.00000000000E+00 -0.12398176129E+03  0.12398176129E+03  0.00000000000E+00 0.  1.
          6    2    1    2  501    0 -0.86399060910E+02 -0.44078636017E+02  0.66587787683E+02  0.20828424890E+03  0.17187399743E+03 0.  0.
         24    2    3    3    0    0 -0.41502191643E+02 -0.86035716255E+02  0.75401072431E+02  0.14602760717E+03  0.80710370764E+02 0.  0.
         -6    2    1    2    0  502  0.86399060910E+02  0.44078636017E+02  0.14273497350E+03  0.24900203485E+03  0.17950213598E+03 0.  0.
        -24    2    5    5    0    0  0.15474101477E+02 -0.26665350758E+02  0.28750407140E+02  0.97180979315E+02  0.87561795792E+02 0.  0.
          5    1    3    3  501    0 -0.44896869267E+02  0.41957080238E+02 -0.88132847478E+01  0.62256641735E+02  0.47000000000E+01 0. -1.
        -11    1    4    4    0    0 -0.22512693867E+02 -0.26132012778E+02 -0.13600418954E+02  0.37076608161E+02  0.00000000000E+00 0.  1.
         12    1    4    4    0    0 -0.18989497776E+02 -0.59903703477E+02  0.89001491384E+02  0.10895099901E+03  0.00000000000E+00 0. -1.
         -5    1    5    5    0  502  0.70924959433E+02  0.70743986776E+02  0.11398456636E+03  0.15182105553E+03  0.47000000000E+01 0.  1.
         11    1    6    6    0    0  0.27782101515E+02 -0.40088345943E+02 -0.13974452253E+02  0.50736633322E+02  0.00000000000E+00 0. -1.
        -12    1    6    6    0    0 -0.12308000038E+02  0.13422995185E+02  0.42724859392E+02  0.46444345993E+02  0.00000000000E+00 0.  1.
</event>
<event>
12    1  0.1628146E-001  0.2174187E+03  0.7818608E-02  0.1135997E+00
         21   -1    0    0  501  502  0.00000000000E+00  0.00000000000E+00  0.85936793903E+03  0.85936793903E+03  0.00000000000E+00 0. -1.
         21   -1    0    0  502  503 -0.00000000000E+00 -0.00000000000E+00 -0.67678114607E+02  0.67678114607E+02  0.00000000000E+00 0. -1.
         -6    2    1    2    0  503  0.13092934303E+03  0.29110449174E+02  0.19412271036E+03  0.29146961174E+03  0.17111690966E+03 0.  0.
        -24    2    3    3    0    0  0.14266071069E+03 -0.21503360707E+02  0.15747013707E+03  0.22771316997E+03  0.79006144152E+02 0.  0.
          6    2    1    2  501    0 -0.13092934303E+03 -0.29110449174E+02  0.59756711406E+03  0.63557644190E+03  0.16994424548E+03 0.  0.
         24    2    5    5    0    0 -0.12152129947E+02 -0.50422646967E+02  0.28950377811E+03  0.30468772182E+03  0.79574196156E+02 0.  0.
          5    1    5    5  501    0 -0.11877721308E+03  0.21312197794E+02  0.30806333595E+03  0.33088872008E+03  0.47000000000E+01 0. -1.
        -11    1    6    6    0    0  0.14578697773E+02 -0.53013162895E+02  0.10781500241E+03  0.12102482644E+03  0.00000000000E+00 0.  1.
         12    1    6    6    0    0 -0.26730827720E+02  0.25905159272E+01  0.18168877570E+03  0.18366289538E+03  0.00000000000E+00 0. -1.
         -5    1    3    3    0  503 -0.11731367662E+02  0.50613809881E+02  0.36652573295E+02  0.63756441769E+02  0.47000000000E+01 0.  1.
         11    1    4    4    0    0  0.53450091254E+02  0.26300475610E+02  0.36000284090E+02  0.69603503697E+02  0.00000000000E+00 0. -1.
        -12    1    4    4    0    0  0.89210619436E+02 -0.47803836317E+02  0.12146985298E+03  0.15810966627E+03  0.00000000000E+00 0.  1.
</event>
<event>
12    1  0.1628146E-001  0.1875398E+03  0.7818608E-02  0.1160769E+00
         21   -1    0    0  501  502  0.00000000000E+00  0.00000000000E+00  0.23486672679E+03  0.23486672679E+03  0.00000000000E+00 0.  1.
         21   -1    0    0  502  503 -0.00000000000E+00 -0.00000000000E+00 -0.17469514566E+03  0.17469514566E+03  0.00000000000E+00 0. -1.
         -6    2    1    2    0  503 -0.28198599243E+02 -0.71009688518E+02 -0.47652765390E+02  0.19349923454E+03  0.17127063629E+03 0.  0.
        -24    2    3    3    0    0  0.37468657743E+02 -0.21574917807E+02 -0.62011339906E+02  0.10992744589E+03  0.79807641812E+02 0.  0.
          6    2    1    2  501    0  0.28198599243E+02  0.71009688518E+02  0.10782434652E+03  0.21606263792E+03  0.17093693849E+03 0.  0.
         24    2    5    5    0    0  0.47848562093E+02 -0.10091036826E+02  0.18322380506E+02  0.93603907681E+02  0.77683125498E+02 0.  0.
          5    1    5    5  501    0 -0.19649962850E+02  0.81100725344E+02  0.89501966015E+02  0.12245873024E+03  0.47000000000E+01 0. -1.
        -13    1    6    6    0    0  0.58872199582E+02 -0.29814947365E+02  0.24145844947E+02  0.70270113122E+02  0.00000000000E+00 0.  1.
         14    1    6    6    0    0 -0.11023637489E+02  0.19723910539E+02 -0.58234644404E+01  0.23333794559E+02  0.00000000000E+00 0. -1.
         -5    1    3    3    0  503 -0.65667256987E+02 -0.49434770711E+02  0.14358574516E+02  0.83571788646E+02  0.47000000000E+01 0.  1.
         13    1    4    4    0    0  0.15579759530E+02  0.25383228301E+02 -0.88178911235E+00  0.29796220197E+02  0.00000000000E+00 0. -1.
        -14    1    4    4    0    0  0.21888898213E+02 -0.46958146108E+02 -0.61129550794E+02  0.80131225694E+02  0.00000000000E+00 0.  1.
</event>
<event>
12    1  0.1628146E-001  0.1747037E+03  0.7818608E-02  0.1173282E+00
         21   -1    0    0  501  502  0.00000000000E+00  0.00000000000E+00  0.13059165170E+03  0.13059165170E+03  0.00000000000E+00 0.  1.
         21   -1    0    0  502  503 -0.00000000000E+00 -0.00000000000E+00 -0.24380046896E+03  0.24380046896E+03  0.00000000000E+00 0.  1.
         -6    2    1    2    0  503 -0.13640355178E+02 -0.19940852219E+02 -0.96965955169E+02  0.19893492753E+03  0.17201456931E+03 0.  0.
        -24    2    3    3    0    0 -0.67348842151E+02 -0.10136733188E+02 -0.99387922451E+02  0.14408350778E+03  0.79015683172E+02 0.  0.
          6    2    1    2  501    0  0.13640355178E+02  0.19940852219E+02 -0.16242862091E+02  0.17545719312E+03  0.17302514029E+03 0.  0.
         24    2    5    5    0    0  0.24442737309E+02  0.70138648515E+02  0.25540020941E+02  0.10909146758E+03  0.75708508149E+02 0.  0.
          5    1    5    5  501    0 -0.10802382131E+02 -0.50197796296E+02 -0.41782883032E+02  0.66365725545E+02  0.47000000000E+01 0. -1.
        -13    1    6    6    0    0 -0.17207949123E+02 -0.63235937611E+01  0.91586948785E+01  0.20493487818E+02  0.00000000000E+00 0.  1.
         14    1    6    6    0    0  0.41650686432E+02  0.76462242276E+02  0.16381326063E+02  0.88597979761E+02  0.00000000000E+00 0. -1.
         -5    1    3    3    0  503  0.53708486974E+02 -0.98041190310E+01  0.24219672825E+01  0.54851419749E+02  0.47000000000E+01 0.  1.
         11    1    4    4    0    0 -0.70443113582E+02  0.61531986324E+01 -0.37553925499E+02  0.80064920064E+02  0.00000000000E+00 0. -1.
        -12    1    4    4    0    0  0.30942714307E+01 -0.16289931821E+02 -0.61833996953E+02  0.64018587719E+02  0.00000000000E+00 0.  1.
</event>
<event>
12    1  0.1628146E-001  0.1863432E+03  0.7818608E-02  0.1161974E+00
         21   -1    0    0  503  502  0.00000000000E+00  0.00000000000E+00  0.25342870463E+03  0.25342870463E+03  0.00000000000E+00 0.  1.
         21   -1    0    0  501  503 -0.00000000000E+00 -0.00000000000E+00 -0.13925224770E+03  0.13925224770E+03  0.00000000000E+00 0. -1.
          6    2    1    2  501    0  0.13283766244E+02 -0.67700772686E+02  0.84731414503E+02  0.20402569036E+03  0.17229978716E+03 0.  0.
         24    2    3    3    0    0  0.31111663212E+02 -0.10741157965E+03  0.80821394160E+02  0.16006934430E+03  0.81147484247E+02 0.  0.
         -6    2    1    2    0  502 -0.13283766244E+02  0.67700772686E+02  0.29445042426E+02  0.18865526198E+03  0.17310096557E+03 0.  0.
        -24    2    5    5    0    0 -0.19712001002E+02  0.73807270239E+02 -0.41385460079E+02  0.11711742863E+03  0.78534448875E+02 0.  0.
          5    1    3    3  501    0 -0.17827896968E+02  0.39710806961E+02  0.39100203429E+01  0.43956346060E+02  0.47000000000E+01 0. -1.
        -13    1    4    4    0    0  0.93179752645E+01 -0.11229418853E+03  0.79094017129E+02  0.13766870736E+03  0.00000000000E+00 0.  1.
         14    1    4    4    0    0  0.21793687948E+02  0.48826088809E+01  0.17273770313E+01  0.22400636939E+02  0.00000000000E+00 0. -1.
         -5    1    5    5    0  502  0.64282347578E+01 -0.61064975534E+01  0.70830502505E+02  0.71537833344E+02  0.47000000000E+01 0.  1.
         13    1    6    6    0    0 -0.43460122123E+02  0.52941059658E+02 -0.46501945861E+01  0.68652474991E+02  0.00000000000E+00 0. -1.
        -14    1    6    6    0    0  0.23748121121E+02  0.20866210581E+02 -0.36735265492E+02  0.48464953643E+02  0.00000000000E+00 0.  1.
</event>
<event>
12    1  0.1628146E-001  0.1785133E+03  0.7818608E-02  0.1169258E+00
         21   -1    0    0  501  502  0.00000000000E+00  0.00000000000E+00  0.10091751531E+04  0.10091751531E+04  0.00000000000E+00 0. -1.
         21   -1    0    0  502  503 -0.00000000000E+00 -0.00000000000E+00 -0.40509539117E+03  0.40509539117E+03  0.00000000000E+00 0. -1.
         -6    2    1    2    0  503 -0.45305450007E+01  0.45495555325E+02 -0.37698364618E+03  0.41709833871E+03  0.17252241384E+03 0.  0.
        -24    2    3    3    0    0 -0.67333430537E+02  0.49044872731E+02 -0.25584114816E+03  0.28051724590E+03  0.79347600781E+02 0.  0.
          6    2    1    2  501    0  0.45305450007E+01 -0.45495555325E+02  0.98106340810E+03  0.99717220555E+03  0.17255904907E+03 0.  0.
         24    2    5    5    0    0  0.36541741002E+01 -0.28089732353E+02  0.97451330569E+03  0.97797000409E+03  0.77115237614E+02 0.  0.
          5    1    5    5  501    0  0.87637090041E+00 -0.17405822972E+02  0.65501024035E+01  0.19202201457E+02  0.47000000000E+01 0. -1.
        -11    1    6    6    0    0 -0.85063749474E+01  0.18178357225E+02  0.61009323509E+03  0.61042326838E+03  0.00000000000E+00 0.  1.
         12    1    6    6    0    0  0.12160549048E+02 -0.46268089578E+02  0.36442007061E+03  0.36754673571E+03  0.00000000000E+00 0. -1.
         -5    1    3    3    0  503  0.62802885536E+02 -0.35493174057E+01 -0.12114249802E+03  0.13658109281E+03  0.47000000000E+01 0.  1.
         11    1    4    4    0    0  0.16594586823E+01  0.18614107890E+01 -0.12646571186E+03  0.12649029579E+03  0.00000000000E+00 0. -1.
        -12    1    4    4    0    0 -0.68992889219E+02  0.47183461942E+02 -0.12937543630E+03  0.15402695011E+03  0.00000000000E+00 0.  1.
</event>
<event>
12    1  0.1628146E-001  0.2050023E+03  0.7818608E-02  0.1145875E+00
         21   -1    0    0  501  502  0.00000000000E+00  0.00000000000E+00  0.24124652149E+03  0.24124652149E+03  0.00000000000E+00 0.  1.
         21   -1    0    0  502  503 -0.00000000000E+00 -0.00000000000E+00 -0.27515294330E+03  0.27515294330E+03  0.00000000000E+00 0.  1.
         -6    2    1    2    0  503 -0.81290306070E+02 -0.76341711323E+02 -0.17423368865E+03  0.26796898817E+03  0.17033446396E+03 0.  0.
        -24    2    3    3    0    0  0.22883358249E+02 -0.38089437961E+02 -0.85584243441E+02  0.12585564295E+03  0.80873523276E+02 0.  0.
          6    2    1    2  501    0  0.81290306070E+02  0.76341711323E+02  0.14032726684E+03  0.24843047662E+03  0.17201682809E+03 0.  0.
         24    2    5    5    0    0  0.58133310602E+02  0.61766603208E+02  0.17056843962E+03  0.20737808634E+03  0.81960252723E+02 0.  0.
          5    1    5    5  501    0  0.23156995467E+02  0.14575108115E+02 -0.30241172785E+02  0.41052390272E+02  0.47000000000E+01 0. -1.
        -11    1    6    6    0    0  0.50443972392E+02  0.19261010760E+02  0.33218571067E+02  0.63396012098E+02  0.00000000000E+00 0.  1.
         12    1    6    6    0    0  0.76893382102E+01  0.42505592447E+02  0.13734986856E+03  0.14398207425E+03  0.00000000000E+00 0. -1.
         -5    1    3    3    0  503 -0.10417366432E+03 -0.38252273363E+02 -0.88649445211E+02  0.14211334523E+03  0.47000000000E+01 0.  1.
         13    1    4    4    0    0 -0.37963602105E+01  0.23865086058E+02 -0.29477365191E+02  0.38116528462E+02  0.00000000000E+00 0. -1.
        -14    1    4    4    0    0  0.26679718459E+02 -0.61954524019E+02 -0.56106878250E+02  0.87739114484E+02  0.00000000000E+00 0.  1.
</event>
<event>
12    1  0.1628146E-001  0.2375702E+03  0.7818608E-02  0.1121607E+00
         21   -1    0    0  501  502  0.00000000000E+00  0.00000000000E+00  0.24673608209E+03  0.24673608209E+03  0.00000000000E+00 0.  1.
         21   -1    0    0  502  503 -0.00000000000E+00 -0.00000000000E+00 -0.26442343752E+03  0.26442343752E+03  0.00000000000E+00 0. -1.
         -6    2    1    2    0  503  0.29065859097E+02 -0.16060072162E+03 -0.10408326404E+03  0.25836736254E+03  0.17112262335E+03 0.  0.
        -24    2    3    3    0    0  0.45976279740E+02 -0.14856259387E+03 -0.24077388983E+02  0.17557902466E+03  0.77869189302E+02 0.  0.
          6    2    1    2  501    0 -0.29065859097E+02  0.16060072162E+03  0.86395908610E+02  0.25279215708E+03  0.17263315356E+03 0.  0.
         24    2    5    5    0    0 -0.77285591961E+02  0.78736486327E+02  0.78057010860E+02  0.15730120006E+03  0.80487723232E+02 0.  0.
          5    1    5    5  501    0  0.48219732864E+02  0.81864235291E+02  0.83388977498E+01  0.95490957022E+02  0.47000000000E+01 0. -1.
        -13    1    6    6    0    0 -0.80819904700E+02  0.55828073621E+02  0.28003731929E+02  0.10214127374E+03  0.00000000000E+00 0.  1.
         14    1    6    6    0    0  0.35343127389E+01  0.22908412706E+02  0.50053278931E+02  0.55159926314E+02  0.00000000000E+00 0. -1.
         -5    1    3    3    0  503 -0.16910420644E+02 -0.12038127746E+02 -0.80005875055E+02  0.82788337882E+02  0.47000000000E+01 0.  1.
         13    1    4    4    0    0 -0.68888060920E+01 -0.29344287819E+02 -0.33206090159E+02  0.44846262950E+02  0.00000000000E+00 0. -1.
        -14    1    4    4    0    0  0.52865085832E+02 -0.11921830605E+03  0.91287011762E+01  0.13073276171E+03  0.00000000000E+00 0.  1.
</event>
<event>
12    1  0.1628146E-001  0.2238778E+03  0.7818608E-02  0.1131063E+00
         21   -1    0    0  501  502  0.00000000000E+00  0.00000000000E+00  0.49978525040E+02  0.49978525040E+02  0.00000000000E+00 0. -1.
         21   -1    0    0  502  503 -0.00000000000E+00 -0.00000000000E+00 -0.12916301476E+04  0.12916301476E+04  0.00000000000E+00 0.  1.
         -6    2    1    2    0  503 -0.34529855036E+02 -0.13866259781E+03 -0.93875942755E+03  0.96508575812E+03  0.17234161077E+03 0.  0.
        -24    2    3    3    0    0  0.11199595776E+02 -0.15452350164E+03 -0.77646300686E+03  0.79566034944E+03  0.78598009742E+02 0.  0.
          6    2    1    2  501    0  0.34529855036E+02  0.13866259781E+03 -0.30289219504E+03  0.37652291454E+03  0.17206451243E+03 0.  0.
         24    2    5    5    0    0  0.61126092344E+02  0.21271644266E+02 -0.13708028987E+03  0.17157493649E+03  0.80362123814E+02 0.  0.
          5    1    5    5  501    0 -0.26596237309E+02  0.11739095355E+03 -0.16581190517E+03  0.20494797805E+03  0.47000000000E+01 0. -1.
        -11    1    6    6    0    0  0.53454788145E+02 -0.98495605566E+01 -0.35164639134E+02  0.64737779265E+02  0.00000000000E+00 0.  1.
         12    1    6    6    0    0  0.76713041994E+01  0.31121204823E+02 -0.10191565074E+03  0.10683715722E+03  0.00000000000E+00 0. -1.
         -5    1    3    3    0  503 -0.45729450812E+02  0.15860903826E+02 -0.16229642068E+03  0.16942540868E+03  0.47000000000E+01 0.  1.
         11    1    4    4    0    0  0.46277343402E+01 -0.61336102357E+01 -0.33059225870E+01  0.83645815077E+01  0.00000000000E+00 0. -1.
        -12    1    4    4    0    0  0.65718614360E+01 -0.14838989140E+03 -0.77315708428E+03  0.78729576793E+03  0.00000000000E+00 0.  1.
</event>
<event>
12    1  0.1628146E-001  0.1904192E+03  0.7818608E-02  0.1158179E+00
         21   -1    0    0  503  502  0.00000000000E+00  0.00000000000E+00  0.14072603648E+03  0.14072603648E+03  0.00000000000E+00 0. -1.
         21   -1    0    0  501  503 -0.00000000000E+00 -0.00000000000E+00 -0.25911207295E+03  0.25911207295E+03  0.00000000000E+00 0. -1.
          6    2    1    2  501    0  0.80368571078E+02 -0.13576228581E+02 -0.41583188607E+02  0.19490672109E+03  0.17209313511E+03 0.  0.
         24    2    3    3    0    0  0.54098141449E+00 -0.46320930333E+02  0.12053643134E+02  0.93202939040E+02  0.79972347003E+02 0.  0.
         -6    2    1    2    0  502 -0.80368571078E+02  0.13576228581E+02 -0.76802847866E+02  0.20493138833E+03  0.17162393564E+03 0.  0.
        -24    2    5    5    0    0 -0.96345548338E+02  0.60845963453E+02 -0.53026092076E+02  0.14945963198E+03  0.80880895132E+02 0.  0.
          5    1    3    3  501    0  0.79827589663E+02  0.32744701752E+02 -0.53636831741E+02  0.10170378205E+03  0.47000000000E+01 0. -1.
        -11    1    4    4    0    0 -0.36864798278E+02 -0.24242714245E+02  0.20986337493E+02  0.48858457890E+02  0.00000000000E+00 0.  1.
         12    1    4    4    0    0  0.37405779692E+02 -0.22078216088E+02 -0.89326943582E+01  0.44344481150E+02  0.00000000000E+00 0. -1.
         -5    1    5    5    0  502  0.15976977260E+02 -0.47269734872E+02 -0.23776755790E+02  0.55471756355E+02  0.47000000000E+01 0.  1.
         13    1    6    6    0    0 -0.69011703693E+02  0.27839388460E+01 -0.48940938061E+01  0.69241011809E+02  0.00000000000E+00 0. -1.
        -14    1    6    6    0    0 -0.27333844645E+02  0.58062024607E+02 -0.48131998270E+02  0.80218620170E+02  0.00000000000E+00 0.  1.
</event>
<event>
12    1  0.1628146E-001  0.2009283E+03  0.7818608E-02  0.1149093E+00
         21   -1    0    0  503  502  0.00000000000E+00  0.00000000000E+00  0.20861282237E+04  0.20861282237E+04  0.00000000000E+00 0. -1.
         21   -1    0    0  501  503 -0.00000000000E+00 -0.00000000000E+00 -0.28998246872E+02  0.28998246872E+02  0.00000000000E+00 0.  1.
          6    2    1    2  501    0 -0.41636260117E+02 -0.97197856591E+02  0.41558060119E+03  0.46132583894E+03  0.17009788976E+03 0.  0.
         24    2    3    3    0    0 -0.74095998110E+02 -0.10954230045E+03  0.25930091043E+03  0.30116513330E+03  0.77289991862E+02 0.  0.
         -6    2    1    2    0  502  0.41636260117E+02  0.97197856591E+02  0.16415493756E+04  0.16538006316E+04  0.17085425095E+03 0.  0.
        -24    2    5    5    0    0 -0.20291541516E+02 -0.14876986048E+01  0.78656314082E+03  0.79090003299E+03  0.80170616707E+02 0.  0.
          5    1    3    3  501    0  0.32459737993E+02  0.12344443860E+02  0.15627969076E+03  0.16016070564E+03  0.47000000000E+01 0. -1.
        -11    1    4    4    0    0 -0.44093769180E+01 -0.23509642879E+02  0.59047182200E+01  0.24637605614E+02  0.00000000000E+00 0.  1.
         12    1    4    4    0    0 -0.69686621192E+02 -0.86032657572E+02  0.25339619221E+03  0.27652752769E+03  0.00000000000E+00 0. -1.
         -5    1    5    5    0  502  0.61927801633E+02  0.98685555195E+02  0.85498623480E+03  0.86290059863E+03  0.47000000000E+01 0.  1.
         11    1    6    6    0    0  0.18394222948E+02 -0.29503300639E+02  0.30588571815E+03  0.30785526592E+03  0.00000000000E+00 0. -1.
        -12    1    6    6    0    0 -0.38685764464E+02  0.28015602034E+02  0.48067742266E+03  0.48304476706E+03  0.00000000000E+00 0.  1.
</event>
<event>
12    1  0.1628146E-001  0.2455854E+03  0.7818608E-02  0.1116361E+00
         21   -1    0    0  503  502  0.00000000000E+00  0.00000000000E+00  0.20490343110E+03  0.20490343110E+03  0.00000000000E+00 0.  1.
         21   -1    0    0  501  503 -0.00000000000E+00 -0.00000000000E+00 -0.30314756856E+03  0.30314756856E+03  0.00000000000E+00 0. -1.
          6    2    1    2  501    0 -0.12858161793E+03  0.11873059314E+03 -0.96330934283E+02  0.26245814798E+03  0.17021881309E+03 0.  0.
         24    2    3    3    0    0 -0.12514460284E+03  0.25899143726E+02 -0.62804552195E+02  0.16358651723E+03  0.80524527799E+02 0.  0.
         -6    2    1    2    0  502  0.12858161793E+03 -0.11873059314E+03 -0.19132031724E+01  0.24559285168E+03  0.17228465467E+03 0.  0.
        -24    2    5    5    0    0  0.14521918027E+03 -0.13756805415E+03  0.13117776795E+02  0.21593347243E+03  0.80259632488E+02 0.  0.
          5    1    3    3  501    0 -0.34370150869E+01  0.92831449410E+02 -0.33526382088E+02  0.98871630756E+02  0.47000000000E+01 0. -1.
        -13    1    4    4    0    0 -0.29019431068E+02 -0.85733915378E+01  0.16338750070E+02  0.34388736176E+02  0.00000000000E+00 0.  1.
         14    1    4    4    0    0 -0.96125171771E+02  0.34472535264E+02 -0.79143302265E+02  0.12919778105E+03  0.00000000000E+00 0. -1.
         -5    1    5    5    0  502 -0.16637562348E+02  0.18837461013E+02 -0.15030979968E+02  0.29659379243E+02  0.47000000000E+01 0.  1.
         11    1    6    6    0    0  0.11744200780E+03 -0.13740379974E+03 -0.81655336209E+01  0.18093950735E+03  0.00000000000E+00 0. -1.
        -12    1    6    6    0    0  0.27777172469E+02 -0.16425440587E+00  0.21283310416E+02  0.34993965082E+02  0.00000000000E+00 0.  1.
</event>
<event>
12    1  0.1628146E-001  0.3068128E+03  0.7818608E-02  0.1081962E+00
         21   -1    0    0  503  502  0.00000000000E+00  0.00000000000E+00  0.11442200251E+04  0.11442200251E+04  0.00000000000E+00 0.  1.
         21   -1    0    0  501  503 -0.00000000000E+00 -0.00000000000E+00 -0.82327422686E+02  0.82327422686E+02  0.00000000000E+00 0. -1.
          6    2    1    2  501    0  0.17094273265E+03  0.18682845274E+03  0.56280371729E+03  0.64069437718E+03  0.17209001179E+03 0.  0.
         24    2    3    3    0    0  0.13764970715E+03  0.75275305323E+02  0.42361231087E+03  0.45917614706E+03  0.82350049413E+02 0.  0.
         -6    2    1    2    0  502 -0.17094273265E+03 -0.18682845274E+03  0.49908888514E+03  0.58585307062E+03  0.17322764354E+03 0.  0.
        -24    2    5    5    0    0 -0.41623963150E+02 -0.14477278660E+03  0.29322938352E+03  0.33908952468E+03  0.79413602974E+02 0.  0.
          5    1    3    3  501    0  0.33293025499E+02  0.11155314741E+03  0.13919140641E+03  0.18151823012E+03  0.47000000000E+01 0. -1.
        -13    1    4    4    0    0 -0.94233746466E+01  0.15233005038E+02  0.53273475328E+02  0.56204160040E+02  0.00000000000E+00 0.  1.
         14    1    4    4    0    0  0.14707308180E+03  0.60042300285E+02  0.37033883555E+03  0.40297198702E+03  0.00000000000E+00 0. -1.
         -5    1    5    5    0  502 -0.12931876950E+03 -0.42055666133E+02  0.20585950162E+03  0.24676354594E+03  0.47000000000E+01 0.  1.
         13    1    6    6    0    0 -0.64818827855E+02 -0.11931091123E+03  0.23008198994E+03  0.26715968273E+03  0.00000000000E+00 0. -1.
        -14    1    6    6    0    0  0.23194864705E+02 -0.25461875369E+02  0.63147393581E+02  0.71929841944E+02  0.00000000000E+00 0.  1.
</event>
<event>
12    1  0.1628146E-001  0.1959501E+03  0.7818608E-02  0.1153591E+00
         21   -1    0    0  503  502  0.00000000000E+00  0.00000000000E+00  0.77254287539E+02  0.77254287539E+02  0.00000000000E+00 0.  1.
         21   -1    0    0  501  503 -0.00000000000E+00 -0.00000000000E+00 -0.53754488543E+03  0.53754488543E+03  0.00000000000E+00 0.  1.
          6    2    1    2  501    0  0.92883418346E+02  0.94291143412E+01 -0.31817206594E+03  0.37273692559E+03  0.17024427905E+03 0.  0.
         24    2    3    3    0    0  0.52428296612E+02  0.52823263641E+02 -0.28415387268E+03  0.30418769845E+03  0.79042451024E+02 0.  0.
         -6    2    1    2    0  502 -0.92883418346E+02 -0.94291143412E+01 -0.14211853195E+03  0.24206224738E+03  0.17227947319E+03 0.  0.
        -24    2    5    5    0    0 -0.11645443242E+02 -0.10749075905E+02 -0.13844611225E+03  0.16059490691E+03  0.79826306107E+02 0.  0.
          5    1    3    3  501    0  0.40455121734E+02 -0.43394149300E+02 -0.34018193260E+02  0.68549227134E+02  0.47000000000E+01 0. -1.
        -11    1    4    4    0    0  0.54088062243E+02 -0.45049164535E+00 -0.12076391024E+03  0.13232400930E+03  0.00000000000E+00 0.  1.
         12    1    4    4    0    0 -0.16597656316E+01  0.53273755287E+02 -0.16338996244E+03  0.17186368916E+03  0.00000000000E+00 0. -1.
         -5    1    5    5    0  502 -0.81237975104E+02  0.13199615634E+01 -0.36724197027E+01  0.81467340474E+02  0.47000000000E+01 0.  1.
         13    1    6    6    0    0  0.14388420199E+02 -0.21377288504E+02 -0.77510311569E+01  0.26908987042E+02  0.00000000000E+00 0. -1.
        -14    1    6    6    0    0 -0.26033863441E+02  0.10628212599E+02 -0.13069508109E+03  0.13368591987E+03  0.00000000000E+00 0.  1.
</event>
<event>
12    1  0.1628146E-001  0.1891879E+03  0.7818608E-02  0.1160036E+00
         21   -1    0    0  501  502  0.00000000000E+00  0.00000000000E+00  0.12620342682E+03  0.12620342682E+03  0.00000000000E+00 0.  1.
         21   -1    0    0  502  503 -0.00000000000E+00 -0.00000000000E+00 -0.31110989760E+03  0.31110989760E+03  0.00000000000E+00 0. -1.
         -6    2    1    2    0  503 -0.40196083863E+02  0.67509160032E+02 -0.16282713081E+03  0.24684135497E+03  0.16806179861E+03 0.  0.
        -24    2    3    3    0    0 -0.91577847847E+02  0.21363644199E+02 -0.90573774183E+02  0.14678071413E+03  0.67067592488E+02 0.  0.
          6    2    1    2  501    0  0.40196083863E+02 -0.67509160032E+02 -0.22079339980E+02  0.19047196945E+03  0.17210131332E+03 0.  0.
         24    2    5    5    0    0 -0.98308931347E+01  0.14454565119E+00  0.35511430083E+02  0.88400871107E+02  0.80355366919E+02 0.  0.
          5    1    5    5  501    0  0.50026976997E+02 -0.67653705683E+02 -0.57590770063E+02  0.10207109834E+03  0.47000000000E+01 0. -1.
        -11    1    6    6    0    0  0.27756676217E+02 -0.59596165005E+01  0.41060093276E+02  0.49918747614E+02  0.00000000000E+00 0.  1.
         12    1    6    6    0    0 -0.37587569352E+02  0.61041621517E+01 -0.55486631930E+01  0.38482123494E+02  0.00000000000E+00 0. -1.
         -5    1    3    3    0  503  0.51381763984E+02  0.46145515833E+02 -0.72253356623E+02  0.10006064084E+03  0.47000000000E+01 0.  1.
         13    1    4    4    0    0 -0.76013399480E+02  0.31005427769E+02 -0.97272920834E+02  0.12728469892E+03  0.00000000000E+00 0. -1.
        -14    1    4    4    0    0 -0.15564448367E+02 -0.96417835702E+01  0.66991466504E+01  0.19496015214E+02  0.00000000000E+00 0.  1.
</event>
<event>
12    1  0.1628146E-001  0.1885153E+03  0.7818608E-02  0.1159888E+00
         21   -1    0    0  503  502  0.00000000000E+00  0.00000000000E+00  0.11716085598E+03  0.11716085598E+03  0.00000000000E+00 0.  1.
         21   -1    0    0  501  503 -0.00000000000E+00 -0.00000000000E+00 -0.30618762519E+03  0.30618762519E+03  0.00000000000E+00 0.  1.
          6    2    1    2  501    0  0.75419367681E+02  0.16435522828E+02 -0.11682933262E+03  0.22148095160E+03  0.17159985878E+03 0.  0.
         24    2    3    3    0    0  0.21143456845E+02  0.23959427923E+02  0.43144100351E+01  0.88438176420E+02  0.82350452098E+02 0.  0.
         -6    2    1    2    0  502 -0.75419367681E+02 -0.16435522828E+02 -0.72197436591E+02  0.20186752957E+03  0.17198785484E+03 0.  0.
        -24    2    5    5    0    0 -0.54165707178E+02  0.22878735909E+02  0.16947026190E+02  0.10203690166E+03  0.81651498533E+02 0.  0.
          5    1    3    3  501    0  0.54275910836E+02 -0.75239050951E+01 -0.12114374265E+03  0.13304277518E+03  0.47000000000E+01 0. -1.
        -11    1    4    4    0    0  0.19842678499E+02  0.39755911486E+02  0.33215936880E+02  0.55475786167E+02  0.00000000000E+00 0.  1.
         12    1    4    4    0    0  0.13007783459E+01 -0.15796483562E+02 -0.28901526845E+02  0.32962390253E+02  0.00000000000E+00 0. -1.
         -5    1    5    5    0  502 -0.21253660502E+02 -0.39314258737E+02 -0.89144462782E+02  0.99830627913E+02  0.47000000000E+01 0.  1.
         11    1    6    6    0    0  0.21134531428E+02  0.95110655521E+01  0.10009913007E+02  0.25245339075E+02  0.00000000000E+00 0. -1.
        -12    1    6    6    0    0 -0.75300238606E+02  0.13367670357E+02  0.69371131835E+01  0.76791562585E+02  0.00000000000E+00 0.  1.
</event>
<event>
12    1  0.1628146E-001  0.2300982E+03  0.7818608E-02  0.1126640E+00
         21   -1    0    0  503  502  0.00000000000E+00  0.00000000000E+00  0.31997934403E+03  0.31997934403E+03  0.00000000000E+00 0. -1.
         21   -1    0    0  501  503 -0.00000000000E+00 -0.00000000000E+00 -0.18130390284E+03  0.18130390284E+03  0.00000000000E+00 0. -1.
          6    2    1    2  501    0 -0.22924686187E+02  0.15070182984E+03  0.14402746330E+03  0.27112277346E+03  0.17183441259E+03 0.  0.
         24    2    3    3    0    0 -0.50182962781E+02  0.16825752132E+03  0.10048571844E+03  0.21663250376E+03  0.77481216062E+02 0.  0.
         -6    2    1    2    0  502  0.22924686187E+02 -0.15070182984E+03 -0.53520221157E+01  0.23016047341E+03  0.17236187695E+03 0.  0.
        -24    2    5    5    0    0  0.31229726657E+02 -0.13935479652E+03 -0.59636873610E+02  0.17388735404E+03  0.79279253657E+02 0.  0.
          5    1    3    3  501    0  0.27258276594E+02 -0.17555691478E+02  0.43541744861E+02  0.54490269697E+02  0.47000000000E+01 0. -1.
        -13    1    4    4    0    0 -0.44553263647E+02  0.74360898074E+02  0.12043562523E+02  0.87519048567E+02  0.00000000000E+00 0.  1.
         14    1    4    4    0    0 -0.56296991346E+01  0.93896623244E+02  0.88442155921E+02  0.12911345520E+03  0.00000000000E+00 0. -1.
         -5    1    5    5    0  502 -0.83050404697E+01 -0.11347033322E+02  0.54284851494E+02  0.56273119375E+02  0.47000000000E+01 0.  1.
         13    1    6    6    0    0  0.48502244078E+02 -0.43765273550E+02 -0.15230122537E+02  0.67080723624E+02  0.00000000000E+00 0. -1.
        -14    1    6    6    0    0 -0.17272517421E+02 -0.95589522967E+02 -0.44406751073E+02  0.10680663041E+03  0.00000000000E+00 0.  1.
</event>
<event>
12    1  0.1628146E-001  0.2150034E+03  0.7818608E-02  0.1137692E+00
         21   -1    0    0  501  502  0.00000000000E+00  0.00000000000E+00  0.16027314635E+04  0.16027314635E+04  0.00000000000E+00 0.  1.
         21   -1    0    0  502  503 -0.00000000000E+00 -0.00000000000E+00 -0.39910152932E+02  0.39910152932E+02  0.00000000000E+00 0.  1.
         -6    2    1    2    0  503  0.96154067745E+02  0.85299608579E+02  0.34870196986E+03  0.40965784172E+03  0.17235096614E+03 0.  0.
        -24    2    3    3    0    0  0.57180775077E+01  0.94873895349E+02  0.18813980012E+03  0.22507009660E+03  0.78906346788E+02 0.  0.
          6    2    1    2  501    0 -0.96154067745E+02 -0.85299608579E+02  0.12141193407E+04  0.12329837747E+04  0.17216732343E+03 0.  0.
         24    2    5    5    0    0  0.38750943759E+01  0.52504275883E+01  0.43470356646E+03  0.44196153642E+03  0.79499846779E+02 0.  0.
          5    1    5    5  501    0 -0.10002916212E+03 -0.90550036168E+02  0.77941577424E+03  0.79102223829E+03  0.47000000000E+01 0. -1.
        -11    1    6    6    0    0 -0.15293398598E+02  0.36763582127E+02  0.28565712465E+03  0.28841886532E+03  0.00000000000E+00 0.  1.
         12    1    6    6    0    0  0.19168492974E+02 -0.31513154539E+02  0.14904644181E+03  0.15354267110E+03  0.00000000000E+00 0. -1.
         -5    1    3    3    0  503  0.90435990237E+02 -0.95742867694E+01  0.16056216973E+03  0.18458774512E+03  0.47000000000E+01 0.  1.
         13    1    4    4    0    0 -0.19617440837E+02 -0.23975761256E+01  0.14785218391E+02  0.24681876735E+02  0.00000000000E+00 0. -1.
        -14    1    4    4    0    0  0.25335518345E+02  0.97271471474E+02  0.17335458173E+03  0.20038821987E+03  0.00000000000E+00 0.  1.
</event>
<event>
12    1  0.1628146E-001  0.1892072E+03  0.7818608E-02  0.1159182E+00
         21   -1    0    0  503  502  0.00000000000E+00  0.00000000000E+00  0.24149801069E+03  0.24149801069E+03  0.00000000000E+00 0.  1.
         21   -1    0    0  501  503 -0.00000000000E+00 -0.00000000000E+00 -0.14822530767E+03  0.14822530767E+03  0.00000000000E+00 0.  1.
          6    2    1    2  501    0  0.32730931290E+02  0.72402522220E+02  0.46733008993E+02  0.19487647839E+03  0.17169574430E+03 0.  0.
         24    2    3    3    0    0  0.98749757145E+01  0.69590088401E+02  0.94339421075E+02  0.14178443604E+03  0.79136618483E+02 0.  0.
         -6    2    1    2    0  502 -0.32730931290E+02 -0.72402522220E+02  0.46539694028E+02  0.19484683997E+03  0.17171461452E+03 0.  0.
        -24    2    5    5    0    0  0.33344924911E+02 -0.42077549298E+02  0.69170894108E+02  0.11855867593E+03  0.79932114162E+02 0.  0.
          5    1    3    3  501    0  0.22855955576E+02  0.28124338186E+01 -0.47606412082E+02  0.53092042347E+02  0.47000000000E+01 0. -1.
        -11    1    4    4    0    0  0.42814954592E+02  0.30946253547E+02  0.62562427918E+02  0.81883138266E+02  0.00000000000E+00 0.  1.
         12    1    4    4    0    0 -0.32939978878E+02  0.38643834855E+02  0.31776993157E+02  0.59901297773E+02  0.00000000000E+00 0. -1.
         -5    1    5    5    0  502 -0.66075856202E+02 -0.30324972922E+02 -0.22631200080E+02  0.76288164040E+02  0.47000000000E+01 0.  1.
         13    1    6    6    0    0 -0.62119406883E+01  0.72154915174E+01  0.52277506576E+02  0.53137455893E+02  0.00000000000E+00 0. -1.
        -14    1    6    6    0    0  0.39556865600E+02 -0.49293040815E+02  0.16893387532E+02  0.65421220037E+02  0.00000000000E+00 0.  1.
</event>
<event>
12    1  0.1628146E-001  0.3030164E+03  0.7818608E-02  0.1084011E+00
         21   -1    0    0  501  502  0.00000000000E+00  0.00000000000E+00  0.55081178811E+03  0.55081178811E+03  0.00000000000E+00 0.  1.
         21   -1    0    0  502  503 -0.00000000000E+00 -0.00000000000E+00 -0.36051562832E+03  0.36051562832E+03  0.00000000000E+00 0. -1.
         -6    2    1    2    0  503  0.18132122400E+03  0.16752841173E+03 -0.24013319323E+03  0.38493559373E+03  0.17195437133E+03 0.  0.
        -24    2    3    3    0    0  0.19198720078E+03  0.16876830682E+03 -0.25224065952E+03  0.36808385375E+03  0.80737515617E+02 0.  0.
          6    2    1    2  501    0 -0.18132122400E+03 -0.16752841173E+03  0.43042935302E+03  0.52639182270E+03  0.17571501944E+03 0.  0.
         24    2    5    5    0    0 -0.10448010994E+03 -0.81648308514E+02  0.35767400033E+03  0.39002694349E+03  0.81288292371E+02 0.  0.
          5    1    5    5  501    0 -0.76841114053E+02 -0.85880103220E+02  0.72755352690E+02  0.13636487921E+03  0.47000000000E+01 0. -1.
        -13    1    6    6    0    0 -0.44067826751E+02 -0.79376883347E+02  0.16815033070E+03  0.19109473221E+03  0.00000000000E+00 0.  1.
         14    1    6    6    0    0 -0.60412283194E+02 -0.22714251670E+01  0.18952366963E+03  0.19893221128E+03  0.00000000000E+00 0. -1.
         -5    1    3    3    0  503 -0.10665976780E+02 -0.12398950818E+01  0.12107466289E+02  0.16851739982E+02  0.47000000000E+01 0.  1.
         13    1    4    4    0    0  0.94720731883E+02  0.56179319836E+02 -0.61366016051E+02  0.12607109483E+03  0.00000000000E+00 0. -1.
        -14    1    4    4    0    0  0.97266468894E+02  0.11258898698E+03 -0.19087464347E+03  0.24201275892E+03  0.00000000000E+00 0.  1.
</event>
<event>
12    1  0.1628146E-001  0.1761375E+03  0.7818608E-02  0.1171763E+00
         21   -1    0    0  503  502  0.00000000000E+00  0.00000000000E+00  0.60284209229E+02  0.60284209229E+02  0.00000000000E+00 0. -1.
         21   -1    0    0  501  503 -0.00000000000E+00 -0.00000000000E+00 -0.65414753851E+03  0.65414753851E+03  0.00000000000E+00 0. -1.
          6    2    1    2  501    0  0.26078581019E+02  0.29716450683E+02 -0.46350925895E+03  0.49584801840E+03  0.17164283960E+03 0.  0.
         24    2    3    3    0    0  0.37142546703E+02  0.47895588509E+02 -0.14023395914E+03  0.17183891073E+03  0.78673323105E+02 0.  0.
         -6    2    1    2    0  502 -0.26078581019E+02 -0.29716450683E+02 -0.13035407032E+03  0.21858372933E+03  0.17094883226E+03 0.  0.
        -24    2    5    5    0    0  0.46753812379E+02 -0.33280015084E+01 -0.97766311304E+02  0.13441152599E+03  0.79443137697E+02 0.  0.
          5    1    3    3  501    0 -0.11063965684E+02 -0.18179137826E+02 -0.32327529981E+03  0.32400910767E+03  0.47000000000E+01 0. -1.
        -11    1    4    4    0    0  0.45096789527E+01 -0.63364777140E+01  0.76934735437E+01  0.10939729852E+02  0.00000000000E+00 0.  1.
         12    1    4    4    0    0  0.32632867750E+02  0.54232066223E+02 -0.14792743269E+03  0.16089918087E+03  0.00000000000E+00 0. -1.
         -5    1    5    5    0  502 -0.72832393397E+02 -0.26388449174E+02 -0.32587759020E+02  0.84172203344E+02  0.47000000000E+01 0.  1.
         11    1    6    6    0    0  0.25466352832E+02  0.35479109815E+02 -0.28293853212E+02  0.52036953114E+02  0.00000000000E+00 0. -1.
        -12    1    6    6    0    0  0.21287459547E+02 -0.38807111323E+02 -0.69472458092E+02  0.82374572877E+02  0.00000000000E+00 0.  1.
</event>
<event>
12    1  0.1628146E-001  0.1946540E+03  0.7818608E-02  0.1155107E+00
         21   -1    0    0  503  502  0.00000000000E+00  0.00000000000E+00  0.32673132736E+03  0.32673132736E+03  0.00000000000E+00 0. -1.
         21   -1    0    0  501  503 -0.00000000000E+00 -0.00000000000E+00 -0.13092571327E+03  0.13092571327E+03  0.00000000000E+00 0.  1.
          6    2    1    2  501    0 -0.75732550170E+02  0.38198035619E+02  0.16112755961E+02  0.19531976372E+03  0.17520182681E+03 0.  0.
         24    2    3    3    0    0 -0.24464444020E+02  0.28682689889E+02 -0.55120492281E+02  0.10691599589E+03  0.83495842933E+02 0.  0.
         -6    2    1    2    0  502  0.75732550170E+02 -0.38198035619E+02  0.17969285812E+03  0.26233727690E+03  0.17127993026E+03 0.  0.
        -24    2    5    5    0    0  0.24100095156E+02 -0.25634018258E+02  0.18940319176E+03  0.20811416816E+03  0.78740208669E+02 0.  0.
          5    1    3    3  501    0 -0.51268106150E+02  0.95153457298E+01  0.71233248241E+02  0.88403767836E+02  0.47000000000E+01 0. -1.
        -13    1    4    4    0    0 -0.27081172389E+02  0.13459398896E+02 -0.75507384569E+02  0.81338247098E+02  0.00000000000E+00 0.  1.
         14    1    4    4    0    0  0.26167283684E+01  0.15223290993E+02  0.20386892288E+02  0.25577748790E+02  0.00000000000E+00 0. -1.
         -5    1    5    5    0  502  0.51632455015E+02 -0.12564017361E+02 -0.97103336307E+01  0.54223108748E+02  0.47000000000E+01 0.  1.
         11    1    6    6    0    0 -0.24898301985E+02 -0.27103764153E+02  0.71211115943E+02  0.80159606454E+02  0.00000000000E+00 0. -1.
        -12    1    6    6    0    0  0.48998397141E+02  0.14697458951E+01  0.11819207581E+03  0.12795456170E+03  0.00000000000E+00 0.  1.
</event>
<event>
12    1  0.1628146E-001  0.1761253E+03  0.7818608E-02  0.1171962E+00
         21   -1    0    0  501  502  0.00000000000E+00  0.00000000000E+00  0.64420813139E+03  0.64420813139E+03  0.00000000000E+00 0. -1.
         21   -1    0    0  502  503 -0.00000000000E+00 -0.00000000000E+00 -0.71968369167E+02  0.71968369167E+02  0.00000000000E+00 0. -1.
         -6    2    1    2    0  503 -0.28961323228E+02  0.22377771494E+02  0.79226178005E+02  0.19312403797E+03  0.17228053826E+03 0.  0.
        -24    2    3    3    0    0  0.15988292521E+02 -0.79459231786E+01  0.10515261678E+03  0.13283917551E+03  0.79185923897E+02 0.  0.
          6    2    1    2  501    0  0.28961323228E+02 -0.22377771494E+02  0.49301358422E+03  0.52305246258E+03  0.17082728555E+03 0.  0.
         24    2    5    5    0    0  0.24756127929E+02 -0.35611432549E+02  0.49898216375E+03  0.50722440540E+03  0.80077198321E+02 0.  0.
          5    1    5    5  501    0  0.42051952988E+01  0.13233661054E+02 -0.59685795379E+01  0.15828057180E+02  0.47000000000E+01 0. -1.
        -11    1    6    6    0    0 -0.22348126851E+02  0.75066653972E+01  0.79922602695E+02  0.83327133760E+02  0.00000000000E+00 0.  1.
         12    1    6    6    0    0  0.47104254781E+02 -0.43118097946E+02  0.41905956106E+03  0.42389727164E+03  0.00000000000E+00 0. -1.
         -5    1    3    3    0  503 -0.44949615749E+02  0.30323694673E+02 -0.25926438771E+02  0.60284862461E+02  0.47000000000E+01 0.  1.
         13    1    4    4    0    0 -0.31626794585E+02 -0.87726235642E+01  0.34333900071E+02  0.47497681564E+02  0.00000000000E+00 0. -1.
        -14    1    4    4    0    0  0.47615087106E+02  0.82670038556E+00  0.70818716705E+02  0.85341493949E+02  0.00000000000E+00 0.  1.
</event>
<event>
12    1  0.1628146E-001  0.3239549E+03  0.7818608E-02  0.1073926E+00
         21   -1    0    0  503  502  0.00000000000E+00  0.00000000000E+00  0.70101930292E+02  0.70101930292E+02  0.00000000000E+00 0.  1.
         21   -1    0    0  501  503 -0.00000000000E+00 -0.00000000000E+00 -0.15076791100E+04  0.15076791100E+04  0.00000000000E+00 0.  1.
          6    2    1    2  501    0  0.94852744384E+02  0.25783843167E+03 -0.64197939924E+03  0.71875682393E+03  0.17028247983E+03 0.  0.
         24    2    3    3    0    0  0.57840681533E+02  0.26132134801E+03 -0.53771900930E+03  0.60796719259E+03  0.94063717411E+02 0.  0.
         -6    2    1    2    0  502 -0.94852744384E+02 -0.25783843167E+03 -0.79559778050E+03  0.85902421640E+03  0.17166559367E+03 0.  0.
        -24    2    5    5    0    0 -0.40162185684E+02 -0.96286128295E+02 -0.50287702349E+03  0.52020607119E+03  0.82734733238E+02 0.  0.
          5    1    3    3  501    0  0.37012062851E+02 -0.34829163436E+01 -0.10426038994E+03  0.11078963134E+03  0.47000000000E+01 0. -1.
        -11    1    4    4    0    0 -0.13613408173E+02  0.23753415711E+02 -0.20083401548E+02  0.33954273041E+02  0.00000000000E+00 0.  1.
         12    1    4    4    0    0  0.71454089706E+02  0.23756793230E+03 -0.51763560775E+03  0.57401291955E+03  0.00000000000E+00 0. -1.
         -5    1    5    5    0  502 -0.54690558700E+02 -0.16155230337E+03 -0.29272075701E+03  0.33881814521E+03  0.47000000000E+01 0.  1.
         13    1    6    6    0    0 -0.56236206190E+02 -0.27724282985E+02 -0.23127863424E+03  0.23962669594E+03  0.00000000000E+00 0. -1.
        -14    1    6    6    0    0  0.16074020506E+02 -0.68561845310E+02 -0.27159838925E+03  0.28057937525E+03  0.00000000000E+00 0.  1.
</event>
<event>
12    1  0.1628146E-001  0.2068597E+03  0.7818608E-02  0.1144602E+00
         21   -1    0    0  503  502  0.00000000000E+00  0.00000000000E+00  0.99617875546E+02  0.99617875546E+02  0.00000000000E+00 0. -1.
         21   -1    0    0  501  503 -0.00000000000E+00 -0.00000000000E+00 -0.93136199508E+03  0.93136199508E+03  0.00000000000E+00 0.  1.
          6    2    1    2  501    0 -0.10536034059E+03 -0.37543421712E+02 -0.79507137970E+03  0.82089457385E+03  0.17093593150E+03 0.  0.
         24    2    3    3    0    0 -0.11904344287E+03 -0.76296700233E+02 -0.60962278558E+03  0.63088848199E+03  0.79923765228E+02 0.  0.
         -6    2    1    2    0  502  0.10536034059E+03  0.37543421712E+02 -0.36672739833E+02  0.21008529677E+03  0.17401331038E+03 0.  0.
        -24    2    5    5    0    0  0.70320540936E+02 -0.40070985286E+01  0.41779288910E+02  0.11452879984E+03  0.80064359706E+02 0.  0.
          5    1    3    3  501    0  0.13683102285E+02  0.38753278522E+02 -0.18544859412E+03  0.19000609186E+03  0.47000000000E+01 0. -1.
        -13    1    4    4    0    0 -0.44565510985E+02 -0.59748977390E+02 -0.41875536872E+03  0.42533761167E+03  0.00000000000E+00 0.  1.
         14    1    4    4    0    0 -0.74477931890E+02 -0.16547722844E+02 -0.19086741686E+03  0.20555087032E+03  0.00000000000E+00 0. -1.
         -5    1    5    5    0  502  0.35039799655E+02  0.41550520240E+02 -0.78452028743E+02  0.95556496932E+02  0.47000000000E+01 0.  1.
         11    1    6    6    0    0  0.85513199300E+02 -0.47651257606E-01  0.20241817058E+02  0.87876280549E+02  0.00000000000E+00 0. -1.
        -12    1    6    6    0    0 -0.15192658365E+02 -0.39594472710E+01  0.21537471851E+02  0.26652519292E+02  0.00000000000E+00 0.  1.
</event>
<event>
12    1  0.1628146E-001  0.2343401E+03  0.7818608E-02  0.1123837E+00
         21   -1    0    0  503  502  0.00000000000E+00  0.00000000000E+00  0.42089101844E+03  0.42089101844E+03  0.00000000000E+00 0. -1.
         21   -1    0    0  501  503 -0.00000000000E+00 -0.00000000000E+00 -0.13069725892E+03  0.13069725892E+03  0.00000000000E+00 0. -1.
          6    2    1    2  501    0  0.19162684825E+02 -0.15658584159E+03  0.16858137166E+03  0.28867792899E+03  0.17328858456E+03 0.  0.
         24    2    3    3    0    0  0.80462160973E+02 -0.10571408171E+03  0.96679306950E+02  0.18126490074E+03  0.76553572261E+02 0.  0.
         -6    2    1    2    0  502 -0.19162684825E+02  0.15658584159E+03  0.12161238786E+03  0.26291034838E+03  0.17159820548E+03 0.  0.
        -24    2    5    5    0    0 -0.22168803804E+02  0.13888449457E+03  0.15549301600E+03  0.22427925467E+03  0.79641367123E+02 0.  0.
          5    1    3    3  501    0 -0.61299476148E+02 -0.50871759881E+02  0.71902064708E+02  0.10741302825E+03  0.47000000000E+01 0. -1.
        -13    1    4    4    0    0  0.80933302011E+02 -0.11607597891E+03  0.82841779799E+02  0.16397131681E+03  0.00000000000E+00 0.  1.
         14    1    4    4    0    0 -0.47114103763E+00  0.10361897201E+02  0.13837527152E+02  0.17293583930E+02  0.00000000000E+00 0. -1.
         -5    1    5    5    0  502  0.30061189798E+01  0.17701347022E+02 -0.33880628138E+02  0.38631093704E+02  0.47000000000E+01 0.  1.
         13    1    6    6    0    0 -0.13409797554E+02  0.11691497832E+03  0.73050002508E+02  0.13851078547E+03  0.00000000000E+00 0. -1.
        -14    1    6    6    0    0 -0.87590062506E+01  0.21969516248E+02  0.82443013495E+02  0.85768469199E+02  0.00000000000E+00 0.  1.
</event>
<event>
12    1  0.1628146E-001  0.2399060E+03  0.7818608E-02  0.1119859E+00
         21   -1    0    0  503  502  0.00000000000E+00  0.00000000000E+00  0.74938495755E+03  0.74938495755E+03  0.00000000000E+00 0.  1.
         21   -1    0    0  501  503 -0.00000000000E+00 -0.00000000000E+00 -0.77306305819E+02  0.77306305819E+02  0.00000000000E+00 0.  1.
          6    2    1    2  501    0 -0.56488958158E+02  0.15744351710E+03  0.30245312726E+03  0.38604766954E+03  0.17197513048E+03 0.  0.
         24    2    3    3    0    0 -0.92007871075E+02  0.14672550817E+03  0.19551359422E+03  0.27275767609E+03  0.78596191087E+02 0.  0.
         -6    2    1    2    0  502  0.56488958158E+02 -0.15744351710E+03  0.36962552448E+03  0.44064359383E+03  0.17194267931E+03 0.  0.
        -24    2    5    5    0    0  0.68089710070E+02 -0.11094129648E+03  0.13836861082E+03  0.20442571965E+03  0.75497168899E+02 0.  0.
          5    1    3    3  501    0  0.35518912917E+02  0.10718008923E+02  0.10693953304E+03  0.11328999345E+03  0.47000000000E+01 0. -1.
        -13    1    4    4    0    0 -0.41817723616E+02  0.22633332813E+02  0.18944631660E+02  0.51184849627E+02  0.00000000000E+00 0.  1.
         14    1    4    4    0    0 -0.50190147460E+02  0.12409217536E+03  0.17656896256E+03  0.22157282647E+03  0.00000000000E+00 0. -1.
         -5    1    5    5    0  502 -0.11600751912E+02 -0.46502220616E+02  0.23125691366E+03  0.23621787418E+03  0.47000000000E+01 0.  1.
         11    1    6    6    0    0  0.17195411800E+02  0.90978864452E+01  0.24778059792E+02  0.31502475646E+02  0.00000000000E+00 0. -1.
        -12    1    6    6    0    0  0.50894298270E+02 -0.12003918293E+03  0.11359055103E+03  0.17292324400E+03  0.00000000000E+00 0.  1.
</event>
<event>
12    1  0.1628146E-001  0.2475111E+03  0.7818608E-02  0.1115438E+00
         21   -1    0    0  503  502  0.00000000000E+00  0.00000000000E+00  0.14926769260E+04  0.14926769260E+04  0.00000000000E+00 0. -1.
         21   -1    0    0  501  503 -0.00000000000E+00 -0.00000000000E+00 -0.96116374451E+02  0.96116374451E+02  0.00000000000E+00 0. -1.
          6    2    1    2  501    0 -0.59039524621E+02  0.16803008024E+03  0.95923096255E+02  0.26544866333E+03  0.17187780292E+03 0.  0.
         24    2    3    3    0    0 -0.12946597492E+02  0.15907392061E+03  0.11789624883E+03  0.21339407506E+03  0.78519928538E+02 0.  0.
         -6    2    1    2    0  502  0.59039524621E+02 -0.16803008024E+03  0.13006374553E+04  0.13233446371E+04  0.16692353083E+03 0.  0.
        -24    2    5    5    0    0  0.89477721805E+02 -0.66608568674E+02  0.79875514669E+03  0.81039166798E+03  0.79258482525E+02 0.  0.
          5    1    3    3  501    0 -0.46092927128E+02  0.89561596302E+01 -0.21973152571E+02  0.52054588275E+02  0.47000000000E+01 0. -1.
        -11    1    4    4    0    0 -0.11548915485E+02  0.16786874030E+03  0.10735841034E+03  0.19959739399E+03  0.00000000000E+00 0.  1.
         12    1    4    4    0    0 -0.13976820071E+01 -0.87948196902E+01  0.10537838488E+02  0.13796681064E+02  0.00000000000E+00 0. -1.
         -5    1    5    5    0  502 -0.30438197184E+02 -0.10142151156E+03  0.50188230861E+03  0.51295296914E+03  0.47000000000E+01 0.  1.
         11    1    6    6    0    0 -0.12422670040E+02 -0.22684717759E+02  0.15512836898E+03  0.15726960931E+03  0.00000000000E+00 0. -1.
        -12    1    6    6    0    0  0.10190039184E+03 -0.43923850915E+02  0.64362677771E+03  0.65312205867E+03  0.00000000000E+00 0.  1.
</event>
<event>
12    1  0.1628146E-001  0.2761105E+03  0.7818608E-02  0.1098347E+00
         21   -1    0    0  501  502  0.00000000000E+00  0.00000000000E+00  0.14280800578E+03  0.14280800578E+03  0.00000000000E+00 0. -1.
         21   -1    0    0  502  503 -0.00000000000E+00 -0.00000000000E+00 -0.62682552484E+03  0.62682552484E+03  0.00000000000E+00 0.  1.
         -6    2    1    2    0  503  0.95816958999E+02 -0.18706976482E+03 -0.39439561367E+03  0.47934217361E+03  0.17333503043E+03 0.  0.
        -24    2    3    3    0    0  0.20245657029E+02 -0.13645594822E+03 -0.33487952344E+03  0.37054403433E+03  0.78284568901E+02 0.  0.
          6    2    1    2  501    0 -0.95816958999E+02  0.18706976482E+03 -0.89621905392E+02  0.29029135702E+03  0.17905585579E+03 0.  0.
         24    2    5    5    0    0 -0.60751359765E+02  0.92808367817E+02 -0.12265010703E+03  0.18433023529E+03  0.81427673649E+02 0.  0.
          5    1    5    5  501    0 -0.35065599234E+02  0.94261397007E+02  0.33028201642E+02  0.10596112173E+03  0.47000000000E+01 0. -1.
        -13    1    6    6    0    0 -0.74899769385E+02  0.53934898516E+02 -0.63039951305E+02  0.11177201883E+03  0.00000000000E+00 0.  1.
         14    1    6    6    0    0  0.14148409620E+02  0.38873469301E+02 -0.59610155729E+02  0.72558216463E+02  0.00000000000E+00 0. -1.
         -5    1    3    3    0  503  0.75571301970E+02 -0.50613816607E+02 -0.59516090228E+02  0.10879813927E+03  0.47000000000E+01 0.  1.
         11    1    4    4    0    0 -0.10461778985E+02 -0.15335487294E+02 -0.73094366004E+01  0.19951287014E+02  0.00000000000E+00 0. -1.
        -12    1    4    4    0    0  0.30707436014E+02 -0.12112046092E+03 -0.32757008684E+03  0.35059274732E+03  0.00000000000E+00 0.  1.
</event>
<event>
12    1  0.1628146E-001  0.1746983E+03  0.7818608E-02  0.1173288E+00
         21   -1    0    0  503  502  0.00000000000E+00  0.00000000000E+00  0.12824135711E+04  0.12824135711E+04  0.00000000000E+00 0.  1.
         21   -1    0    0  501  503 -0.00000000000E+00 -0.00000000000E+00 -0.24545816614E+02  0.24545816614E+02  0.00000000000E+00 0.  1.
          6    2    1    2  501    0  0.20063967998E+02  0.19857976556E+02  0.50320600524E+03  0.53234087879E+03  0.17138735505E+03 0.  0.
         24    2    3    3    0    0  0.31173762779E+02  0.41165649861E+02  0.13794277027E+03  0.16625787549E+03  0.77117177577E+02 0.  0.
         -6    2    1    2    0  502 -0.20063967998E+02 -0.19857976556E+02  0.75466174924E+03  0.77461850893E+03  0.17240236819E+03 0.  0.
        -24    2    5    5    0    0 -0.50255176052E+02 -0.58946458350E+01  0.25550356399E+03  0.27433112396E+03  0.86111351132E+02 0.  0.
          5    1    3    3  501    0 -0.11109794781E+02 -0.21307673306E+02  0.36526323497E+03  0.36608300330E+03  0.47000000000E+01 0. -1.
        -11    1    4    4    0    0  0.56388592644E+01  0.51084696093E+02  0.41674792628E+02  0.66168204217E+02  0.00000000000E+00 0.  1.
         12    1    4    4    0    0  0.25534903515E+02 -0.99190462316E+01  0.96267977646E+02  0.10008967127E+03  0.00000000000E+00 0. -1.
         -5    1    5    5    0  502  0.30191208054E+02 -0.13963330721E+02  0.49915818526E+03  0.50028738497E+03  0.47000000000E+01 0.  1.
         11    1    6    6    0    0  0.68160937202E+01 -0.83318768890E+01 -0.16667616701E+01  0.10892997777E+02  0.00000000000E+00 0. -1.
        -12    1    6    6    0    0 -0.57071269773E+02  0.24372310541E+01  0.25717032566E+03  0.26343812618E+03  0.00000000000E+00 0.  1.
</event>
<event>
12    1  0.1628146E-001  0.2086015E+03  0.7818608E-02  0.1142683E+00
         21   -1    0    0  501  502  0.00000000000E+00  0.00000000000E+00  0.27169975571E+02  0.27169975571E+02  0.00000000000E+00 0. -1.
         21   -1    0    0  502  503 -0.00000000000E+00 -0.00000000000E+00 -0.20123653638E+04  0.20123653638E+04  0.00000000000E+00 0.  1.
         -6    2    1    2    0  503  0.50310130986E+02  0.10518733267E+03 -0.14534004443E+04  0.14682906745E+04  0.17294267610E+03 0.  0.
        -24    2    3    3    0    0  0.80945235134E+02  0.66875290751E+02 -0.63738929331E+03  0.65079290042E+03  0.79005394745E+02 0.  0.
          6    2    1    2  501    0 -0.50310130986E+02 -0.10518733267E+03 -0.53179494396E+03  0.57124466486E+03  0.17297144411E+03 0.  0.
         24    2    5    5    0    0 -0.25574423783E+02 -0.55573738061E+02 -0.49354628222E+03  0.50372863635E+03  0.80075682170E+02 0.  0.
          5    1    5    5  501    0 -0.24735707203E+02 -0.49613594608E+02 -0.38248661744E+02  0.67516028512E+02  0.47000000000E+01 0. -1.
        -11    1    6    6    0    0 -0.50291415391E+02 -0.50693616807E+02 -0.29155804793E+03  0.30017522309E+03  0.00000000000E+00 0.  1.
         12    1    6    6    0    0  0.24716991608E+02 -0.48801212538E+01 -0.20198823429E+03  0.20355341326E+03  0.00000000000E+00 0. -1.
         -5    1    3    3    0  503 -0.30635104148E+02  0.38312041918E+02 -0.81601115097E+03  0.81749777411E+03  0.47000000000E+01 0.  1.
         11    1    4    4    0    0  0.86803724275E+02  0.51561419061E+02 -0.61390146138E+03  0.62214827073E+03  0.00000000000E+00 0. -1.
        -12    1    4    4    0    0 -0.58584891409E+01  0.15313871690E+02 -0.23487831931E+02  0.28644629689E+02  0.00000000000E+00 0.  1.
</event>
<event>
12    1  0.1628146E-001  0.2715881E+03  0.7818608E-02  0.1100454E+00
         21   -1    0    0  503  502  0.00000000000E+00  0.00000000000E+00  0.60577503389E+03  0.60577503389E+03  0.00000000000E+00 0. -1.
         21   -1    0    0  501  503 -0.00000000000E+00 -0.00000000000E+00 -0.16701039794E+03  0.16701039794E+03  0.00000000000E+00 0.  1.
          6    2    1    2  501    0  0.19214594083E+03  0.84937633439E+02  0.17864507876E+02  0.27217505005E+03  0.17212104193E+03 0.  0.
         24    2    3    3    0    0  0.17316957334E+03  0.10986041733E+03  0.50511248984E+02  0.22668716831E+03  0.82332700525E+02 0.  0.
         -6    2    1    2    0  502 -0.19214594083E+03 -0.84937633439E+02  0.42090012807E+03  0.50061038178E+03  0.17122900566E+03 0.  0.
        -24    2    5    5    0    0 -0.42047344286E+02 -0.82480248338E+01  0.22130635408E+03  0.23932385444E+03  0.80395247815E+02 0.  0.
          5    1    3    3  501    0  0.18976367494E+02 -0.24922783893E+02 -0.32646741108E+02  0.45487881741E+02  0.47000000000E+01 0. -1.
        -13    1    4    4    0    0  0.17170742569E+03  0.77369519400E+02  0.40287151587E+02  0.19259422928E+03  0.00000000000E+00 0.  1.
         14    1    4    4    0    0  0.14621476510E+01  0.32490897933E+02  0.10224097396E+02  0.34092939031E+02  0.00000000000E+00 0. -1.
         -5    1    5    5    0  502 -0.15009859655E+03 -0.76689608605E+02  0.19959377399E+03  0.26128652734E+03  0.47000000000E+01 0.  1.
         13    1    6    6    0    0  0.74089653334E+01  0.26894653431E+02  0.98101642559E+02  0.10199091834E+03  0.00000000000E+00 0. -1.
        -14    1    6    6    0    0 -0.49456309619E+02 -0.35142678265E+02  0.12320471152E+03  0.13733293610E+03  0.00000000000E+00 0.  1.
</event>
<event>
12    1  0.1628146E-001  0.2381708E+03  0.7818608E-02  0.1121162E+00
         21   -1    0    0  503  502  0.00000000000E+00  0.00000000000E+00  0.18281706388E+03  0.18281706388E+03  0.00000000000E+00 0.  1.
         21   -1    0    0  501  503 -0.00000000000E+00 -0.00000000000E+00 -0.88135626257E+03  0.88135626257E+03  0.00000000000E+00 0.  1.
          6    2    1    2  501    0  0.15506996841E+03  0.53063606538E+02 -0.77777091720E+03  0.81316935425E+03  0.17162271883E+03 0.  0.
         24    2    3    3    0    0  0.81501507174E+02  0.57569241652E+02 -0.67277203876E+03  0.68479695181E+03  0.79799347204E+02 0.  0.
         -6    2    1    2    0  502 -0.15506996841E+03 -0.53063606538E+02  0.79231718506E+02  0.25100397220E+03  0.17280881750E+03 0.  0.
        -24    2    5    5    0    0 -0.74724889565E+02 -0.76332676572E+02  0.98031562518E+02  0.16514184173E+03  0.79064239753E+02 0.  0.
          5    1    3    3  501    0  0.73568461233E+02 -0.45056351140E+01 -0.10499887844E+03  0.12837240244E+03  0.47000000000E+01 0. -1.
        -11    1    4    4    0    0  0.61109029186E+02  0.84514153699E+01 -0.20696028746E+03  0.21595902495E+03  0.00000000000E+00 0.  1.
         12    1    4    4    0    0  0.20392477987E+02  0.49117826282E+02 -0.46581175130E+03  0.46883792686E+03  0.00000000000E+00 0. -1.
         -5    1    5    5    0  502 -0.80345078842E+02  0.23269070034E+02 -0.18799844012E+02  0.85862130472E+02  0.47000000000E+01 0.  1.
         11    1    6    6    0    0 -0.18914414253E+02 -0.30495147814E+02 -0.80815559345E+01  0.36783429055E+02  0.00000000000E+00 0. -1.
        -12    1    6    6    0    0 -0.55810475312E+02 -0.45837528758E+02  0.10611311845E+03  0.12835841268E+03  0.00000000000E+00 0.  1.
</event>
<event>
12    1  0.1628146E-001  0.2104864E+03  0.7818608E-02  0.1141455E+00
         21   -1    0    0  501  502  0.00000000000E+00  0.00000000000E+00  0.47160816475E+03  0.47160816475E+03  0.00000000000E+00 0.  1.
         21   -1    0    0  502  503 -0.00000000000E+00 -0.00000000000E+00 -0.11118518430E+03  0.11118518430E+03  0.00000000000E+00 0. -1.
         -6    2    1    2    0  503 -0.11958786307E+03  0.18858886219E+02  0.63927768918E+02  0.21998022315E+03  0.17218485519E+03 0.  0.
        -24    2    3    3    0    0 -0.59766854342E+02  0.33134590958E+00  0.10550597399E+03  0.14466316020E+03  0.78890637614E+02 0.  0.
          6    2    1    2  501    0  0.11958786307E+03 -0.18858886219E+02  0.29649521154E+03  0.36281312590E+03  0.17049058413E+03 0.  0.
         24    2    5    5    0    0  0.13825286815E+03  0.22467521178E+01  0.29333207261E+03  0.33407420051E+03  0.80268070760E+02 0.  0.
          5    1    5    5  501    0 -0.18665005080E+02 -0.21105638337E+02  0.31631389294E+01  0.28738925382E+02  0.47000000000E+01 0. -1.
        -11    1    6    6    0    0  0.81796481087E+02 -0.38353147895E+02  0.16586157474E+03  0.18886950587E+03  0.00000000000E+00 0.  1.
         12    1    6    6    0    0  0.56456387061E+02  0.40599900013E+02  0.12747049786E+03  0.14520469464E+03  0.00000000000E+00 0. -1.
         -5    1    3    3    0  503 -0.59821008726E+02  0.18527540309E+02 -0.41578205073E+02  0.75317062954E+02  0.47000000000E+01 0.  1.
         13    1    4    4    0    0 -0.41508920968E+02 -0.19333656230E+02  0.11934916153E+02  0.47320429063E+02  0.00000000000E+00 0. -1.
        -14    1    4    4    0    0 -0.18257933374E+02  0.19665002139E+02  0.93571057838E+02  0.97342731137E+02  0.00000000000E+00 0.  1.
</event>
<event>
12    1  0.1628146E-001  0.2192936E+03  0.7818608E-02  0.1134415E+00
         21   -1    0    0  501  502  0.00000000000E+00  0.00000000000E+00  0.35769368431E+03  0.35769368431E+03  0.00000000000E+00 0. -1.
         21   -1    0    0  502  503 -0.00000000000E+00 -0.00000000000E+00 -0.14440812928E+03  0.14440812928E+03  0.00000000000E+00 0.  1.
         -6    2    1    2    0  503 -0.87037355985E+02 -0.10449820676E+03  0.17264071174E+03  0.27909587417E+03  0.17202998306E+03 0.  0.
        -24    2    3    3    0    0 -0.23817508246E+02 -0.11056150929E+02  0.13677898079E+03  0.16062089498E+03  0.80006688126E+02 0.  0.
          6    2    1    2  501    0  0.87037355985E+02  0.10449820676E+03  0.40644843291E+02  0.22300593942E+03  0.17200078249E+03 0.  0.
         24    2    5    5    0    0  0.66295520182E+01  0.81860595548E+01 -0.25192860216E+02  0.81238038108E+02  0.76511280860E+02 0.  0.
          5    1    5    5  501    0  0.80407803967E+02  0.96312147208E+02  0.65837703507E+02  0.14176790131E+03  0.47000000000E+01 0. -1.
        -13    1    6    6    0    0  0.27775229897E+02  0.22777475803E+02 -0.38204884933E+02  0.52439393899E+02  0.00000000000E+00 0.  1.
         14    1    6    6    0    0 -0.21145677879E+02 -0.14591416248E+02  0.13012024717E+02  0.28798644209E+02  0.00000000000E+00 0. -1.
         -5    1    3    3    0  503 -0.63219847738E+02 -0.93442055834E+02  0.35861730945E+02  0.11847497919E+03  0.47000000000E+01 0.  1.
         13    1    4    4    0    0  0.99149433456E+01  0.26438519681E+02  0.23924785252E+02  0.37009414664E+02  0.00000000000E+00 0. -1.
        -14    1    4    4    0    0 -0.33732451592E+02 -0.37494670610E+02  0.11285419554E+03  0.12361148032E+03  0.00000000000E+00 0.  1.
</event>
<event>
12    1  0.1628146E-001  0.2313151E+03  0.7818608E-02  0.1125847E+00
         21   -1    0    0  501  502  0.00000000000E+00  0.00000000000E+00  0.25166543271E+03  0.25166543271E+03  0.00000000000E+00 0.  1.
         21   -1    0    0  502  503 -0.00000000000E+00 -0.00000000000E+00 -0.21349060925E+03  0.21349060925E+03  0.00000000000E+00 0. -1.
         -6    2    1    2    0  503  0.10970874909E+03  0.10813424618E+03 -0.81544734491E+00  0.23057787087E+03  0.17157058244E+03 0.  0.
        -24    2    3    3    0    0  0.72886536545E+02 -0.83070045587E+01  0.90023676013E+01  0.10796906328E+03  0.78707194516E+02 0.  0.
          6    2    1    2  501    0 -0.10970874909E+03 -0.10813424618E+03  0.38990270805E+02  0.23457817109E+03  0.17256202453E+03 0.  0.
         24    2    5    5    0    0 -0.72611258343E+02 -0.49462274572E+02  0.89014787423E+02  0.14888589411E+03  0.80774164431E+02 0.  0.
          5    1    5    5  501    0 -0.37097490749E+02 -0.58671971604E+02 -0.50024516618E+02  0.85692276984E+02  0.47000000000E+01 0. -1.
        -11    1    6    6    0    0 -0.62616058436E+02 -0.48852857023E-02  0.25111541268E+02  0.67463770298E+02  0.00000000000E+00 0.  1.
         12    1    6    6    0    0 -0.99951999072E+01 -0.49457389286E+02  0.63903246155E+02  0.81422123808E+02  0.00000000000E+00 0. -1.
         -5    1    3    3    0  503  0.36822212547E+02  0.11644125073E+03 -0.98178149462E+01  0.12260880759E+03  0.47000000000E+01 0.  1.
         13    1    4    4    0    0  0.16291617690E+02 -0.25366524954E+02 -0.25535131159E+02  0.39508484133E+02  0.00000000000E+00 0. -1.
        -14    1    4    4    0    0  0.56594918855E+02  0.17059520395E+02  0.34537498760E+02  0.68460579146E+02  0.00000000000E+00 0.  1.
</event>
<event>
12    1  0.1628146E-001  0.1919841E+03  0.7818608E-02  0.1157049E+00
         21   -1    0    0  501  502  0.00000000000E+00  0.00000000000E+00  0.23255779006E+02  0.23255779006E+02  0.00000000000E+00 0. -1.
         21   -1    0    0  502  503 -0.00000000000E+00 -0.00000000000E+00 -0.18153325607E+04  0.18153325607E+04  0.00000000000E+00 0. -1.
         -6    2    1    2    0  503  0.84968378723E+02 -0.18894657294E+01 -0.12296894359E+04  0.12443346595E+04  0.17032158011E+03 0.  0.
        -24    2    3    3    0    0  0.60428218612E+02 -0.54333328100E+02 -0.10505474529E+04  0.10560090950E+04  0.70011269779E+02 0.  0.
          6    2    1    2  501    0 -0.84968378723E+02  0.18894657294E+01 -0.56238734578E+03  0.59425368017E+03  0.17214736200E+03 0.  0.
         24    2    5    5    0    0 -0.91277713845E+02 -0.85485139084E+01 -0.21655275293E+03  0.24817216558E+03  0.79307192827E+02 0.  0.
          5    1    5    5  501    0  0.63093351213E+01  0.10437979638E+02 -0.34583459285E+03  0.34608151459E+03  0.47000000000E+01 0. -1.
        -11    1    6    6    0    0 -0.60528699849E+02  0.32640760780E+02 -0.10752311730E+03  0.12763370841E+03  0.00000000000E+00 0.  1.
         12    1    6    6    0    0 -0.30749013996E+02 -0.41189274688E+02 -0.10902963563E+03  0.12053845717E+03  0.00000000000E+00 0. -1.
         -5    1    3    3    0  503  0.24540160111E+02  0.52443862370E+02 -0.17914198306E+03  0.18832556452E+03  0.47000000000E+01 0.  1.
         11    1    4    4    0    0  0.39153722713E+02  0.81953659547E+01 -0.47592907325E+03  0.47760722439E+03  0.00000000000E+00 0. -1.
        -12    1    4    4    0    0  0.21274495899E+02 -0.62528694054E+02 -0.57461837960E+03  0.57840187062E+03  0.00000000000E+00 0.  1.
</event>
<event>
12    1  0.1628146E-001  0.1941427E+03  0.7818608E-02  0.1155018E+00
         21   -1    0    0  501  502  0.00000000000E+00  0.00000000000E+00  0.41556345280E+02  0.41556345280E+02  0.00000000000E+00 0. -1.
         21   -1    0    0  502  503 -0.00000000000E+00 -0.00000000000E+00 -0.93929873371E+03  0.93929873371E+03  0.00000000000E+00 0.  1.
         -6    2    1    2    0  503  0.24815257545E+02  0.83952295211E+02 -0.35220934862E+03  0.40217261879E+03  0.17328475169E+03 0.  0.
        -24    2    3    3    0    0  0.46262650914E+02  0.51677438669E+02 -0.95348190237E+02  0.14236230003E+03  0.79780677805E+02 0.  0.
          6    2    1    2  501    0 -0.24815257545E+02 -0.83952295211E+02 -0.54553303981E+03  0.57868246020E+03  0.17205611685E+03 0.  0.
         24    2    5    5    0    0  0.29953362051E+00 -0.13201085171E+02 -0.44244376822E+03  0.45106594726E+03  0.86773511952E+02 0.  0.
          5    1    5    5  501    0 -0.25114791166E+02 -0.70751210040E+02 -0.10308927159E+03  0.12761651294E+03  0.47000000000E+01 0. -1.
        -11    1    6    6    0    0  0.25962559225E+02 -0.28568717439E+02 -0.37859093333E+03  0.38055396582E+03  0.00000000000E+00 0.  1.
         12    1    6    6    0    0 -0.25663025604E+02  0.15367632268E+02 -0.63852834885E+02  0.70511981447E+02  0.00000000000E+00 0. -1.
         -5    1    3    3    0  503 -0.21447393369E+02  0.32274856541E+02 -0.25686115838E+03  0.25981031876E+03  0.47000000000E+01 0.  1.
         13    1    4    4    0    0  0.65444894640E+02  0.43189105778E+02 -0.92389597121E+02  0.12117826021E+03  0.00000000000E+00 0. -1.
        -14    1    4    4    0    0 -0.19182243726E+02  0.84883328910E+01 -0.29585931156E+01  0.21184039814E+02  0.00000000000E+00 0.  1.
</event>
<event>
12    1  0.1628146E-001  0.2509770E+03  0.7818608E-02  0.1112729E+00
         21   -1    0    0  501  502  0.00000000000E+00  0.00000000000E+00  0.17030339792E+04  0.17030339792E+04  0.00000000000E+00 0. -1.
         21   -1    0    0  502  503 -0.00000000000E+00 -0.00000000000E+00 -0.37821138866E+02  0.37821138866E+02  0.00000000000E+00 0.  1.
         -6    2    1    2    0  503 -0.33516836381E+01  0.18243530978E+03  0.69998777928E+03  0.74353426937E+03  0.17194895332E+03 0.  0.
        -24    2    3    3    0    0  0.59581152787E+01  0.42068506297E+02  0.42603844359E+03  0.43554102204E+03  0.79887221155E+02 0.  0.
          6    2    1    2  501    0  0.33516836381E+01 -0.18243530978E+03  0.96522506108E+03  0.99732084872E+03  0.17232405729E+03 0.  0.
         24    2    5    5    0    0  0.35670274101E+01 -0.20252757494E+03  0.74744827346E+03  0.77856855795E+03  0.80373724784E+02 0.  0.
          5    1    5    5  501    0 -0.21534377197E+00  0.20092265156E+02  0.21777678762E+03  0.21875229077E+03  0.47000000000E+01 0. -1.
        -13    1    6    6    0    0 -0.13422689494E+01 -0.66497134177E+02  0.12697492766E+03  0.14333981580E+03  0.00000000000E+00 0.  1.
         14    1    6    6    0    0  0.49092963595E+01 -0.13603044076E+03  0.62047334580E+03  0.63522874215E+03  0.00000000000E+00 0. -1.
         -5    1    3    3    0  503 -0.93097989168E+01  0.14036680348E+03  0.27394933569E+03  0.30799324733E+03  0.47000000000E+01 0.  1.
         13    1    4    4    0    0  0.75699196707E+01  0.62654072006E+02  0.23280201661E+03  0.24120450941E+03  0.00000000000E+00 0. -1.
        -14    1    4    4    0    0 -0.16118043920E+01 -0.20585565708E+02  0.19323642698E+03  0.19433651263E+03  0.00000000000E+00 0.  1.
</event>
<event>
12    1  0.1628146E-001  0.1814601E+03  0.7818608E-02  0.1166604E+00
         21   -1    0    0  503  502  0.00000000000E+00  0.00000000000E+00  0.33548364296E+03  0.33548364296E+03  0.00000000000E+00 0.  1.
         21   -1    0    0  501  503 -0.00000000000E+00 -0.00000000000E+00 -0.11158584244E+03  0.11158584244E+03  0.00000000000E+00 0.  1.
          6    2    1    2  501    0  0.71772947261E+01  0.52122583586E+02  0.33286803797E+02  0.18448792104E+03  0.17366491996E+03 0.  0.
         24    2    3    3    0    0 -0.19226346389E+02 -0.34522886038E+02  0.48676053975E+01  0.89438825789E+02  0.80088250826E+02 0.  0.
         -6    2    1    2    0  502 -0.71772947261E+01 -0.52122583586E+02  0.19061099672E+03  0.26258156436E+03  0.17276645679E+03 0.  0.
        -24    2    5    5    0    0  0.37726346768E+01 -0.50225795015E+02  0.21554791480E+03  0.23487888139E+03  0.78551397763E+02 0.  0.
          5    1    3    3  501    0  0.26403641115E+02  0.86645469624E+02  0.28419198400E+02  0.95049095252E+02  0.47000000000E+01 0. -1.
        -13    1    4    4    0    0  0.11190598905E+02 -0.58771664176E+01 -0.31565941446E+02  0.34002635902E+02  0.00000000000E+00 0.  1.
         14    1    4    4    0    0 -0.30416945294E+02 -0.28645719621E+02  0.36433546843E+02  0.55436189887E+02  0.00000000000E+00 0. -1.
         -5    1    5    5    0  502 -0.10949929403E+02 -0.18967885709E+01 -0.24936918074E+02  0.27702682972E+02  0.47000000000E+01 0.  1.
         13    1    6    6    0    0 -0.16054031546E+02 -0.17440753240E+02  0.98943634679E+01  0.25686771515E+02  0.00000000000E+00 0. -1.
        -14    1    6    6    0    0  0.19826666223E+02 -0.32785041775E+02  0.20565355133E+03  0.20919210987E+03  0.00000000000E+00 0.  1.
</event>
<event>
12    1  0.1628146E-001  0.3278244E+03  0.7818608E-02  0.1072192E+00
         21   -1    0    0  503  502  0.00000000000E+00  0.00000000000E+00  0.68100897777E+03  0.68100897777E+03  0.00000000000E+00 0.  1.
         21   -1    0    0  501  503 -0.00000000000E+00 -0.00000000000E+00 -0.37405421184E+03  0.37405421184E+03  0.00000000000E+00 0. -1.
          6    2    1    2  501    0 -0.17568732599E+03  0.21715258464E+03 -0.24805535776E+03  0.41046633946E+03  0.17008784139E+03 0.  0.
         24    2    3    3    0    0 -0.15419228631E+03  0.10670312336E+03 -0.10970064407E+03  0.23207004738E+03  0.81617754736E+02 0.  0.
         -6    2    1    2    0  502  0.17568732599E+03 -0.21715258464E+03  0.55501012368E+03  0.64459685015E+03  0.17160297288E+03 0.  0.
        -24    2    5    5    0    0  0.27642804463E+02 -0.89587785551E+02  0.15385140045E+03  0.19834538567E+03  0.82949036394E+02 0.  0.
          5    1    3    3  501    0 -0.21495039677E+02  0.11044946127E+03 -0.13835471369E+03  0.17839629208E+03  0.47000000000E+01 0. -1.
        -13    1    4    4    0    0 -0.67896680413E+02  0.95480609837E+02 -0.56477976499E+02  0.13006255378E+03  0.00000000000E+00 0.  1.
         14    1    4    4    0    0 -0.86295605901E+02  0.11222513524E+02 -0.53222667567E+02  0.10200749360E+03  0.00000000000E+00 0. -1.
         -5    1    5    5    0  502  0.14804452153E+03 -0.12756479908E+03  0.40115872323E+03  0.44625146447E+03  0.47000000000E+01 0.  1.
         11    1    6    6    0    0 -0.77546814025E+01  0.12355013385E+02  0.34412846507E+02  0.37376803556E+02  0.00000000000E+00 0. -1.
        -12    1    6    6    0    0  0.35397485866E+02 -0.10194279894E+03  0.11943855395E+03  0.16096858212E+03  0.00000000000E+00 0.  1.
</event>
<event>
12    1  0.1628146E-001  0.2403185E+03  0.7818608E-02  0.1119665E+00
         21   -1    0    0  503  502  0.00000000000E+00  0.00000000000E+00  0.12464172309E+04  0.12464172309E+04  0.00000000000E+00 0. -1.
         21   -1    0    0  501  503 -0.00000000000E+00 -0.00000000000E+00 -0.14647346207E+03  0.14647346207E+03  0.00000000000E+00 0. -1.
          6    2    1    2  501    0  0.16706363249E+03 -0.12752568463E+02 -0.26336866169E+02  0.24125660430E+03  0.17157573632E+03 0.  0.
         24    2    3    3    0    0  0.10916672288E+02 -0.13653487905E+02  0.49538608937E+01  0.81933396836E+02  0.79893362137E+02 0.  0.
         -6    2    1    2    0  502 -0.16706363249E+03  0.12752568463E+02  0.11262806350E+04  0.11516340887E+04  0.17227919231E+03 0.  0.
        -24    2    5    5    0    0 -0.53358156379E+02 -0.19384277747E+02  0.26982387986E+03  0.28705212285E+03  0.79819496476E+02 0.  0.
          5    1    3    3  501    0  0.15614696020E+03  0.90091944153E+00 -0.31290727063E+02  0.15932320747E+03  0.47000000000E+01 0. -1.
        -11    1    4    4    0    0 -0.29117771538E+02  0.12282289578E+02 -0.78118266768E+01  0.32553400631E+02  0.00000000000E+00 0.  1.
         12    1    4    4    0    0  0.40034443826E+02 -0.25935777483E+02  0.12765687571E+02  0.49379996205E+02  0.00000000000E+00 0. -1.
         -5    1    5    5    0  502 -0.11370547611E+03  0.32136846211E+02  0.85645675519E+03  0.86458196586E+03  0.47000000000E+01 0.  1.
         11    1    6    6    0    0 -0.54027430551E+02 -0.25783468752E+02  0.27327203040E+03  0.27975230672E+03  0.00000000000E+00 0. -1.
        -12    1    6    6    0    0  0.66927417267E+00  0.63991910041E+01 -0.34481505466E+01  0.72998161359E+01  0.00000000000E+00 0.  1.
</event>
<event>
12    1  0.1628146E-001  0.1840165E+03  0.7818608E-02  0.1164019E+00
         21   -1    0    0  501  502  0.00000000000E+00  0.00000000000E+00  0.80031515217E+02  0.80031515217E+02  0.00000000000E+00 0. -1.
         21   -1    0    0  502  503 -0.00000000000E+00 -0.00000000000E+00 -0.42447666017E+03  0.42447666017E+03  0.00000000000E+00 0.  1.
         -6    2    1    2    0  503  0.45038713687E+02 -0.51401583609E+02 -0.15576753278E+03  0.24109250400E+03  0.17085509266E+03 0.  0.
        -24    2    3    3    0    0 -0.54224387993E+01  0.25373953833E+02 -0.36612337611E+02  0.90557253654E+02  0.78656929436E+02 0.  0.
          6    2    1    2  501    0 -0.45038713687E+02  0.51401583609E+02 -0.18867761218E+03  0.26341567140E+03  0.17063987246E+03 0.  0.
         24    2    5    5    0    0 -0.41326658315E+02  0.99253892692E+02 -0.12872970498E+03  0.18647761568E+03  0.81506664172E+02 0.  0.
          5    1    5    5  501    0 -0.37120553724E+01 -0.47852309083E+02 -0.59947907195E+02  0.76938055712E+02  0.47000000000E+01 0. -1.
        -11    1    6    6    0    0 -0.57540180083E+02  0.43075777328E+02 -0.46606076575E+02  0.85665169643E+02  0.00000000000E+00 0.  1.
         12    1    6    6    0    0  0.16213521768E+02  0.56178115364E+02 -0.82123628407E+02  0.10081244604E+03  0.00000000000E+00 0. -1.
         -5    1    3    3    0  503  0.50461152487E+02 -0.76775537441E+02 -0.11915519517E+03  0.15053525034E+03  0.47000000000E+01 0.  1.
         13    1    4    4    0    0 -0.75577667408E+01 -0.26812138404E+02 -0.20603103856E+01  0.27933053589E+02  0.00000000000E+00 0. -1.
        -14    1    4    4    0    0  0.21353279415E+01  0.52186092237E+02 -0.34552027226E+02  0.62624200065E+02  0.00000000000E+00 0.  1.
</event>
<event>
12    1  0.1628146E-001  0.2608593E+03  0.7818608E-02  0.1106927E+00
         21   -1    0    0  501  502  0.00000000000E+00  0.00000000000E+00  0.85543972394E+02  0.85543972394E+02  0.00000000000E+00 0.  1.
         21   -1    0    0  502  503 -0.00000000000E+00 -0.00000000000E+00 -0.88060248514E+03  0.88060248514E+03  0.00000000000E+00 0. -1.
         -6    2    1    2    0  503  0.12280738631E+03  0.15284211656E+03 -0.55161767492E+03  0.60933975641E+03  0.16902814185E+03 0.  0.
        -24    2    3    3    0    0  0.11194595537E+03  0.41789835273E+02 -0.36111182373E+03  0.38851143124E+03  0.79127085826E+02 0.  0.
          6    2    1    2  501    0 -0.12280738631E+03 -0.15284211656E+03 -0.24344083783E+03  0.35680670113E+03  0.17206165673E+03 0.  0.
         24    2    5    5    0    0 -0.32456906945E+02 -0.12990204840E+02 -0.45486941741E+02  0.98099141688E+02  0.79575018069E+02 0.  0.
          5    1    5    5  501    0 -0.90350479362E+02 -0.13985191172E+03 -0.19795389609E+03  0.25870755944E+03  0.47000000000E+01 0. -1.
        -13    1    6    6    0    0 -0.66929641900E+01 -0.37453381336E+02  0.28008706142E+01  0.38149658181E+02  0.00000000000E+00 0.  1.
         14    1    6    6    0    0 -0.25763942755E+02  0.24463176496E+02 -0.48287812356E+02  0.59949483506E+02  0.00000000000E+00 0. -1.
         -5    1    3    3    0  503  0.10861430939E+02  0.11105228129E+03 -0.19050585119E+03  0.22082832517E+03  0.47000000000E+01 0.  1.
         13    1    4    4    0    0  0.54364773132E+02  0.57528312696E+02 -0.15661253260E+03  0.17547797778E+03  0.00000000000E+00 0. -1.
        -14    1    4    4    0    0  0.57581182236E+02 -0.15738477423E+02 -0.20449929113E+03  0.21303345346E+03  0.00000000000E+00 0.  1.
</event>
<event>
12    1  0.1628146E-001  0.3089771E+03  0.7818608E-02  0.1080885E+00
         21   -1    0    0  503  502  0.00000000000E+00  0.00000000000E+00  0.10919110708E+04  0.10919110708E+04  0.00000000000E+00 0. -1.
         21   -1    0    0  501  503 -0.00000000000E+00 -0.00000000000E+00 -0.16516806774E+03  0.16516806774E+03  0.00000000000E+00 0. -1.
          6    2    1    2  501    0 -0.24603650268E+03  0.78319781770E+02  0.32012823286E+02  0.31063110965E+03  0.16970243535E+03 0.  0.
         24    2    3    3    0    0 -0.16234189167E+03  0.11409595920E+03  0.30739545878E+01  0.21500542845E+03  0.82735164057E+02 0.  0.
         -6    2    1    2    0  502  0.24603650268E+03 -0.78319781770E+02  0.89473017976E+03  0.94644802887E+03  0.16897877945E+03 0.  0.
        -24    2    5    5    0    0  0.10630531804E+03 -0.50748034891E+02  0.62726859513E+03  0.64339226759E+03  0.81311351465E+02 0.  0.
          5    1    3    3  501    0 -0.83694611007E+02 -0.35776177427E+02  0.28938868698E+02  0.95625681197E+02  0.47000000000E+01 0. -1.
        -11    1    4    4    0    0  0.91728288126E+01  0.96520132727E+01 -0.44842783555E+01  0.14050298965E+02  0.00000000000E+00 0.  1.
         12    1    4    4    0    0 -0.17151472048E+03  0.10444394592E+03  0.75582329433E+01  0.20095512949E+03  0.00000000000E+00 0. -1.
         -5    1    5    5    0  502  0.13973118464E+03 -0.27571746880E+02  0.26746158464E+03  0.30305576128E+03  0.47000000000E+01 0.  1.
         13    1    6    6    0    0  0.50176673331E+02  0.15732119125E+02  0.30913680805E+03  0.31357736559E+03  0.00000000000E+00 0. -1.
        -14    1    6    6    0    0  0.56128644706E+02 -0.66480154015E+02  0.31813178708E+03  0.32981490201E+03  0.00000000000E+00 0.  1.
</event>
<event>
12    1  0.1628146E-001  0.1925050E+03  0.7818608E-02  0.1157004E+00
         21   -1    0    0  501  502  0.00000000000E+00  0.00000000000E+00  0.93361160782E+02  0.93361160782E+02  0.00000000000E+00 0.  1.
         21   -1    0    0  502  503 -0.00000000000E+00 -0.00000000000E+00 -0.53843896662E+03  0.53843896662E+03  0.00000000000E+00 0. -1.
         -6    2    1    2    0  503 -0.76643999771E+02 -0.26829568636E+02 -0.38705926481E+03  0.43074210156E+03  0.17067441262E+03 0.  0.
        -24    2    3    3    0    0  0.23762835124E+02 -0.19591262836E+02 -0.21048014497E+03  0.22742903969E+03  0.80458602721E+02 0.  0.
          6    2    1    2  501    0  0.76643999771E+02  0.26829568636E+02 -0.58018541027E+02  0.20105802585E+03  0.17453953764E+03 0.  0.
         24    2    5    5    0    0  0.13075616713E+02 -0.40988306773E+02 -0.59911570927E+02  0.10796733291E+03  0.78845009986E+02 0.  0.
          5    1    5    5  501    0  0.63568383058E+02  0.67817875409E+02  0.18930299006E+01  0.93090692938E+02  0.47000000000E+01 0. -1.
        -11    1    6    6    0    0  0.37868503143E+02  0.21270086423E+01 -0.14457886658E+02  0.40590370566E+02  0.00000000000E+00 0.  1.
         12    1    6    6    0    0 -0.24792886429E+02 -0.43115315415E+02 -0.45453684269E+02  0.67376962342E+02  0.00000000000E+00 0. -1.
         -5    1    3    3    0  503 -0.10040683489E+03 -0.72383058000E+01 -0.17657911984E+03  0.20331306187E+03  0.47000000000E+01 0.  1.
         11    1    4    4    0    0 -0.19189908304E+02 -0.14225910415E+02 -0.15613390270E+03  0.15795070332E+03  0.00000000000E+00 0. -1.
        -12    1    4    4    0    0  0.42952743428E+02 -0.53653524209E+01 -0.54346242275E+02  0.69478336364E+02  0.00000000000E+00 0.  1.
</event>
<event>
12    1  0.1628146E-001  0.2055190E+03  0.7818608E-02  0.1145334E+00
         21   -1    0    0  501  502  0.00000000000E+00  0.00000000000E+00  0.14084415412E+04  0.14084415412E+04  0.00000000000E+00 0. -1.
         21   -1    0    0  502  503 -0.00000000000E+00 -0.00000000000E+00 -0.38029568931E+02  0.38029568931E+02  0.00000000000E+00 0. -1.
         -6    2    1    2    0  503  0.69383254920E+02 -0.88584520834E+02  0.35125104192E+03  0.40695865229E+03  0.17197905928E+03 0.  0.
        -24    2    3    3    0    0  0.62077789216E+02 -0.12484658146E+03  0.32030759605E+03  0.35850358329E+03  0.80545281232E+02 0.  0.
          6    2    1    2  501    0 -0.69383254920E+02  0.88584520834E+02  0.10191609303E+04  0.10395124578E+04  0.17098507144E+03 0.  0.
         24    2    5    5    0    0 -0.50144719554E+02  0.12728891404E+03  0.84305723880E+03  0.85812130184E+03  0.83124606749E+02 0.  0.
          5    1    5    5  501    0 -0.19238535365E+02 -0.38704393203E+02  0.17610369151E+03  0.18139115596E+03  0.47000000000E+01 0. -1.
        -11    1    6    6    0    0 -0.26907042973E+02  0.78868760776E+02  0.27036161875E+03  0.28291284044E+03  0.00000000000E+00 0.  1.
         12    1    6    6    0    0 -0.23237676581E+02  0.48420153261E+02  0.57269562005E+03  0.57520846141E+03  0.00000000000E+00 0. -1.
         -5    1    3    3    0  503  0.73054657031E+01  0.36262060621E+02  0.30943445868E+02  0.48455069000E+02  0.47000000000E+01 0.  1.
         11    1    4    4    0    0  0.16238946527E+02 -0.72610573851E+02  0.84121085402E+02  0.11230474535E+03  0.00000000000E+00 0. -1.
        -12    1    4    4    0    0  0.45838842690E+02 -0.52236007605E+02  0.23618651065E+03  0.24619883794E+03  0.00000000000E+00 0.  1.
</event>
<event>
12    1  0.1628146E-001  0.2878115E+03  0.7818608E-02  0.1091581E+00
         21   -1    0    0  501  502  0.00000000000E+00  0.00000000000E+00  0.78809926160E+03  0.78809926160E+03  0.00000000000E+00 0. -1.
         21   -1    0    0  502  503 -0.00000000000E+00 -0.00000000000E+00 -0.11749917167E+03  0.11749917167E+03  0.00000000000E+00 0. -1.
         -6    2    1    2    0  503 -0.22998233991E+03  0.75408650625E+01  0.18655645520E+03  0.34245219123E+03  0.17181807525E+03 0.  0.
        -24    2    3    3    0    0 -0.19484350846E+03 -0.37688834901E+02  0.18824949226E+03  0.28495941247E+03  0.79872112504E+02 0.  0.
          6    2    1    2  501    0  0.22998233991E+03 -0.75408650625E+01  0.48404363473E+03  0.56314624204E+03  0.17287772640E+03 0.  0.
         24    2    5    5    0    0  0.86039820099E+02 -0.58452105340E+02  0.18030682357E+03  0.22316161908E+03  0.80442888708E+02 0.  0.
          5    1    5    5  501    0  0.14394251981E+03  0.50911240278E+02  0.30373681115E+03  0.33998462296E+03  0.47000000000E+01 0. -1.
        -13    1    6    6    0    0  0.58198204338E+02 -0.24162234353E+02  0.36715942156E+02  0.72930823151E+02  0.00000000000E+00 0.  1.
         14    1    6    6    0    0  0.27841615761E+02 -0.34289870987E+02  0.14359088142E+03  0.15023079593E+03  0.00000000000E+00 0. -1.
         -5    1    3    3    0  503 -0.35138831454E+02  0.45229699963E+02 -0.16930370608E+01  0.57492778757E+02  0.47000000000E+01 0.  1.
         13    1    4    4    0    0 -0.95274230684E+02 -0.45127932091E+02  0.56370372508E+02  0.11954634325E+03  0.00000000000E+00 0. -1.
        -14    1    4    4    0    0 -0.99569277771E+02  0.74390971906E+01  0.13187911975E+03  0.16541306922E+03  0.00000000000E+00 0.  1.
</event>
<event>
12    1  0.1628146E-001  0.1718046E+03  0.7818608E-02  0.1177061E+00
         21   -1    0    0  503  502  0.00000000000E+00  0.00000000000E+00  0.22975945427E+03  0.22975945427E+03  0.00000000000E+00 0. -1.
         21   -1    0    0  501  503 -0.00000000000E+00 -0.00000000000E+00 -0.25091520601E+03  0.25091520601E+03  0.00000000000E+00 0. -1.
          6    2    1    2  501    0 -0.23003495719E+02 -0.16353882560E+02 -0.18050241144E+03  0.24634973247E+03  0.16525876637E+03 0.  0.
         24    2    3    3    0    0  0.23402458097E+01 -0.68818799866E+02 -0.84822673844E+02  0.13422669751E+03  0.77977024572E+02 0.  0.
         -6    2    1    2    0  502  0.23003495719E+02  0.16353882560E+02  0.15934665969E+03  0.23432492781E+03  0.16947036186E+03 0.  0.
        -24    2    5    5    0    0  0.12409927160E+02 -0.55982965855E+02  0.84060472320E+02  0.12927758923E+03  0.79739785009E+02 0.  0.
          5    1    3    3  501    0 -0.25343741529E+02  0.52464917307E+02 -0.95679737594E+02  0.11212303496E+03  0.47000000000E+01 0. -1.
        -13    1    4    4    0    0 -0.17987792791E+02 -0.58470280604E+02 -0.18226231274E+02  0.63832044537E+02  0.00000000000E+00 0.  1.
         14    1    4    4    0    0  0.20328038601E+02 -0.10348519263E+02 -0.66596442569E+02  0.70394652973E+02  0.00000000000E+00 0. -1.
         -5    1    5    5    0  502  0.10593568559E+02  0.72336848414E+02  0.75286187372E+02  0.10504733858E+03  0.47000000000E+01 0.  1.
         11    1    6    6    0    0  0.52506967826E+01  0.20620800094E+02  0.18360472606E+02  0.28105055907E+02  0.00000000000E+00 0. -1.
        -12    1    6    6    0    0  0.71592303777E+01 -0.76603765949E+02  0.65699999714E+02  0.10117253333E+03  0.00000000000E+00 0.  1.
</event>
<event>
12    1  0.1628146E-001  0.2281413E+03  0.7818608E-02  0.1128115E+00
         21   -1    0    0  503  502  0.00000000000E+00  0.00000000000E+00  0.43887822978E+03  0.43887822978E+03  0.00000000000E+00 0.  1.
         21   -1    0    0  501  503 -0.00000000000E+00 -0.00000000000E+00 -0.16413639637E+03  0.16413639637E+03  0.00000000000E+00 0.  1.
          6    2    1    2  501    0  0.13754921305E+03  0.58586654386E+02 -0.22455064284E+02  0.22834883236E+03  0.17113379925E+03 0.  0.
         24    2    3    3    0    0  0.12271536936E+03  0.86984218714E+02  0.24680525863E+02  0.17116213429E+03  0.77859050045E+02 0.  0.
         -6    2    1    2    0  502 -0.13754921305E+03 -0.58586654386E+02  0.29719689769E+03  0.37466579379E+03  0.17232608321E+03 0.  0.
        -24    2    5    5    0    0 -0.14908302318E+03 -0.37150387354E+02  0.30293910614E+03  0.34921770392E+03  0.81086396043E+02 0.  0.
          5    1    3    3  501    0  0.14833843690E+02 -0.28397564327E+02 -0.47135590148E+02  0.57186698077E+02  0.47000000000E+01 0. -1.
        -11    1    4    4    0    0  0.59727662522E+02 -0.26290793028E+01  0.10754217582E+02  0.60745032094E+02  0.00000000000E+00 0.  1.
         12    1    4    4    0    0  0.62987706841E+02  0.89613298016E+02  0.13926308282E+02  0.11041710219E+03  0.00000000000E+00 0. -1.
         -5    1    5    5    0  502  0.11533810128E+02 -0.21436267032E+02 -0.57422084430E+01  0.25448089872E+02  0.47000000000E+01 0.  1.
         13    1    6    6    0    0 -0.56572477653E+02  0.98309659485E+01  0.51189533202E+02  0.76925037723E+02  0.00000000000E+00 0. -1.
        -14    1    6    6    0    0 -0.92510545528E+02 -0.46981353303E+02  0.25174957293E+03  0.27229266620E+03  0.00000000000E+00 0.  1.
</event>
<event>
12    1  0.1628146E-001  0.2235164E+03  0.7818608E-02  0.1131394E+00
         21   -1    0    0  503  502  0.00000000000E+00  0.00000000000E+00  0.58987731401E+03  0.58987731401E+03  0.00000000000E+00 0. -1.
         21   -1    0    0  501  503 -0.00000000000E+00 -0.00000000000E+00 -0.17243024615E+03  0.17243024615E+03  0.00000000000E+00 0. -1.
          6    2    1    2  501    0 -0.27078298944E+02  0.13975377101E+03 -0.63365427002E+02  0.23232472203E+03  0.17232309288E+03 0.  0.
         24    2    3    3    0    0  0.10524126336E+02  0.15409882784E+01 -0.21852537052E+02  0.83119743125E+02  0.79487272199E+02 0.  0.
         -6    2    1    2    0  502  0.27078298944E+02 -0.13975377101E+03  0.48081249486E+03  0.52998283813E+03  0.17157156732E+03 0.  0.
        -24    2    5    5    0    0 -0.46168038807E+02 -0.90723382876E+02  0.22053734740E+03  0.25514789250E+03  0.78112133762E+02 0.  0.
          5    1    3    3  501    0 -0.37602425280E+02  0.13821278273E+03 -0.41512889950E+02  0.14920497890E+03  0.47000000000E+01 0. -1.
        -11    1    4    4    0    0 -0.29858473584E+02 -0.18337435902E+02 -0.12056250352E+02  0.37055946524E+02  0.00000000000E+00 0.  1.
         12    1    4    4    0    0  0.40382599920E+02  0.19878424181E+02 -0.97962867006E+01  0.46063796602E+02  0.00000000000E+00 0. -1.
         -5    1    5    5    0  502  0.73246337751E+02 -0.49030388135E+02  0.26027514747E+03  0.27483494564E+03  0.47000000000E+01 0.  1.
         13    1    6    6    0    0  0.33666490067E+01 -0.74660398388E+02  0.14866539562E+03  0.16639383783E+03  0.00000000000E+00 0. -1.
        -14    1    6    6    0    0 -0.49534687813E+02 -0.16062984488E+02  0.71871951773E+02  0.88754054663E+02  0.00000000000E+00 0.  1.
</event>
<event>
12    1  0.1628146E-001  0.2001906E+03  0.7818608E-02  0.1149998E+00
         21   -1    0    0  503  502  0.00000000000E+00  0.00000000000E+00  0.65219421394E+02  0.65219421394E+02  0.00000000000E+00 0. -1.
         21   -1    0    0  501  503 -0.00000000000E+00 -0.00000000000E+00 -0.13694390198E+04  0.13694390198E+04  0.00000000000E+00 0.  1.
          6    2    1    2  501    0  0.98418862855E+02 -0.22810714843E+02 -0.11882925360E+04  0.12050375274E+04  0.17282849946E+03 0.  0.
         24    2    3    3    0    0  0.99965272920E+02 -0.62204985775E+02 -0.10873659306E+04  0.10965821466E+04  0.79153149794E+02 0.  0.
         -6    2    1    2    0  502 -0.98418862855E+02  0.22810714843E+02 -0.11592706243E+03  0.22962091375E+03  0.17052882146E+03 0.  0.
        -24    2    5    5    0    0 -0.10915630504E+03  0.64157326856E+02 -0.11179962637E+03  0.18644730239E+03  0.78944148557E+02 0.  0.
          5    1    3    3  501    0 -0.15464100651E+01  0.39394270932E+02 -0.10092660536E+03  0.10845538085E+03  0.47000000000E+01 0. -1.
        -11    1    4    4    0    0 -0.12905036276E+02 -0.82789803659E+01 -0.17688876566E+03  0.17755201180E+03  0.00000000000E+00 0.  1.
         12    1    4    4    0    0  0.11287030920E+03 -0.53926005409E+02 -0.91047716495E+03  0.91903013479E+03  0.00000000000E+00 0. -1.
         -5    1    5    5    0  502  0.10737442187E+02 -0.41346612013E+02 -0.41274360642E+01  0.43173611363E+02  0.47000000000E+01 0.  1.
         11    1    6    6    0    0 -0.72522034279E+02  0.17754605641E+02 -0.20066528117E+02  0.77313239669E+02  0.00000000000E+00 0. -1.
        -12    1    6    6    0    0 -0.36634270763E+02  0.46402721215E+02 -0.91733098252E+02  0.10913406272E+03  0.00000000000E+00 0.  1.
</event>
<event>
12    1  0.1628146E-001  0.1876132E+03  0.7818608E-02  0.1161084E+00
         21   -1    0    0  501  502  0.00000000000E+00  0.00000000000E+00  0.24340491473E+03  0.24340491473E+03  0.00000000000E+00 0. -1.
         21   -1    0    0  502  503 -0.00000000000E+00 -0.00000000000E+00 -0.17170419845E+03  0.17170419845E+03  0.00000000000E+00 0. -1.
         -6    2    1    2    0  503 -0.35506144406E+02  0.63786980246E+02 -0.49014835639E+02  0.19201502587E+03  0.17069812802E+03 0.  0.
        -24    2    3    3    0    0  0.81602345576E+01  0.70965010003E+02 -0.84324307648E+02  0.13520723084E+03  0.77895984097E+02 0.  0.
          6    2    1    2  501    0  0.35506144406E+02 -0.63786980246E+02  0.12071555192E+03  0.22309408731E+03  0.17282726109E+03 0.  0.
         24    2    5    5    0    0 -0.49523386340E+02 -0.50812252939E+02  0.53159020709E+02  0.11362107896E+03  0.71059251740E+02 0.  0.
          5    1    5    5  501    0  0.85029530747E+02 -0.12974727307E+02  0.67556531209E+02  0.10947300835E+03  0.47000000000E+01 0. -1.
        -13    1    6    6    0    0 -0.31106556176E+02  0.12413575737E+02  0.10264711151E+02  0.35029687335E+02  0.00000000000E+00 0.  1.
         14    1    6    6    0    0 -0.18416830164E+02 -0.63225828676E+02  0.42894309557E+02  0.78591391624E+02  0.00000000000E+00 0. -1.
         -5    1    3    3    0  503 -0.43666378964E+02 -0.71780297566E+01  0.35309472009E+02  0.56807795033E+02  0.47000000000E+01 0.  1.
         13    1    4    4    0    0 -0.11416805524E+02  0.24815337401E+02 -0.80411502437E+02  0.84924402517E+02  0.00000000000E+00 0. -1.
        -14    1    4    4    0    0  0.19577040082E+02  0.46149672601E+02 -0.39128052112E+01  0.50282828323E+02  0.00000000000E+00 0.  1.
</event>
<event>
12    1  0.1628146E-001  0.1862153E+03  0.7818608E-02  0.1162539E+00
         21   -1    0    0  501  502  0.00000000000E+00  0.00000000000E+00  0.53818142840E+03  0.53818142840E+03  0.00000000000E+00 0.  1.
         21   -1    0    0  502  503 -0.00000000000E+00 -0.00000000000E+00 -0.64130587081E+02  0.64130587081E+02  0.00000000000E+00 0.  1.
         -6    2    1    2    0  503  0.66605380078E+02 -0.21646193813E+02  0.20587417659E+03  0.27582332344E+03  0.16967467344E+03 0.  0.
        -24    2    3    3    0    0  0.29974450426E+02 -0.49387796529E+02  0.20770912009E+03  0.22959693978E+03  0.78956026125E+02 0.  0.
          6    2    1    2  501    0 -0.66605380078E+02  0.21646193813E+02  0.26817666473E+03  0.32648869204E+03  0.17254364133E+03 0.  0.
         24    2    5    5    0    0 -0.48636210185E+02 -0.51144031063E+02  0.19032837395E+03  0.21830480099E+03  0.80317515854E+02 0.  0.
          5    1    5    5  501    0 -0.17969169893E+02  0.72790224876E+02  0.77848290782E+02  0.10818389105E+03  0.47000000000E+01 0. -1.
        -13    1    6    6    0    0 -0.99008208746E+01 -0.29438435004E+02  0.10058258348E+02  0.32646841662E+02  0.00000000000E+00 0.  1.
         14    1    6    6    0    0 -0.38735389310E+02 -0.21705596059E+02  0.18027011560E+03  0.18565795933E+03  0.00000000000E+00 0. -1.
         -5    1    3    3    0  503  0.36630929653E+02  0.27741602717E+02 -0.18349435074E+01  0.46226383659E+02  0.47000000000E+01 0.  1.
         13    1    4    4    0    0  0.52732406844E+02 -0.36609557333E+02  0.10047052283E+03  0.11922790100E+03  0.00000000000E+00 0. -1.
        -14    1    4    4    0    0 -0.22757956419E+02 -0.12778239196E+02  0.10723859727E+03  0.11036903878E+03  0.00000000000E+00 0.  1.
</event>
<event>
12    1  0.1628146E-001  0.2098955E+03  0.7818608E-02  0.1142257E+00
         21   -1    0    0  501  502  0.00000000000E+00  0.00000000000E+00  0.53749267488E+03  0.53749267488E+03  0.00000000000E+00 0.  1.
         21   -1    0    0  502  503 -0.00000000000E+00 -0.00000000000E+00 -0.11029094208E+03  0.11029094208E+03  0.00000000000E+00 0. -1.
         -6    2    1    2    0  503 -0.11321212153E+03 -0.14843480853E+02  0.44919399976E+02  0.21166904184E+03  0.17247816498E+03 0.  0.
        -24    2    3    3    0    0 -0.21213843640E+02 -0.47582742409E+02  0.60611188954E+02  0.11265457510E+03  0.79392647823E+02 0.  0.
          6    2    1    2  501    0  0.11321212153E+03  0.14843480853E+02  0.38228233283E+03  0.43611457512E+03  0.17612162631E+03 0.  0.
         24    2    5    5    0    0  0.11517922579E+03  0.17536595367E+02  0.16002275896E+03  0.21378029854E+03  0.80752377230E+02 0.  0.
          5    1    5    5  501    0 -0.19671042631E+01 -0.26931145148E+01  0.22225957387E+03  0.22233427658E+03  0.47000000000E+01 0. -1.
        -11    1    6    6    0    0 -0.11535941503E+01 -0.16873047453E+02  0.38581807444E+02  0.42125839759E+02  0.00000000000E+00 0.  1.
         12    1    6    6    0    0  0.11633281994E+03  0.34409642820E+02  0.12144095151E+03  0.17165445878E+03  0.00000000000E+00 0. -1.
         -5    1    3    3    0  503 -0.91998277887E+02  0.32739261557E+02 -0.15691788978E+02  0.99014466735E+02  0.47000000000E+01 0.  1.
         13    1    4    4    0    0 -0.22417368057E+01 -0.33460368562E+02 -0.12518239746E+02  0.35795641838E+02  0.00000000000E+00 0. -1.
        -14    1    4    4    0    0 -0.18972106835E+02 -0.14122373847E+02  0.73129428701E+02  0.76858933267E+02  0.00000000000E+00 0.  1.
</event>
<event>
12    1  0.1628146E-001  0.2310505E+03  0.7818608E-02  0.1127807E+00
         21   -1    0    0  501  502  0.00000000000E+00  0.00000000000E+00  0.11928328473E+03  0.11928328473E+03  0.00000000000E+00 0. -1.
         21   -1    0    0  502  503 -0.00000000000E+00 -0.00000000000E+00 -0.47493746896E+03  0.47493746896E+03  0.00000000000E+00 0.  1.
         -6    2    1    2    0  503  0.13728017384E+03  0.65848895476E+02 -0.79912341210E+02  0.23447378754E+03  0.15940530607E+03 0.  0.
        -24    2    3    3    0    0  0.10147878711E+03  0.81579471133E+01 -0.17753148967E+00  0.12964194746E+03  0.80265227143E+02 0.  0.
          6    2    1    2  501    0 -0.13728017384E+03 -0.65848895476E+02 -0.27574184302E+03  0.35974696615E+03  0.17378835547E+03 0.  0.
         24    2    5    5    0    0 -0.25295266551E+02 -0.52083086872E+02 -0.20443457974E+03  0.22619198592E+03  0.77568154901E+02 0.  0.
          5    1    5    5  501    0 -0.11198490729E+03 -0.13765808604E+02 -0.71307263281E+02  0.13355498023E+03  0.47000000000E+01 0. -1.
        -13    1    6    6    0    0 -0.40584783395E+02 -0.53026809040E+02 -0.19905406471E+03  0.20995591870E+03  0.00000000000E+00 0.  1.
         14    1    6    6    0    0  0.15289516844E+02  0.94372216809E+00 -0.53805150293E+01  0.16236067222E+02  0.00000000000E+00 0. -1.
         -5    1    3    3    0  503  0.35801386730E+02  0.57690948362E+02 -0.79734809720E+02  0.10483184009E+03  0.47000000000E+01 0.  1.
         13    1    4    4    0    0  0.79133660127E+02  0.27968682710E+02  0.28105573180E+02  0.88511618567E+02  0.00000000000E+00 0. -1.
        -14    1    4    4    0    0  0.22345126984E+02 -0.19810735597E+02 -0.28283104669E+02  0.41130328889E+02  0.00000000000E+00 0.  1.
</event>
<event>
12    1  0.1628146E-001  0.1762543E+03  0.7818608E-02  0.1172441E+00
         21   -1    0    0  501  502  0.00000000000E+00  0.00000000000E+00  0.89652968713E+03  0.89652968713E+03  0.00000000000E+00 0.  1.
         21   -1    0    0  502  503 -0.00000000000E+00 -0.00000000000E+00 -0.41099881882E+02  0.41099881882E+02  0.00000000000E+00 0.  1.
         -6    2    1    2    0  503  0.87408907959E+01 -0.65642914533E+01  0.62001620192E+03  0.64354601643E+03  0.17208106093E+03 0.  0.
        -24    2    3    3    0    0  0.51290229077E+02 -0.47004378831E+02  0.29906738710E+03  0.31723929172E+03  0.79745639126E+02 0.  0.
          6    2    1    2  501    0 -0.87408907959E+01  0.65642914533E+01  0.23541360333E+03  0.29408355258E+03  0.17591497427E+03 0.  0.
         24    2    5    5    0    0  0.85932510827E+01 -0.49742493868E+02  0.69339175229E+02  0.11780612289E+03  0.80760149264E+02 0.  0.
          5    1    5    5  501    0 -0.17334141879E+02  0.56306785321E+02  0.16607442810E+03  0.17627742969E+03  0.47000000000E+01 0. -1.
        -13    1    6    6    0    0  0.40665791134E+02 -0.48102853694E+02  0.42924739761E+02  0.76224171924E+02  0.00000000000E+00 0.  1.
         14    1    6    6    0    0 -0.32072540051E+02 -0.16396401743E+01  0.26414435468E+02  0.41581950969E+02  0.00000000000E+00 0. -1.
         -5    1    3    3    0  503 -0.42549338281E+02  0.40440087378E+02  0.32094881482E+03  0.32630672471E+03  0.47000000000E+01 0.  1.
         13    1    4    4    0    0  0.11391449097E+02 -0.10904677745E+02  0.22573260212E+03  0.22628275403E+03  0.00000000000E+00 0. -1.
        -14    1    4    4    0    0  0.39898779979E+02 -0.36099701086E+02  0.73334784978E+02  0.90956537699E+02  0.00000000000E+00 0.  1.
</event>
<event>
12    1  0.1628146E-001  0.1699485E+03  0.7818608E-02  0.1178474E+00
         21   -1    0    0  501  502  0.00000000000E+00  0.00000000000E+00  0.37799064629E+02  0.37799064629E+02  0.00000000000E+00 0.  1.
         21   -1    0    0  502  503 -0.00000000000E+00 -0.00000000000E+00 -0.17893263632E+04  0.17893263632E+04  0.00000000000E+00 0.  1.
         -6    2    1    2    0  503  0.29900009508E+01  0.62546041869E+01 -0.15729476228E+04  0.15821019919E+04  0.16980703336E+03 0.  0.
        -24    2    3    3    0    0  0.28545126892E+02  0.94503009822E+01 -0.40191495513E+03  0.41077672723E+03  0.79358402331E+02 0.  0.
          6    2    1    2  501    0 -0.29900009508E+01 -0.62546041869E+01 -0.17857967580E+03  0.24502343594E+03  0.16762375539E+03 0.  0.
         24    2    5    5    0    0 -0.38972353771E+02  0.21030926220E+02 -0.18042785694E+02  0.78189947189E+02  0.61862601867E+02 0.  0.
          5    1    5    5  501    0  0.35982352820E+02 -0.27285530406E+02 -0.16053689011E+03  0.16683348875E+03  0.47000000000E+01 0. -1.
        -13    1    6    6    0    0 -0.27630208370E+02  0.26224740585E+02  0.16462296025E+02  0.41499067745E+02  0.00000000000E+00 0.  1.
         14    1    6    6    0    0 -0.11342145401E+02 -0.51938143659E+01 -0.34505081719E+02  0.36690879444E+02  0.00000000000E+00 0. -1.
         -5    1    3    3    0  503 -0.25555125941E+02 -0.31956967953E+01 -0.11710326677E+04  0.11713252647E+04  0.47000000000E+01 0.  1.
         13    1    4    4    0    0 -0.18887962358E+02  0.20433448026E+02 -0.70301231630E+02  0.75607830871E+02  0.00000000000E+00 0. -1.
        -14    1    4    4    0    0  0.47433089250E+02 -0.10983147044E+02 -0.33161372350E+03  0.33516889636E+03  0.00000000000E+00 0.  1.
</event>
<event>
12    1  0.1628146E-001  0.2240943E+03  0.7818608E-02  0.1130894E+00
         21   -1    0    0  501  502  0.00000000000E+00  0.00000000000E+00  0.46127263467E+03  0.46127263467E+03  0.00000000000E+00 0. -1.
         21   -1    0    0  502  503 -0.00000000000E+00 -0.00000000000E+00 -0.15171052837E+03  0.15171052837E+03  0.00000000000E+00 0. -1.
         -6    2    1    2    0  503  0.12557454974E+03  0.68933321410E+02  0.31775077924E+03  0.38873932846E+03  0.17213929661E+03 0.  0.
        -24    2    3    3    0    0  0.93838441550E+02  0.90087631054E+02  0.31480552646E+03  0.35019779380E+03  0.81329827914E+02 0.  0.
          6    2    1    2  501    0 -0.12557454974E+03 -0.68933321410E+02 -0.81886729430E+01  0.22424383458E+03  0.17232954662E+03 0.  0.
         24    2    5    5    0    0 -0.11726848901E+03 -0.11160980693E+03 -0.37989321469E+01  0.18029348890E+03  0.79263249587E+02 0.  0.
          5    1    5    5  501    0 -0.83060607313E+01  0.42676485519E+02 -0.43897407960E+01  0.43950345680E+02  0.47000000000E+01 0. -1.
        -13    1    6    6    0    0 -0.12609501729E+02  0.10830394131E+02  0.86501997438E+01  0.18738274374E+02  0.00000000000E+00 0.  1.
         14    1    6    6    0    0 -0.10465898728E+03 -0.12244020106E+03 -0.12449131891E+02  0.16155521452E+03  0.00000000000E+00 0. -1.
         -5    1    3    3    0  503  0.31736108192E+02 -0.21154309644E+02  0.29452527769E+01  0.38541534656E+02  0.47000000000E+01 0.  1.
         13    1    4    4    0    0  0.88400060109E+02  0.31556176945E+02  0.17618757320E+03  0.19963071878E+03  0.00000000000E+00 0. -1.
        -14    1    4    4    0    0  0.54383814413E+01  0.58531454109E+02  0.13861795326E+03  0.15056707502E+03  0.00000000000E+00 0.  1.
</event>
<event>
12    1  0.1628146E-001  0.3490803E+03  0.7818608E-02  0.1063087E+00
         21   -1    0    0  501  502  0.00000000000E+00  0.00000000000E+00  0.13432985050E+04  0.13432985050E+04  0.00000000000E+00 0. -1.
         21   -1    0    0  502  503 -0.00000000000E+00 -0.00000000000E+00 -0.28891308762E+03  0.28891308762E+03  0.00000000000E+00 0. -1.
         -6    2    1    2    0  503  0.39578749606E+02 -0.30136598583E+03 -0.14937402667E+03  0.37885853427E+03  0.16980357566E+03 0.  0.
        -24    2    3    3    0    0  0.41569834972E+02 -0.26264563507E+03 -0.17837646224E+03  0.33021224712E+03  0.80691914495E+02 0.  0.
          6    2    1    2  501    0 -0.39578749606E+02  0.30136598583E+03  0.12037594441E+04  0.12533530584E+04  0.17166582333E+03 0.  0.
         24    2    5    5    0    0  0.22080717391E+02  0.14524881217E+03  0.57702335991E+03  0.60451203703E+03  0.10437465936E+03 0.  0.
          5    1    5    5  501    0 -0.61659466998E+02  0.15611717366E+03  0.62673608418E+03  0.64884102136E+03  0.47000000000E+01 0. -1.
        -11    1    6    6    0    0  0.47211102194E+02  0.14563582499E+03  0.52263779242E+03  0.54459980147E+03  0.00000000000E+00 0.  1.
         12    1    6    6    0    0 -0.25130384803E+02 -0.38701281852E+00  0.54385567490E+02  0.59912235566E+02  0.00000000000E+00 0. -1.
         -5    1    3    3    0  503 -0.19910853656E+01 -0.38720350766E+02  0.29002435574E+02  0.48646287151E+02  0.47000000000E+01 0.  1.
         11    1    4    4    0    0 -0.22934247554E+02 -0.40231487932E+02 -0.29831403355E+02  0.55085977873E+02  0.00000000000E+00 0. -1.
        -12    1    4    4    0    0  0.64504082527E+02 -0.22241414714E+03 -0.14854505889E+03  0.27512626924E+03  0.00000000000E+00 0.  1.
</event>
<event>
12    1  0.1628146E-001  0.2086140E+03  0.7818608E-02  0.1142715E+00
         21   -1    0    0  503  502  0.00000000000E+00  0.00000000000E+00  0.10540527937E+03  0.10540527937E+03  0.00000000000E+00 0. -1.
         21   -1    0    0  501  503 -0.00000000000E+00 -0.00000000000E+00 -0.48696768135E+03  0.48696768135E+03  0.00000000000E+00 0. -1.
          6    2    1    2  501    0 -0.10114165331E+03 -0.60569993536E+02 -0.30657831587E+03  0.37069209701E+03  0.17182551868E+03 0.  0.
         24    2    3    3    0    0 -0.71007222704E+02 -0.35186003122E+02 -0.31071702506E+03  0.33079661116E+03  0.81248063381E+02 0.  0.
         -6    2    1    2    0  502  0.10114165331E+03  0.60569993536E+02 -0.74984086103E+02  0.22168086371E+03  0.17210878541E+03 0.  0.
        -24    2    5    5    0    0  0.65964598557E+02  0.95075448402E+02 -0.11417279272E+02  0.14111486264E+03  0.79952367330E+02 0.  0.
          5    1    3    3  501    0 -0.30134430609E+02 -0.25383990414E+02  0.41387091820E+01  0.39895485850E+02  0.47000000000E+01 0. -1.
        -13    1    4    4    0    0 -0.66785463041E+02 -0.11470539120E+02 -0.11406789290E+03  0.13267763765E+03  0.00000000000E+00 0.  1.
         14    1    4    4    0    0 -0.42217596632E+01 -0.23715464002E+02 -0.19664913216E+03  0.19811897351E+03  0.00000000000E+00 0. -1.
         -5    1    5    5    0  502  0.35177054756E+02 -0.34505454866E+02 -0.63566806831E+02  0.80566001064E+02  0.47000000000E+01 0.  1.
         11    1    6    6    0    0 -0.55588839219E+01 -0.10603017921E+02  0.39017960734E+01  0.12591631828E+02  0.00000000000E+00 0. -1.
        -12    1    6    6    0    0  0.71523482479E+02  0.10567846632E+03 -0.15319075345E+02  0.12852323082E+03  0.00000000000E+00 0.  1.
</event>
<event>
12    1  0.1628146E-001  0.2359787E+03  0.7818608E-02  0.1122593E+00
         21   -1    0    0  501  502  0.00000000000E+00  0.00000000000E+00  0.18530139723E+03  0.18530139723E+03  0.00000000000E+00 0.  1.
         21   -1    0    0  502  503 -0.00000000000E+00 -0.00000000000E+00 -0.42574278851E+03  0.42574278851E+03  0.00000000000E+00 0.  1.
         -6    2    1    2    0  503  0.12019374011E+03 -0.10656923403E+03  0.46030833772E+02  0.23989422366E+03  0.17212455979E+03 0.  0.
        -24    2    3    3    0    0  0.72949718077E+02 -0.76541602447E+02  0.96859035833E+02  0.16413636993E+03  0.79867370303E+02 0.  0.
          6    2    1    2  501    0 -0.12019374011E+03  0.10656923403E+03 -0.28647222505E+03  0.37114996208E+03  0.17286532857E+03 0.  0.
         24    2    5    5    0    0 -0.89067257827E+02  0.44225773679E+01 -0.20537419951E+03  0.23697926068E+03  0.77640663070E+02 0.  0.
          5    1    5    5  501    0 -0.31126482287E+02  0.10214665666E+03 -0.81098025545E+02  0.13417070140E+03  0.47000000000E+01 0. -1.
        -13    1    6    6    0    0 -0.10315311060E+03  0.59618805801E+01 -0.17090693837E+03  0.19971301868E+03  0.00000000000E+00 0.  1.
         14    1    6    6    0    0  0.14085852773E+02 -0.15393032122E+01 -0.34467261133E+02  0.37266241998E+02  0.00000000000E+00 0. -1.
         -5    1    3    3    0  503  0.47244022037E+02 -0.30027631585E+02 -0.50828202061E+02  0.75757853729E+02  0.47000000000E+01 0.  1.
         11    1    4    4    0    0  0.45081866329E+02 -0.72679852386E+02  0.10444792154E+03  0.13499668117E+03  0.00000000000E+00 0. -1.
        -12    1    4    4    0    0  0.27867851748E+02 -0.38617500610E+01 -0.75888857049E+01  0.29139688757E+02  0.00000000000E+00 0.  1.
</event>
<event>
12    1  0.1628146E-001  0.2162649E+03  0.7818608E-02  0.1136906E+00
         21   -1    0    0  503  502  0.00000000000E+00  0.00000000000E+00  0.71185441035E+02  0.71185441035E+02  0.00000000000E+00 0.  1.
         21   -1    0    0  501  503 -0.00000000000E+00 -0.00000000000E+00 -0.66274650788E+03  0.66274650788E+03  0.00000000000E+00 0.  1.
          6    2    1    2  501    0  0.12864059888E+03 -0.21847695483E+02 -0.33785417862E+03  0.40055875467E+03  0.17110273071E+03 0.  0.
         24    2    3    3    0    0  0.47328622285E+02 -0.38246061046E+02 -0.73259342131E+02  0.12322671284E+03  0.78199308664E+02 0.  0.
         -6    2    1    2    0  502 -0.12864059888E+03  0.21847695483E+02 -0.25370688822E+03  0.33337319424E+03  0.17246673890E+03 0.  0.
        -24    2    5    5    0    0 -0.15487035237E+03  0.14411830901E+02 -0.15952054350E+03  0.23520777475E+03  0.75388106440E+02 0.  0.
          5    1    3    3  501    0  0.81311976592E+02  0.16398365563E+02 -0.26459483649E+03  0.27733204183E+03  0.47000000000E+01 0. -1.
        -13    1    4    4    0    0  0.44534855027E+02  0.12831875129E+02 -0.23919629249E+02  0.52155143515E+02  0.00000000000E+00 0.  1.
         14    1    4    4    0    0  0.27937672577E+01 -0.51077936175E+02 -0.49339712882E+02  0.71071569328E+02  0.00000000000E+00 0. -1.
         -5    1    5    5    0  502  0.26229753494E+02  0.74358645822E+01 -0.94186344724E+02  0.98165419486E+02  0.47000000000E+01 0.  1.
         11    1    6    6    0    0 -0.59575282244E+02 -0.19793238694E+02 -0.26754108674E+02  0.68240522297E+02  0.00000000000E+00 0. -1.
        -12    1    6    6    0    0 -0.95295070127E+02  0.34205069595E+02 -0.13276643483E+03  0.16696725246E+03  0.00000000000E+00 0.  1.
</event>
<event>
12    1  0.1628146E-001  0.1735331E+03  0.7818608E-02  0.1174276E+00
         21   -1    0    0  503  502  0.00000000000E+00  0.00000000000E+00  0.72478324466E+02  0.72478324466E+02  0.00000000000E+00 0. -1.
         21   -1    0    0  501  503 -0.00000000000E+00 -0.00000000000E+00 -0.49511294417E+03  0.49511294417E+03  0.00000000000E+00 0. -1.
          6    2    1    2  501    0 -0.93032357323E+01 -0.76595215111E+01 -0.32567752883E+03  0.36902520638E+03  0.17311421575E+03 0.  0.
         24    2    3    3    0    0  0.57207351054E+02  0.65966938326E+01 -0.16246406713E+03  0.19214213226E+03  0.84898931067E+02 0.  0.
         -6    2    1    2    0  502  0.93032357323E+01  0.76595215111E+01 -0.96957090873E+02  0.19856606226E+03  0.17286580097E+03 0.  0.
        -24    2    5    5    0    0  0.26956174538E+02  0.61690765714E+02 -0.18626081079E+02  0.10167004225E+03  0.73874763443E+02 0.  0.
          5    1    3    3  501    0 -0.66510586786E+02 -0.14256215344E+02 -0.16321346170E+03  0.17688307412E+03  0.47000000000E+01 0. -1.
        -11    1    4    4    0    0  0.22754729298E+02  0.16445344895E+02 -0.24691552771E+01  0.28183750671E+02  0.00000000000E+00 0.  1.
         12    1    4    4    0    0  0.34452621756E+02 -0.98486510625E+01 -0.15999491186E+03  0.16395838159E+03  0.00000000000E+00 0. -1.
         -5    1    5    5    0  502 -0.17652938806E+02 -0.54031244203E+02 -0.78331009794E+02  0.96896020011E+02  0.47000000000E+01 0.  1.
         13    1    6    6    0    0  0.50114795886E+02  0.31050423223E+02  0.68041312153E-01  0.58954441551E+02  0.00000000000E+00 0. -1.
        -14    1    6    6    0    0 -0.23158621348E+02  0.30640342491E+02 -0.18694122392E+02  0.42715600694E+02  0.00000000000E+00 0.  1.
</event>
<event>
12    1  0.1628146E-001  0.1836968E+03  0.7818608E-02  0.1164501E+00
         21   -1    0    0  501  502  0.00000000000E+00  0.00000000000E+00  0.31075188445E+03  0.31075188445E+03  0.00000000000E+00 0. -1.
         21   -1    0    0  502  503 -0.00000000000E+00 -0.00000000000E+00 -0.13399940404E+03  0.13399940404E+03  0.00000000000E+00 0. -1.
         -6    2    1    2    0  503 -0.20756947264E+02  0.58861989710E+02 -0.97272696547E+01  0.18298952142E+03  0.17174096914E+03 0.  0.
        -24    2    3    3    0    0 -0.70430925499E+02  0.73272476217E+02 -0.15278265123E+02  0.13075859393E+03  0.80839430136E+02 0.  0.
          6    2    1    2  501    0  0.20756947264E+02 -0.58861989710E+02  0.18647975006E+03  0.26176176707E+03  0.17276846016E+03 0.  0.
         24    2    5    5    0    0  0.48769127999E+02  0.21542540000E+02  0.12034907302E+03  0.15385010360E+03  0.79645753969E+02 0.  0.
          5    1    5    5  501    0 -0.28012180735E+02 -0.80404529710E+02  0.66130677040E+02  0.10791166347E+03  0.47000000000E+01 0. -1.
        -11    1    6    6    0    0 -0.21343305360E+02  0.13362814645E+02  0.29025938077E+02  0.38426638939E+02  0.00000000000E+00 0.  1.
         12    1    6    6    0    0  0.70112433358E+02  0.81797253554E+01  0.91323134945E+02  0.11542346466E+03  0.00000000000E+00 0. -1.
         -5    1    3    3    0  503  0.49673978235E+02 -0.14410486507E+02  0.55509954684E+01  0.52230927483E+02  0.47000000000E+01 0.  1.
         13    1    4    4    0    0 -0.42105185813E+01  0.61149623857E+02 -0.16319104800E+02  0.63429631451E+02  0.00000000000E+00 0. -1.
        -14    1    4    4    0    0 -0.66220406917E+02  0.12122852360E+02  0.10408396770E+01  0.67328962482E+02  0.00000000000E+00 0.  1.
</event>
<event>
12    1  0.1628146E-001  0.2135252E+03  0.7818608E-02  0.1138901E+00
         21   -1    0    0  501  502  0.00000000000E+00  0.00000000000E+00  0.58435541445E+03  0.58435541445E+03  0.00000000000E+00 0.  1.
         21   -1    0    0  502  503 -0.00000000000E+00 -0.00000000000E+00 -0.15054692164E+03  0.15054692164E+03  0.00000000000E+00 0.  1.
         -6    2    1    2    0  503  0.26668236474E+02 -0.12318445351E+03 -0.38323197303E+02  0.21693701031E+03  0.17235833188E+03 0.  0.
        -24    2    3    3    0    0 -0.29264431069E+02 -0.29550586446E+02  0.20381306190E+02  0.92985112020E+02  0.80629953059E+02 0.  0.
          6    2    1    2  501    0 -0.26668236474E+02  0.12318445351E+03  0.47213169012E+03  0.51796532578E+03  0.17173858470E+03 0.  0.
         24    2    5    5    0    0 -0.50189443312E+02  0.14674731354E+03  0.34680367561E+03  0.38820532900E+03  0.79855079966E+02 0.  0.
          5    1    5    5  501    0  0.23521206839E+02 -0.23562860031E+02  0.12532801451E+03  0.12975999678E+03  0.47000000000E+01 0. -1.
        -13    1    6    6    0    0 -0.26676461092E+02  0.14351475590E+03  0.32366125634E+03  0.35505594995E+03  0.00000000000E+00 0.  1.
         14    1    6    6    0    0 -0.23512982221E+02  0.32325576353E+01  0.23142419268E+02  0.33149379050E+02  0.00000000000E+00 0. -1.
         -5    1    3    3    0  503  0.55932667542E+02 -0.93633867060E+02 -0.58704503493E+02  0.12395189829E+03  0.47000000000E+01 0.  1.
         11    1    4    4    0    0 -0.34198970941E+01  0.25342633818E+02 -0.68611559046E+01  0.26476786915E+02  0.00000000000E+00 0. -1.
        -12    1    4    4    0    0 -0.25844533975E+02 -0.54893220264E+02  0.27242462095E+02  0.66508325105E+02  0.00000000000E+00 0.  1.
</event>
<event>
12    1  0.1628146E-001  0.1929556E+03  0.7818608E-02  0.1156170E+00
         21   -1    0    0  503  502  0.00000000000E+00  0.00000000000E+00  0.51224481161E+03  0.51224481161E+03  0.00000000000E+00 0. -1.
         21   -1    0    0  501  503 -0.00000000000E+00 -0.00000000000E+00 -0.18601067733E+03  0.18601067733E+03  0.00000000000E+00 0.  1.
          6    2    1    2  501    0  0.63605564093E+02 -0.59566482902E+02 -0.11035533797E+03  0.22092726071E+03  0.17040164389E+03 0.  0.
         24    2    3    3    0    0  0.57727726091E+02 -0.19860646528E+02 -0.13751648290E+03  0.17223516469E+03  0.83828594437E+02 0.  0.
         -6    2    1    2    0  502 -0.63605564093E+02  0.59566482902E+02  0.43658947226E+03  0.47732822823E+03  0.17215701121E+03 0.  0.
        -24    2    5    5    0    0 -0.23852581019E+02  0.10048826293E+03  0.24419166720E+03  0.27659483008E+03  0.78792722293E+02 0.  0.
          5    1    3    3  501    0  0.58778380011E+01 -0.39705836374E+02  0.27161144929E+02  0.48692096028E+02  0.47000000000E+01 0. -1.
        -13    1    4    4    0    0  0.40360262293E+02 -0.47634692417E+02 -0.11955829495E+03  0.13487846598E+03  0.00000000000E+00 0.  1.
         14    1    4    4    0    0  0.17367463798E+02  0.27774045889E+02 -0.17958187953E+02  0.37356698708E+02  0.00000000000E+00 0. -1.
         -5    1    5    5    0  502 -0.39752983074E+02 -0.40921780024E+02  0.19239780505E+03  0.20073339815E+03  0.47000000000E+01 0.  1.
         11    1    6    6    0    0 -0.47141943695E+01  0.59983557521E+02  0.21467249063E+03  0.22294512561E+03  0.00000000000E+00 0. -1.
        -12    1    6    6    0    0 -0.19138386649E+02  0.40504705404E+02  0.29519176574E+02  0.53649704464E+02  0.00000000000E+00 0.  1.
</event>
<event>
12    1  0.1628146E-001  0.1907358E+03  0.7818608E-02  0.1157981E+00
         21   -1    0    0  501  502  0.00000000000E+00  0.00000000000E+00  0.34581990744E+03  0.34581990744E+03  0.00000000000E+00 0. -1.
         21   -1    0    0  502  503 -0.00000000000E+00 -0.00000000000E+00 -0.14266192058E+03  0.14266192058E+03  0.00000000000E+00 0. -1.
         -6    2    1    2    0  503  0.40738196675E+02 -0.70594904555E+02 -0.24481399192E+02  0.19149722958E+03  0.17154768670E+03 0.  0.
        -24    2    3    3    0    0  0.27179401582E+02 -0.42203909791E+02 -0.83455371955E+02  0.12449044655E+03  0.77544711634E+02 0.  0.
          6    2    1    2  501    0 -0.40738196675E+02  0.70594904555E+02  0.22763938604E+03  0.29698459844E+03  0.17244396312E+03 0.  0.
         24    2    5    5    0    0 -0.41498845747E+01 -0.25699519812E+01  0.36736821534E+02  0.89240332694E+02  0.81181381657E+02 0.  0.
          5    1    5    5  501    0 -0.36588312100E+02  0.73164856536E+02  0.19090256451E+03  0.20774426575E+03  0.47000000000E+01 0. -1.
        -13    1    6    6    0    0 -0.16405291511E+01  0.41458133343E+00 -0.26164054178E+02  0.26218713633E+02  0.00000000000E+00 0.  1.
         14    1    6    6    0    0 -0.25093554236E+01 -0.29845333146E+01  0.62900875712E+02  0.63021619061E+02  0.00000000000E+00 0. -1.
         -5    1    3    3    0  503  0.13558795093E+02 -0.28390994764E+02  0.58973972763E+02  0.67006783026E+02  0.47000000000E+01 0.  1.
         11    1    4    4    0    0  0.47091023613E+02 -0.45084346096E+02 -0.39696349015E+02  0.76327995473E+02  0.00000000000E+00 0. -1.
        -12    1    4    4    0    0 -0.19911622031E+02  0.28804363046E+01 -0.43759022940E+02  0.48162451079E+02  0.00000000000E+00 0.  1.
</event>
<event>
12    1  0.1628146E-001  0.3202638E+03  0.7818608E-02  0.1075659E+00
         21   -1    0    0  501  502  0.00000000000E+00  0.00000000000E+00  0.34242851342E+03  0.34242851342E+03  0.00000000000E+00 0.  1.
         21   -1    0    0  502  503 -0.00000000000E+00 -0.00000000000E+00 -0.30496524242E+03  0.30496524242E+03  0.00000000000E+00 0. -1.
         -6    2    1    2    0  503 -0.18637753274E+03  0.19531109393E+03 -0.28487720985E+02  0.32152834836E+03  0.17229602557E+03 0.  0.
        -24    2    3    3    0    0 -0.70777731329E+02  0.15291873202E+03 -0.54057793872E+02  0.19568580761E+03  0.83528823567E+02 0.  0.
          6    2    1    2  501    0  0.18637753274E+03 -0.19531109393E+03  0.65950991992E+02  0.32586540748E+03  0.17016381027E+03 0.  0.
         24    2    5    5    0    0  0.17608640466E+03 -0.21906427677E+03  0.54159245073E+02  0.29703389161E+03  0.79374616064E+02 0.  0.
          5    1    5    5  501    0  0.10291128084E+02  0.23753182838E+02  0.11791746919E+02  0.28831515874E+02  0.47000000000E+01 0. -1.
        -11    1    6    6    0    0 -0.55405808141E+01 -0.27582805327E+02  0.54824245876E+01  0.28662975506E+02  0.00000000000E+00 0.  1.
         12    1    6    6    0    0  0.18162698547E+03 -0.19148147144E+03  0.48676820485E+02  0.26837091610E+03  0.00000000000E+00 0. -1.
         -5    1    3    3    0  503 -0.11559980141E+03  0.42392361908E+02  0.25570072887E+02  0.12584254075E+03  0.47000000000E+01 0.  1.
         11    1    4    4    0    0 -0.40784253421E+02  0.54063523972E+02 -0.62343955104E+02  0.92048838610E+02  0.00000000000E+00 0. -1.
        -12    1    4    4    0    0 -0.29993477908E+02  0.98855208051E+02  0.82861612321E+01  0.10363696900E+03  0.00000000000E+00 0.  1.
</event>
<event>
12    1  0.1628146E-001  0.3188205E+03  0.7818608E-02  0.1076224E+00
         21   -1    0    0  501  502  0.00000000000E+00  0.00000000000E+00  0.11773871637E+03  0.11773871637E+03  0.00000000000E+00 0. -1.
         21   -1    0    0  502  503 -0.00000000000E+00 -0.00000000000E+00 -0.11584075024E+04  0.11584075024E+04  0.00000000000E+00 0.  1.
         -6    2    1    2    0  503 -0.23615590954E+03 -0.12784188054E+03 -0.84260398370E+03  0.90081146569E+03  0.17136704277E+03 0.  0.
        -24    2    3    3    0    0 -0.35344829269E+02 -0.38449523270E+02 -0.29926844588E+03  0.31467864784E+03  0.82057454968E+02 0.  0.
          6    2    1    2  501    0  0.23615590954E+03  0.12784188054E+03 -0.19806480230E+03  0.37533475305E+03  0.17185270119E+03 0.  0.
         24    2    5    5    0    0  0.57958721458E+02  0.93000860279E+02 -0.10343058622E+03  0.17052786990E+03  0.79834170879E+02 0.  0.
          5    1    5    5  501    0  0.17819718808E+03  0.34841020260E+02 -0.94634216078E+02  0.20480688315E+03  0.47000000000E+01 0. -1.
        -13    1    6    6    0    0  0.13391899811E+02  0.66017136395E+02 -0.96910584533E+02  0.11802231430E+03  0.00000000000E+00 0.  1.
         14    1    6    6    0    0  0.44566821647E+02  0.26983723884E+02 -0.65200016853E+01  0.52505555595E+02  0.00000000000E+00 0. -1.
         -5    1    3    3    0  503 -0.20081108027E+03 -0.89392357269E+02 -0.54333553782E+03  0.58613281785E+03  0.47000000000E+01 0.  1.
         11    1    4    4    0    0 -0.33772567081E+02  0.19451964531E+02 -0.10712558368E+03  0.11399498186E+03  0.00000000000E+00 0. -1.
        -12    1    4    4    0    0 -0.15722621880E+01 -0.57901487802E+02 -0.19214286220E+03  0.20068366598E+03  0.00000000000E+00 0.  1.
</event>
<event>
12    1  0.1628146E-001  0.1912644E+03  0.7818608E-02  0.1157423E+00
         21   -1    0    0  501  502  0.00000000000E+00  0.00000000000E+00  0.56258127829E+03  0.56258127829E+03  0.00000000000E+00 0.  1.
         21   -1    0    0  502  503 -0.00000000000E+00 -0.00000000000E+00 -0.41842202715E+03  0.41842202715E+03  0.00000000000E+00 0. -1.
         -6    2    1    2    0  503 -0.40796757695E+02  0.74626345781E+02 -0.37880648000E+03  0.42415930448E+03  0.17083120136E+03 0.  0.
        -24    2    3    3    0    0 -0.32553265772E+02  0.99818704358E+02 -0.17834018252E+03  0.22189354733E+03  0.80050214185E+02 0.  0.
          6    2    1    2  501    0  0.40796757695E+02 -0.74626345781E+02  0.52296573115E+03  0.55684400097E+03  0.17131438508E+03 0.  0.
         24    2    5    5    0    0 -0.21072111176E+02 -0.65960930196E+02  0.44102057563E+03  0.45369389250E+03  0.80895746406E+02 0.  0.
          5    1    5    5  501    0  0.61868868870E+02 -0.86654155854E+01  0.81945155521E+02  0.10315010846E+03  0.47000000000E+01 0. -1.
        -11    1    6    6    0    0 -0.69555901762E+01 -0.66900400079E+02  0.17785785108E+03  0.19015114766E+03  0.00000000000E+00 0.  1.
         12    1    6    6    0    0 -0.14116520999E+02  0.93946988337E+00  0.26316272454E+03  0.26354274484E+03  0.00000000000E+00 0. -1.
         -5    1    3    3    0  503 -0.82434919225E+01 -0.25192358576E+02 -0.20046629748E+03  0.20226575715E+03  0.47000000000E+01 0.  1.
         11    1    4    4    0    0 -0.48697734379E+02  0.34553048267E+02 -0.11472993822E+03  0.12933808876E+03  0.00000000000E+00 0. -1.
        -12    1    4    4    0    0  0.16144468606E+02  0.65265656091E+02 -0.63610244299E+02  0.92555458571E+02  0.00000000000E+00 0.  1.
</event>
<event>
12    1  0.1628146E-001  0.2198460E+03  0.7818608E-02  0.1133999E+00
         21   -1    0    0  501  502  0.00000000000E+00  0.00000000000E+00  0.36299259392E+03  0.36299259392E+03  0.00000000000E+00 0.  1.
         21   -1    0    0  502  503 -0.00000000000E+00 -0.00000000000E+00 -0.18427667398E+03  0.18427667398E+03  0.00000000000E+00 0. -1.
         -6    2    1    2    0  503  0.95008581707E+01  0.13574039492E+03 -0.54779499998E+02  0.22656795090E+03  0.17267461202E+03 0.  0.
        -24    2    3    3    0    0  0.53770467658E+02  0.14531814534E+03 -0.38575706324E+02  0.17823385779E+03  0.79187097366E+02 0.  0.
          6    2    1    2  501    0 -0.95008581707E+01 -0.13574039492E+03  0.23349541994E+03  0.32070131700E+03  0.17266586945E+03 0.  0.
         24    2    5    5    0    0  0.38186285295E+02 -0.37612911685E+02  0.15659607591E+03  0.18713984901E+03  0.87327364482E+02 0.  0.
          5    1    5    5  501    0 -0.47687143466E+02 -0.98127483239E+02  0.76899344026E+02  0.13356146799E+03  0.47000000000E+01 0. -1.
        -13    1    6    6    0    0  0.22498879378E+02 -0.46040544562E+02  0.30169709362E+02  0.59465474687E+02  0.00000000000E+00 0.  1.
         14    1    6    6    0    0  0.15687405917E+02  0.84276328772E+01  0.12642636655E+03  0.12767437432E+03  0.00000000000E+00 0. -1.
         -5    1    3    3    0  503 -0.44269609487E+02 -0.95777504130E+01 -0.16203793674E+02  0.48334093108E+02  0.47000000000E+01 0.  1.
         11    1    4    4    0    0  0.40859904976E+02  0.25449412641E+02 -0.31369873095E+02  0.57456708715E+02  0.00000000000E+00 0. -1.
        -12    1    4    4    0    0  0.12910562682E+02  0.11986873270E+03 -0.72058332286E+01  0.12077714908E+03  0.00000000000E+00 0.  1.
</event>
<event>
12    1  0.1628146E-001  0.1716693E+03  0.7818608E-02  0.1176156E+00
         21   -1    0    0  501  502  0.00000000000E+00  0.00000000000E+00  0.40133574894E+02  0.40133574894E+02  0.00000000000E+00 0.  1.
         21   -1    0    0  502  503 -0.00000000000E+00 -0.00000000000E+00 -0.10880794819E+04  0.10880794819E+04  0.00000000000E+00 0.  1.
         -6    2    1    2    0  503 -0.43625040699E+00 -0.38164039894E+01 -0.84576262032E+03  0.86298029411E+03  0.17148126089E+03 0.  0.
        -24    2    3    3    0    0 -0.36903834890E+02 -0.58447926921E+02 -0.54334361882E+03  0.55347450986E+03  0.79584494471E+02 0.  0.
          6    2    1    2  501    0  0.43625040699E+00  0.38164039894E+01 -0.20218328673E+03  0.26523276273E+03  0.17162628510E+03 0.  0.
         24    2    5    5    0    0 -0.42340842730E+02  0.44951825483E+02 -0.16925689204E+03  0.19720159292E+03  0.80169565102E+02 0.  0.
          5    1    5    5  501    0  0.42777093137E+02 -0.41135421493E+02 -0.32926394688E+02  0.68031169811E+02  0.47000000000E+01 0. -1.
        -13    1    6    6    0    0 -0.16064512828E+02  0.10997737310E+02  0.29791518783E+01  0.19695028414E+02  0.00000000000E+00 0.  1.
         14    1    6    6    0    0 -0.26276329903E+02  0.33954088173E+02 -0.17223604392E+03  0.17750656450E+03  0.00000000000E+00 0. -1.
         -5    1    3    3    0  503  0.36467584483E+02  0.54631522932E+02 -0.30241900150E+03  0.30950578425E+03  0.47000000000E+01 0.  1.
         13    1    4    4    0    0 -0.60320432994E+01 -0.71539199172E+02 -0.38063508396E+03  0.38734649825E+03  0.00000000000E+00 0. -1.
        -14    1    4    4    0    0 -0.30871791591E+02  0.13091272251E+02 -0.16270853486E+03  0.16612801161E+03  0.00000000000E+00 0.  1.
</event>
<event>
12    1  0.1628146E-001  0.2221963E+03  0.7818608E-02  0.1132528E+00
         21   -1    0    0  501  502  0.00000000000E+00  0.00000000000E+00  0.19988986022E+03  0.19988986022E+03  0.00000000000E+00 0.  1.
         21   -1    0    0  502  503 -0.00000000000E+00 -0.00000000000E+00 -0.46921786094E+03  0.46921786094E+03  0.00000000000E+00 0. -1.
         -6    2    1    2    0  503  0.16851531048E+02 -0.13732722527E+03 -0.36597791665E+03  0.42814839260E+03  0.17386336508E+03 0.  0.
        -24    2    3    3    0    0  0.15518507887E+01 -0.16345350947E+03 -0.34853169385E+03  0.39289043418E+03  0.78543578025E+02 0.  0.
          6    2    1    2  501    0 -0.16851531048E+02  0.13732722527E+03  0.96649915938E+02  0.24095932856E+03  0.17198096078E+03 0.  0.
         24    2    5    5    0    0 -0.19914484197E+02  0.75990847408E+02  0.12830443509E+03  0.17170883026E+03  0.82768948018E+02 0.  0.
          5    1    5    5  501    0  0.30629531486E+01  0.61336377858E+02 -0.31654519154E+02  0.69250498292E+02  0.47000000000E+01 0. -1.
        -11    1    6    6    0    0 -0.29110548660E+02  0.24837889108E+02  0.58888526075E+01  0.38717223088E+02  0.00000000000E+00 0.  1.
         12    1    6    6    0    0  0.91960644630E+01  0.51152958300E+02  0.12241558248E+03  0.13299160718E+03  0.00000000000E+00 0. -1.
         -5    1    3    3    0  503  0.15299680260E+02  0.26126284206E+02 -0.17446222796E+02  0.35257958425E+02  0.47000000000E+01 0.  1.
         11    1    4    4    0    0  0.12979202985E+02 -0.88911502823E+02 -0.10628511077E+03  0.13917700893E+03  0.00000000000E+00 0. -1.
        -12    1    4    4    0    0 -0.11427352197E+02 -0.74542006649E+02 -0.24224658309E+03  0.25371342525E+03  0.00000000000E+00 0.  1.
</event>
<event>
12    1  0.1628146E-001  0.1860811E+03  0.7818608E-02  0.1163376E+00
         21   -1    0    0  501  502  0.00000000000E+00  0.00000000000E+00  0.14816656218E+04  0.14816656218E+04  0.00000000000E+00 0. -1.
         21   -1    0    0  502  503 -0.00000000000E+00 -0.00000000000E+00 -0.29504789275E+02  0.29504789275E+02  0.00000000000E+00 0. -1.
         -6    2    1    2    0  503  0.66247869777E+02  0.30289637196E+02  0.35371326644E+03  0.39707291031E+03  0.16506840664E+03 0.  0.
        -24    2    3    3    0    0  0.10175173637E+02  0.37419054506E+02  0.31813377369E+03  0.33011795420E+03  0.79152043054E+02 0.  0.
          6    2    1    2  501    0 -0.66247869777E+02 -0.30289637196E+02  0.10984475661E+04  0.11140975008E+04  0.17123067311E+03 0.  0.
         24    2    5    5    0    0 -0.16759711681E+02 -0.26696113963E+02  0.25118193108E+03  0.26536719174E+03  0.79585259414E+02 0.  0.
          5    1    5    5  501    0 -0.49488158097E+02 -0.35935232328E+01  0.84726563503E+03  0.84873030906E+03  0.47000000000E+01 0. -1.
        -11    1    6    6    0    0  0.15559752928E+02 -0.45569588207E+02  0.13843268244E+03  0.14656841695E+03  0.00000000000E+00 0.  1.
         12    1    6    6    0    0 -0.32319464609E+02  0.18873474244E+02  0.11274924864E+03  0.11879877479E+03  0.00000000000E+00 0. -1.
         -5    1    3    3    0  503  0.56072696141E+02 -0.71294173100E+01  0.35579492749E+02  0.66954956111E+02  0.47000000000E+01 0.  1.
         11    1    4    4    0    0  0.43123582520E+02  0.25318169460E+02  0.14272773870E+03  0.15123445530E+03  0.00000000000E+00 0. -1.
        -12    1    4    4    0    0 -0.32948408883E+02  0.12100885045E+02  0.17540603499E+03  0.17888349890E+03  0.00000000000E+00 0.  1.
</event>
<event>
12    1  0.1628146E-001  0.1811376E+03  0.7818608E-02  0.1166958E+00
         21   -1    0    0  501  502  0.00000000000E+00  0.00000000000E+00  0.18111716572E+02  0.18111716572E+02  0.00000000000E+00 0.  1.
         21   -1    0    0  502  503 -0.00000000000E+00 -0.00000000000E+00 -0.23473297368E+04  0.23473297368E+04  0.00000000000E+00 0.  1.
         -6    2    1    2    0  503  0.56472420067E+02 -0.83737288566E+01 -0.17325381699E+04  0.17418729469E+04  0.17080280833E+03 0.  0.
        -24    2    3    3    0    0  0.97594129093E+02  0.22000948264E+02 -0.11805553205E+04  0.11875077496E+04  0.80343853185E+02 0.  0.
          6    2    1    2  501    0 -0.56472420067E+02  0.83737288566E+01 -0.59667985030E+03  0.62356850647E+03  0.17190574436E+03 0.  0.
         24    2    5    5    0    0 -0.51389326594E+02 -0.56092469924E+02 -0.30030925785E+03  0.32018863454E+03  0.80918991999E+02 0.  0.
          5    1    5    5  501    0 -0.50830934726E+01  0.64466198780E+02 -0.29637059245E+03  0.30337987193E+03  0.47000000000E+01 0. -1.
        -13    1    6    6    0    0 -0.62798108717E+02 -0.24083435447E+02 -0.25397080909E+03  0.26272568620E+03  0.00000000000E+00 0.  1.
         14    1    6    6    0    0  0.11408782122E+02 -0.32009034477E+02 -0.46338448760E+02  0.57462948333E+02  0.00000000000E+00 0. -1.
         -5    1    3    3    0  503 -0.41121709026E+02 -0.30374677120E+02 -0.55198284939E+03  0.55436519730E+03  0.47000000000E+01 0.  1.
         13    1    4    4    0    0  0.32880380518E+02 -0.29994400556E+02 -0.35142687396E+03  0.35423386517E+03  0.00000000000E+00 0. -1.
        -14    1    4    4    0    0  0.64713748575E+02  0.51995348819E+02 -0.82912844653E+03  0.83327388439E+03  0.00000000000E+00 0.  1.
</event>
<event>
12    1  0.1628146E-001  0.1867358E+03  0.7818608E-02  0.1162771E+00
         21   -1    0    0  501  502  0.00000000000E+00  0.00000000000E+00  0.33661124066E+03  0.33661124066E+03  0.00000000000E+00 0. -1.
         21   -1    0    0  502  503 -0.00000000000E+00 -0.00000000000E+00 -0.10445976041E+03  0.10445976041E+03  0.00000000000E+00 0.  1.
         -6    2    1    2    0  503 -0.41691477287E+02  0.35097291643E+02  0.74672750467E+02  0.20111263836E+03  0.17860647941E+03 0.  0.
        -24    2    3    3    0    0 -0.40815343964E+02  0.39885524992E+01  0.11718305757E+03  0.14821899535E+03  0.80964194231E+02 0.  0.
          6    2    1    2  501    0  0.41691477287E+02 -0.35097291643E+02  0.15747872979E+03  0.23995836271E+03  0.17265707729E+03 0.  0.
         24    2    5    5    0    0  0.44417730667E+01  0.30587411575E+02  0.27383571337E+02  0.89462977552E+02  0.79362744903E+02 0.  0.
          5    1    5    5  501    0  0.37249704220E+02 -0.65684703218E+02  0.13009515845E+03  0.15049538516E+03  0.47000000000E+01 0. -1.
        -11    1    6    6    0    0 -0.21572978345E+02  0.15426102123E+02 -0.20072519024E+02  0.33260547821E+02  0.00000000000E+00 0.  1.
         12    1    6    6    0    0  0.26014751412E+02  0.15161309452E+02  0.47456090361E+02  0.56202429731E+02  0.00000000000E+00 0. -1.
         -5    1    3    3    0  503 -0.87613332278E+00  0.31108739143E+02 -0.42510307103E+02  0.52893643008E+02  0.47000000000E+01 0.  1.
         11    1    4    4    0    0 -0.61457426748E+02 -0.13622925162E+02  0.89828519269E+02  0.10968938995E+03  0.00000000000E+00 0. -1.
        -12    1    4    4    0    0  0.20642082784E+02  0.17611477661E+02  0.27354538301E+02  0.38529605406E+02  0.00000000000E+00 0.  1.
</event>
<event>
12    1  0.1628146E-001  0.2167187E+03  0.7818608E-02  0.1136539E+00
         21   -1    0    0  503  502  0.00000000000E+00  0.00000000000E+00  0.49251272611E+03  0.49251272611E+03  0.00000000000E+00 0.  1.
         21   -1    0    0  501  503 -0.00000000000E+00 -0.00000000000E+00 -0.24623832418E+03  0.24623832418E+03  0.00000000000E+00 0.  1.
          6    2    1    2  501    0  0.13078521566E+03  0.14584615112E+02  0.41257601036E+03  0.46557856033E+03  0.17095890698E+03 0.  0.
         24    2    3    3    0    0  0.84656772521E+02 -0.51258495906E+02  0.30763007132E+03  0.33329519533E+03  0.81579555709E+02 0.  0.
         -6    2    1    2    0  502 -0.13078521566E+03 -0.14584615112E+02 -0.16630160843E+03  0.27317248996E+03  0.17219030364E+03 0.  0.
        -24    2    5    5    0    0 -0.12542701260E+02 -0.46921564314E+02 -0.72295834053E+02  0.11862105479E+03  0.80531450163E+02 0.  0.
          5    1    3    3  501    0  0.46128443142E+02  0.65843111018E+02  0.10494593904E+03  0.13228336500E+03  0.47000000000E+01 0. -1.
        -13    1    4    4    0    0  0.39920617186E+02 -0.36343788892E+01  0.35873391236E+02  0.53793722545E+02  0.00000000000E+00 0.  1.
         14    1    4    4    0    0  0.44736155335E+02 -0.47624117017E+02  0.27175668009E+03  0.27950147278E+03  0.00000000000E+00 0. -1.
         -5    1    5    5    0  502 -0.11824251440E+03  0.32336949201E+02 -0.94005774377E+02  0.15455143517E+03  0.47000000000E+01 0.  1.
         11    1    6    6    0    0 -0.19383404922E+02 -0.29238765535E+02 -0.87530688036E+02  0.94298691107E+02  0.00000000000E+00 0. -1.
        -12    1    6    6    0    0  0.68407036617E+01 -0.17682798779E+02  0.15234853983E+02  0.24322363683E+02  0.00000000000E+00 0.  1.
</event>
<event>
12    1  0.1628146E-001  0.2030116E+03  0.7818608E-02  0.1147283E+00
         21   -1    0    0  503  502  0.00000000000E+00  0.00000000000E+00  0.22979281829E+03  0.22979281829E+03  0.00000000000E+00 0. -1.
         21   -1    0    0  501  503 -0.00000000000E+00 -0.00000000000E+00 -0.11244124416E+04  0.11244124416E+04  0.00000000000E+00 0. -1.
          6    2    1    2  501    0 -0.49475666678E+02  0.93970598458E+02 -0.10682015323E+04  0.10873215755E+04  0.17301843822E+03 0.  0.
         24    2    3    3    0    0 -0.63407739330E+01  0.21228797944E+02 -0.22166365344E+03  0.23655694362E+03  0.79583572679E+02 0.  0.
         -6    2    1    2    0  502  0.49475666678E+02 -0.93970598458E+02  0.17358190900E+03  0.26688368439E+03  0.17267862316E+03 0.  0.
        -24    2    5    5    0    0 -0.19830231585E+02 -0.98860276899E+01  0.40608379728E+02  0.94902371273E+02  0.82864032854E+02 0.  0.
          5    1    3    3  501    0 -0.43134892745E+02  0.72741800514E+02 -0.84653787883E+03  0.85076463185E+03  0.47000000000E+01 0. -1.
        -11    1    4    4    0    0  0.89302479546E+01  0.45996769495E+02 -0.17816656538E+03  0.18422480058E+03  0.00000000000E+00 0.  1.
         12    1    4    4    0    0 -0.15271021888E+02 -0.24767971551E+02 -0.43497088065E+02  0.52332143032E+02  0.00000000000E+00 0. -1.
         -5    1    5    5    0  502  0.69305898263E+02 -0.84084570768E+02  0.13297352927E+03  0.17198131312E+03  0.47000000000E+01 0.  1.
         11    1    6    6    0    0  0.25797896035E+02  0.18632910379E+02  0.17771163492E+02  0.36449019752E+02  0.00000000000E+00 0. -1.
        -12    1    6    6    0    0 -0.45628127620E+02 -0.28518938068E+02  0.22837216235E+02  0.58453351521E+02  0.00000000000E+00 0.  1.
</event>
<event>
12    1  0.1628146E-001  0.1896755E+03  0.7818608E-02  0.1159125E+00
         21   -1    0    0  501  502  0.00000000000E+00  0.00000000000E+00  0.13091439752E+03  0.13091439752E+03  0.00000000000E+00 0. -1.
         21   -1    0    0  502  503 -0.00000000000E+00 -0.00000000000E+00 -0.43578179845E+03  0.43578179845E+03  0.00000000000E+00 0. -1.
         -6    2    1    2    0  503  0.12769087277E+02 -0.75900603684E+02 -0.32548864290E+03  0.37590307113E+03  0.17157013434E+03 0.  0.
        -24    2    3    3    0    0 -0.45716065739E+02 -0.78846334571E+02 -0.26456724223E+03  0.29127034984E+03  0.80844838367E+02 0.  0.
          6    2    1    2  501    0 -0.12769087277E+02  0.75900603684E+02  0.20621241967E+02  0.19079312485E+03  0.17335751971E+03 0.  0.
         24    2    5    5    0    0  0.30656842443E+02 -0.81108210308E+00  0.41873415021E+02  0.99995333207E+02  0.85470368754E+02 0.  0.
          5    1    5    5  501    0 -0.43425929719E+02  0.76711685788E+02 -0.21252173053E+02  0.90797791646E+02  0.47000000000E+01 0. -1.
        -13    1    6    6    0    0 -0.29441040547E+02 -0.23251923091E+01  0.64867546953E+01  0.30236722280E+02  0.00000000000E+00 0.  1.
         14    1    6    6    0    0  0.60097882989E+02  0.15141102060E+01  0.35386660325E+02  0.69758610927E+02  0.00000000000E+00 0. -1.
         -5    1    3    3    0  503  0.58485153016E+02  0.29457308862E+01 -0.60921400664E+02  0.84632721288E+02  0.47000000000E+01 0.  1.
         11    1    4    4    0    0 -0.30931042682E+01 -0.47250596996E+02 -0.44788783390E+02  0.65178380833E+02  0.00000000000E+00 0. -1.
        -12    1    4    4    0    0 -0.42622961471E+02 -0.31595737575E+02 -0.21977845884E+03  0.22609196901E+03  0.00000000000E+00 0.  1.
</event>
<event>
12    1  0.1628146E-001  0.1759094E+03  0.7818608E-02  0.1171926E+00
         21   -1    0    0  503  502  0.00000000000E+00  0.00000000000E+00  0.12487262763E+02  0.12487262763E+02  0.00000000000E+00 0.  1.
         21   -1    0    0  501  503 -0.00000000000E+00 -0.00000000000E+00 -0.24730345542E+04  0.24730345542E+04  0.00000000000E+00 0.  1.
          6    2    1    2  501    0 -0.18554444324E+02  0.33594293712E+02 -0.12085774248E+04  0.12213122131E+04  0.17167203076E+03 0.  0.
         24    2    3    3    0    0 -0.21780193000E+02 -0.33054217716E+02 -0.38461025936E+03  0.39463427746E+03  0.79020271013E+02 0.  0.
         -6    2    1    2    0  502  0.18554444324E+02 -0.33594293712E+02 -0.12519698666E+04  0.12642096038E+04  0.17124407018E+03 0.  0.
        -24    2    5    5    0    0 -0.34965070830E+02 -0.69297662377E+02 -0.73309086950E+03  0.74133622273E+03  0.78309961018E+02 0.  0.
          5    1    3    3  501    0  0.32257486756E+01  0.66648511428E+02 -0.82396716545E+03  0.82667793563E+03  0.47000000000E+01 0. -1.
        -11    1    4    4    0    0 -0.34608095813E+02 -0.53612063834E+02 -0.29348922178E+03  0.30034629511E+03  0.00000000000E+00 0.  1.
         12    1    4    4    0    0  0.12827902813E+02  0.20557846118E+02 -0.91121037573E+02  0.94287982352E+02  0.00000000000E+00 0. -1.
         -5    1    5    5    0  502  0.53519515155E+02  0.35703368665E+02 -0.51887899712E+03  0.52287338112E+03  0.47000000000E+01 0.  1.
         11    1    6    6    0    0 -0.15734040336E+02 -0.19280557038E+02 -0.47229862133E+02  0.53385014583E+02  0.00000000000E+00 0. -1.
        -12    1    6    6    0    0 -0.19231030495E+02 -0.50017105339E+02 -0.68586100737E+03  0.68795120814E+03  0.00000000000E+00 0.  1.
</event>
<event>
12    1  0.1628146E-001  0.2026392E+03  0.7818608E-02  0.1148271E+00
         21   -1    0    0  503  502  0.00000000000E+00  0.00000000000E+00  0.10132170804E+03  0.10132170804E+03  0.00000000000E+00 0. -1.
         21   -1    0    0  501  503 -0.00000000000E+00 -0.00000000000E+00 -0.46523135583E+03  0.46523135583E+03  0.00000000000E+00 0.  1.
          6    2    1    2  501    0  0.76790709296E+02 -0.55367779690E+02 -0.73088308261E+02  0.21209617648E+03  0.17515845172E+03 0.  0.
         24    2    3    3    0    0  0.66415069428E+01 -0.70799778771E+02 -0.87184745373E+02  0.13874866987E+03  0.81199108837E+02 0.  0.
         -6    2    1    2    0  502 -0.76790709296E+02  0.55367779690E+02 -0.29082133953E+03  0.35445688739E+03  0.17916536894E+03 0.  0.
        -24    2    5    5    0    0 -0.18838811877E+02 -0.38301162864E+02 -0.15659256728E+03  0.18075672471E+03  0.79560552359E+02 0.  0.
          5    1    3    3  501    0  0.70149202353E+02  0.15431999081E+02  0.14096437112E+02  0.73347506608E+02  0.47000000000E+01 0. -1.
        -11    1    4    4    0    0 -0.10113149161E+02  0.10024703794E+02 -0.42636933984E+02  0.44951958931E+02  0.00000000000E+00 0.  1.
         12    1    4    4    0    0  0.16754656104E+02 -0.80824482565E+02 -0.44547811389E+02  0.93796710937E+02  0.00000000000E+00 0. -1.
         -5    1    5    5    0  502 -0.57951897418E+02  0.93668942554E+02 -0.13422877225E+03  0.17370016268E+03  0.47000000000E+01 0.  1.
         11    1    6    6    0    0  0.11017275948E+02  0.23400203315E+01  0.43687086704E+01  0.12080632431E+02  0.00000000000E+00 0. -1.
        -12    1    6    6    0    0 -0.29856087826E+02 -0.40641183196E+02 -0.16096127595E+03  0.16867609228E+03  0.00000000000E+00 0.  1.
</event>
<event>
12    1  0.1628146E-001  0.1904965E+03  0.7818608E-02  0.1158796E+00
         21   -1    0    0  501  502  0.00000000000E+00  0.00000000000E+00  0.28841330730E+03  0.28841330730E+03  0.00000000000E+00 0.  1.
         21   -1    0    0  502  503 -0.00000000000E+00 -0.00000000000E+00 -0.23707308250E+03  0.23707308250E+03  0.00000000000E+00 0. -1.
         -6    2    1    2    0  503 -0.60977281206E+02 -0.52608609485E+02 -0.15601318151E+03  0.24622960481E+03  0.17263548554E+03 0.  0.
        -24    2    3    3    0    0 -0.72263331404E+02  0.25903811929E+02 -0.75220147764E+02  0.13291067636E+03  0.78193226829E+02 0.  0.
          6    2    1    2  501    0  0.60977281206E+02  0.52608609485E+02  0.20735340631E+03  0.27925678499E+03  0.16882838102E+03 0.  0.
         24    2    5    5    0    0 -0.20740105421E+02  0.43594428370E+01  0.14370993084E+03  0.16489641017E+03  0.78032846598E+02 0.  0.
          5    1    5    5  501    0  0.81717386627E+02  0.48249166648E+02  0.63643475465E+02  0.11436037482E+03  0.47000000000E+01 0. -1.
        -11    1    6    6    0    0 -0.26365181214E+02  0.37295920238E+02  0.99480524180E+02  0.10946452913E+03  0.00000000000E+00 0.  1.
         12    1    6    6    0    0  0.56250757931E+01 -0.32936477401E+02  0.44229406665E+02  0.55431881036E+02  0.00000000000E+00 0. -1.
         -5    1    3    3    0  503  0.11286050198E+02 -0.78512421413E+02 -0.80793033742E+02  0.11331892846E+03  0.47000000000E+01 0.  1.
         11    1    4    4    0    0 -0.10324901215E+02  0.21127455825E+02 -0.66055043675E+02  0.70115916664E+02  0.00000000000E+00 0. -1.
        -12    1    4    4    0    0 -0.61938430189E+02  0.47763561036E+01 -0.91651040889E+01  0.62794759693E+02  0.00000000000E+00 0.  1.
</event>
<event>
12    1  0.1628146E-001  0.1865180E+03  0.7818608E-02  0.1164959E+00
         21   -1    0    0  503  502  0.00000000000E+00  0.00000000000E+00  0.22887550345E+03  0.22887550345E+03  0.00000000000E+00 0.  1.
         21   -1    0    0  501  503 -0.00000000000E+00 -0.00000000000E+00 -0.17249558211E+03  0.17249558211E+03  0.00000000000E+00 0.  1.
          6    2    1    2  501    0 -0.55496523990E+02 -0.50009779605E+02 -0.56671001291E+02  0.19493735036E+03  0.17090385000E+03 0.  0.
         24    2    3    3    0    0 -0.97468098858E+02 -0.75676718986E+01 -0.50341246541E+02  0.13472853540E+03  0.77847525293E+02 0.  0.
         -6    2    1    2    0  502  0.55496523990E+02  0.50009779605E+02  0.11305092263E+03  0.20643373520E+03  0.15573546061E+03 0.  0.
        -24    2    5    5    0    0  0.22208727150E+01  0.20406855007E+02  0.12060946882E+03  0.14483950021E+03  0.77527187786E+02 0.  0.
          5    1    3    3  501    0  0.41971574868E+02 -0.42442107706E+02 -0.63297547504E+01  0.60208814958E+02  0.47000000000E+01 0. -1.
        -13    1    4    4    0    0 -0.36535383620E+02 -0.28270281919E+02 -0.53016591597E+02  0.70319286690E+02  0.00000000000E+00 0.  1.
         14    1    4    4    0    0 -0.60932715238E+02  0.20702610021E+02  0.26753450561E+01  0.64409248708E+02  0.00000000000E+00 0. -1.
         -5    1    5    5    0  502  0.53275651275E+02  0.29602924598E+02 -0.75585461914E+01  0.61594234991E+02  0.47000000000E+01 0.  1.
         13    1    6    6    0    0  0.18534522535E+01  0.43983460276E+02  0.35585889323E+02  0.56606851016E+02  0.00000000000E+00 0. -1.
        -14    1    6    6    0    0  0.36742046149E+00 -0.23576605269E+02  0.85023579496E+02  0.88232649196E+02  0.00000000000E+00 0.  1.
</event>
<event>
12    1  0.1628146E-001  0.1872516E+03  0.7818608E-02  0.1163080E+00
         21   -1    0    0  503  502  0.00000000000E+00  0.00000000000E+00  0.10569993596E+04  0.10569993596E+04  0.00000000000E+00 0. -1.
         21   -1    0    0  501  503 -0.00000000000E+00 -0.00000000000E+00 -0.42526618853E+02  0.42526618853E+02  0.00000000000E+00 0. -1.
          6    2    1    2  501    0  0.19910639192E+01  0.73607712331E+02  0.21940592668E+03  0.28270628563E+03  0.16236324590E+03 0.  0.
         24    2    3    3    0    0  0.45620669344E+02  0.15050741901E+02  0.97967774636E+02  0.14092555341E+03  0.89188320054E+02 0.  0.
         -6    2    1    2    0  502 -0.19910639192E+01 -0.73607712331E+02  0.79506681409E+03  0.81681969284E+03  0.17216594352E+03 0.  0.
        -24    2    5    5    0    0  0.48619730397E+02 -0.91276419086E+02  0.51287760596E+03  0.52954547736E+03  0.81729499155E+02 0.  0.
          5    1    3    3  501    0 -0.43629605425E+02  0.58556970430E+02  0.12143815204E+03  0.14178073221E+03  0.47000000000E+01 0. -1.
        -13    1    4    4    0    0  0.14255961030E+02 -0.35803461183E+02  0.22342048010E+02  0.44545340574E+02  0.00000000000E+00 0.  1.
         14    1    4    4    0    0  0.31364708314E+02  0.50854203084E+02  0.75625726626E+02  0.96380212838E+02  0.00000000000E+00 0. -1.
         -5    1    5    5    0  502 -0.50610794316E+02  0.17668706755E+02  0.28218920812E+03  0.28727421548E+03  0.47000000000E+01 0.  1.
         13    1    6    6    0    0  0.50021262190E+00 -0.79356048182E+02  0.36675914544E+03  0.37524645683E+03  0.00000000000E+00 0. -1.
        -14    1    6    6    0    0  0.48119517775E+02 -0.11920370904E+02  0.14611846052E+03  0.15429902054E+03  0.00000000000E+00 0.  1.
</event>
<event>
12    1  0.1628146E-001  0.2809549E+03  0.7818608E-02  0.1095211E+00
         21   -1    0    0  501  502  0.00000000000E+00  0.00000000000E+00  0.12005635026E+03  0.12005635026E+03  0.00000000000E+00 0. -1.
         21   -1    0    0  502  503 -0.00000000000E+00 -0.00000000000E+00 -0.66620984271E+03  0.66620984271E+03  0.00000000000E+00 0. -1.
         -6    2    1    2    0  503  0.65998717464E+02 -0.21167117720E+03 -0.22608609625E+03  0.36038029963E+03  0.17204220261E+03 0.  0.
        -24    2    3    3    0    0  0.27432824953E+02 -0.18512803317E+03 -0.10223704915E+03  0.22789428894E+03  0.80364445871E+02 0.  0.
          6    2    1    2  501    0 -0.65998717464E+02  0.21167117720E+03 -0.32006739620E+03  0.42588589335E+03  0.17255473937E+03 0.  0.
         24    2    5    5    0    0 -0.55270783145E+01  0.59073493670E+02 -0.19833740900E+03  0.22147661776E+03  0.78701576601E+02 0.  0.
          5    1    5    5  501    0 -0.60471639149E+02  0.15259768353E+03 -0.12172998720E+03  0.20440927558E+03  0.47000000000E+01 0. -1.
        -13    1    6    6    0    0  0.19782939356E+02  0.68611890072E+02 -0.13917338105E+03  0.15642309977E+03  0.00000000000E+00 0.  1.
         14    1    6    6    0    0 -0.25310017671E+02 -0.95383964027E+01 -0.59164027951E+02  0.65053517998E+02  0.00000000000E+00 0. -1.
         -5    1    3    3    0  503  0.38565892511E+02 -0.26543144025E+02 -0.12384904710E+03  0.13248601069E+03  0.47000000000E+01 0.  1.
         11    1    4    4    0    0  0.47821103919E+02 -0.14343986227E+03 -0.52967133954E+02  0.16021039088E+03  0.00000000000E+00 0. -1.
        -12    1    4    4    0    0 -0.20388278966E+02 -0.41688170908E+02 -0.49269915197E+02  0.67683898058E+02  0.00000000000E+00 0.  1.
</event>
<event>
12    1  0.1628146E-001  0.3113674E+03  0.7818608E-02  0.1079748E+00
         21   -1    0    0  503  502  0.00000000000E+00  0.00000000000E+00  0.33897348238E+03  0.33897348238E+03  0.00000000000E+00 0.  1.
         21   -1    0    0  501  503 -0.00000000000E+00 -0.00000000000E+00 -0.35388508432E+03  0.35388508432E+03  0.00000000000E+00 0. -1.
          6    2    1    2  501    0 -0.41480711586E+01 -0.25978706479E+03 -0.15964893268E+03  0.34949500713E+03  0.17074089369E+03 0.  0.
         24    2    3    3    0    0 -0.14532191134E+02 -0.82068595972E+02 -0.80487451925E+01  0.11562241157E+03  0.79732808399E+02 0.  0.
         -6    2    1    2    0  502  0.41480711586E+01  0.25978706479E+03  0.14473733073E+03  0.34336355957E+03  0.17158995776E+03 0.  0.
        -24    2    5    5    0    0 -0.28876433850E+02  0.17031016826E+03  0.15766760638E+03  0.24699958823E+03  0.79437526633E+02 0.  0.
          5    1    3    3  501    0  0.10384119975E+02 -0.17771846882E+03 -0.15160018749E+03  0.23387259556E+03  0.47000000000E+01 0. -1.
        -11    1    4    4    0    0 -0.22701332795E+02 -0.67629950528E+02 -0.38412198648E+02  0.81022575398E+02  0.00000000000E+00 0.  1.
         12    1    4    4    0    0  0.81691416612E+01 -0.14438645444E+02  0.30363453455E+02  0.34599836177E+02  0.00000000000E+00 0. -1.
         -5    1    5    5    0  502  0.33024505008E+02  0.89476896529E+02 -0.12930275649E+02  0.96363971337E+02  0.47000000000E+01 0.  1.
         11    1    6    6    0    0 -0.34564522581E+02  0.27868118018E+02  0.58065342908E+02  0.73095295814E+02  0.00000000000E+00 0. -1.
        -12    1    6    6    0    0  0.56880887313E+01  0.14244205024E+03  0.99602263476E+02  0.17390429241E+03  0.00000000000E+00 0.  1.
</event>
<event>
12    1  0.1628146E-001  0.1848560E+03  0.7818608E-02  0.1166233E+00
         21   -1    0    0  503  502  0.00000000000E+00  0.00000000000E+00  0.13535369445E+03  0.13535369445E+03  0.00000000000E+00 0.  1.
         21   -1    0    0  501  503 -0.00000000000E+00 -0.00000000000E+00 -0.44525933822E+03  0.44525933822E+03  0.00000000000E+00 0.  1.
          6    2    1    2  501    0  0.58775841631E+02  0.28828881535E+02 -0.35121385567E+03  0.39119787185E+03  0.15937031893E+03 0.  0.
         24    2    3    3    0    0  0.14854505217E+02  0.39439502640E+02 -0.94719952720E+02  0.13071201557E+03  0.79609238641E+02 0.  0.
         -6    2    1    2    0  502 -0.58775841631E+02 -0.28828881535E+02  0.41308211894E+02  0.18941516082E+03  0.17287576698E+03 0.  0.
        -24    2    5    5    0    0 -0.82247217959E+02 -0.45929673947E+02 -0.17116827813E+02  0.12400172281E+03  0.78799122162E+02 0.  0.
          5    1    3    3  501    0  0.43921336413E+02 -0.10610621106E+02 -0.25649390295E+03  0.26048585628E+03  0.47000000000E+01 0. -1.
        -13    1    4    4    0    0  0.46961678510E+02  0.28039109921E+02 -0.47235851187E+02  0.72269056802E+02  0.00000000000E+00 0.  1.
         14    1    4    4    0    0 -0.32107173293E+02  0.11400392719E+02 -0.47484101532E+02  0.58442958766E+02  0.00000000000E+00 0. -1.
         -5    1    5    5    0  502  0.23471376328E+02  0.17100792413E+02  0.58425039708E+02  0.65413438013E+02  0.47000000000E+01 0.  1.
         13    1    6    6    0    0 -0.26071209933E+02 -0.21070848851E+02 -0.45349719332E+02  0.56394021866E+02  0.00000000000E+00 0. -1.
        -14    1    6    6    0    0 -0.56176008026E+02 -0.24858825096E+02  0.28232891519E+02  0.67607700940E+02  0.00000000000E+00 0.  1.
</event>
<event>
12    1  0.1628146E-001  0.2029976E+03  0.7818608E-02  0.1147304E+00
         21   -1    0    0  501  502  0.00000000000E+00  0.00000000000E+00  0.54856180174E+03  0.54856180174E+03  0.00000000000E+00 0. -1.
         21   -1    0    0  502  503 -0.00000000000E+00 -0.00000000000E+00 -0.93085864527E+02  0.93085864527E+02  0.00000000000E+00 0.  1.
         -6    2    1    2    0  503 -0.55818535071E+02 -0.91868014869E+02  0.86155890636E+02  0.22021520865E+03  0.17180354949E+03 0.  0.
        -24    2    3    3    0    0 -0.31918423498E+02 -0.56419477817E+02  0.12546188854E+03  0.16194973360E+03  0.79278543767E+02 0.  0.
          6    2    1    2  501    0  0.55818535071E+02  0.91868014869E+02  0.36932004658E+03  0.42143245762E+03  0.17219924075E+03 0.  0.
         24    2    5    5    0    0 -0.14761265354E+02  0.28758733577E+02  0.79523450695E+02  0.11652518220E+03  0.78798344940E+02 0.  0.
          5    1    5    5  501    0  0.70579800425E+02  0.63109281292E+02  0.28979659589E+03  0.30490727541E+03  0.47000000000E+01 0. -1.
        -13    1    6    6    0    0 -0.80054292056E+01  0.56249884532E+02  0.54856580210E+02  0.78977090342E+02  0.00000000000E+00 0.  1.
         14    1    6    6    0    0 -0.67558361489E+01 -0.27491150955E+02  0.24666870485E+02  0.37548091861E+02  0.00000000000E+00 0. -1.
         -5    1    3    3    0  503 -0.23900111572E+02 -0.35448537052E+02 -0.39305997901E+02  0.58265475054E+02  0.47000000000E+01 0.  1.
         11    1    4    4    0    0 -0.40623783564E+02 -0.70566723337E+01  0.21422298650E+02  0.46465076078E+02  0.00000000000E+00 0. -1.
        -12    1    4    4    0    0  0.87053600651E+01 -0.49362805483E+02  0.10403958989E+03  0.11548465752E+03  0.00000000000E+00 0.  1.
</event>
<event>
12    1  0.1628146E-001  0.1858722E+03  0.7818608E-02  0.1162967E+00
         21   -1    0    0  501  502  0.00000000000E+00  0.00000000000E+00  0.62731366430E+03  0.62731366430E+03  0.00000000000E+00 0. -1.
         21   -1    0    0  502  503 -0.00000000000E+00 -0.00000000000E+00 -0.55490342275E+02  0.55490342275E+02  0.00000000000E+00 0. -1.
         -6    2    1    2    0  503 -0.40136115676E+01  0.67807519864E+02  0.33652229008E+03  0.38294560842E+03  0.16966472366E+03 0.  0.
        -24    2    3    3    0    0 -0.43876242353E+02  0.81644536071E+02  0.16032595511E+03  0.20170617891E+03  0.79937574480E+02 0.  0.
          6    2    1    2  501    0  0.40136115676E+01 -0.67807519864E+02  0.23530103195E+03  0.29985839816E+03  0.17301593709E+03 0.  0.
         24    2    5    5    0    0  0.24566450492E+02  0.19902563124E+02  0.68028146736E+02  0.10981159874E+03  0.80194363647E+02 0.  0.
          5    1    5    5  501    0 -0.20552838924E+02 -0.87710082987E+02  0.16727288521E+03  0.19004679942E+03  0.47000000000E+01 0. -1.
        -11    1    6    6    0    0  0.43697355444E+02 -0.13185597231E+02  0.49516711831E+02  0.67344068764E+02  0.00000000000E+00 0.  1.
         12    1    6    6    0    0 -0.19130904952E+02  0.33088160355E+02  0.18511434905E+02  0.42467529975E+02  0.00000000000E+00 0. -1.
         -5    1    3    3    0  503  0.39862630786E+02 -0.13837016208E+02  0.17619633497E+03  0.18123942951E+03  0.47000000000E+01 0.  1.
         11    1    4    4    0    0 -0.21108597755E+02  0.35997403240E+02  0.14118533566E+03  0.14722324865E+03  0.00000000000E+00 0. -1.
        -12    1    4    4    0    0 -0.22767644598E+02  0.45647132832E+02  0.19140619459E+02  0.54482930259E+02  0.00000000000E+00 0.  1.
</event>
<event>
12    1  0.1628146E-001  0.2562300E+03  0.7818608E-02  0.1109660E+00
         21   -1    0    0  503  502  0.00000000000E+00  0.00000000000E+00  0.15627301854E+03  0.15627301854E+03  0.00000000000E+00 0. -1.
         21   -1    0    0  501  503 -0.00000000000E+00 -0.00000000000E+00 -0.87567650900E+03  0.87567650900E+03  0.00000000000E+00 0. -1.
          6    2    1    2  501    0 -0.56110966546E+02 -0.18191209331E+03 -0.73235547726E+03  0.77539234593E+03  0.16925807161E+03 0.  0.
         24    2    3    3    0    0 -0.99163620670E+02 -0.95863404473E+02 -0.45769448629E+03  0.48432764894E+03  0.77883327898E+02 0.  0.
         -6    2    1    2    0  502  0.56110966546E+02  0.18191209331E+03  0.12951986795E+02  0.25655718161E+03  0.17150330381E+03 0.  0.
        -24    2    5    5    0    0  0.61131694707E+02  0.76656630639E+02 -0.44139767853E+02  0.13661770279E+03  0.84277841036E+02 0.  0.
          5    1    3    3  501    0  0.43052654124E+02 -0.86048688835E+02 -0.27466099097E+03  0.29106469699E+03  0.47000000000E+01 0. -1.
        -13    1    4    4    0    0 -0.36293001728E+02 -0.59788534197E+02 -0.11959471467E+03  0.13854510664E+03  0.00000000000E+00 0.  1.
         14    1    4    4    0    0 -0.62870618942E+02 -0.36074870276E+02 -0.33809977162E+03  0.34578254230E+03  0.00000000000E+00 0. -1.
         -5    1    5    5    0  502 -0.50207281606E+01  0.10525546267E+03  0.57091754648E+02  0.11993947883E+03  0.47000000000E+01 0.  1.
         13    1    6    6    0    0  0.31723061980E+02  0.39626956125E+02  0.21991238887E+02  0.55319642993E+02  0.00000000000E+00 0. -1.
        -14    1    6    6    0    0  0.29408632727E+02  0.37029674515E+02 -0.66131006741E+02  0.81298059793E+02  0.00000000000E+00 0.  1.
</event>
<event>
12    1  0.1628146E-001  0.2230988E+03  0.7818608E-02  0.1133599E+00
         21   -1    0    0  503  502  0.00000000000E+00  0.00000000000E+00  0.19983005469E+03  0.19983005469E+03  0.00000000000E+00 0.  1.
         21   -1    0    0  501  503 -0.00000000000E+00 -0.00000000000E+00 -0.24571559112E+03  0.24571559112E+03  0.00000000000E+00 0.  1.
          6    2    1    2  501    0  0.12139041918E+03 -0.29934117562E+02  0.18808209628E+02  0.21325630748E+03  0.17173473343E+03 0.  0.
         24    2    3    3    0    0  0.11715969419E+03 -0.71390049540E+02 -0.14040745726E+02  0.15998683031E+03  0.81090752968E+02 0.  0.
         -6    2    1    2    0  502 -0.12139041918E+03  0.29934117562E+02 -0.64693746065E+02  0.23228933833E+03  0.18477383651E+03 0.  0.
        -24    2    5    5    0    0 -0.57339439138E+02  0.78711626043E+02  0.46692950508E+01  0.12591690369E+03  0.79686466627E+02 0.  0.
          5    1    3    3  501    0  0.42307249973E+01  0.41455931977E+02  0.32848955354E+02  0.53269477170E+02  0.47000000000E+01 0. -1.
        -13    1    4    4    0    0  0.49891281049E+02  0.11223544831E+02 -0.15515449896E+02  0.53440032455E+02  0.00000000000E+00 0.  1.
         14    1    4    4    0    0  0.67268413137E+02 -0.82613594370E+02  0.14747041691E+01  0.10654679785E+03  0.00000000000E+00 0. -1.
         -5    1    5    5    0  502 -0.64050980045E+02 -0.48777508480E+02 -0.69363041116E+02  0.10637243464E+03  0.47000000000E+01 0.  1.
         11    1    6    6    0    0 -0.23874233672E+02  0.51199522643E+02 -0.35596266130E+02  0.66771732901E+02  0.00000000000E+00 0. -1.
        -12    1    6    6    0    0 -0.33465205466E+02  0.27512103400E+02  0.40265561180E+02  0.59145170788E+02  0.00000000000E+00 0.  1.
</event>
<event>
12    1  0.1628146E-001  0.2355208E+03  0.7818608E-02  0.1122922E+00
         21   -1    0    0  503  502  0.00000000000E+00  0.00000000000E+00  0.11831350726E+04  0.11831350726E+04  0.00000000000E+00 0. -1.
         21   -1    0    0  501  503 -0.00000000000E+00 -0.00000000000E+00 -0.71871178794E+02  0.71871178794E+02  0.00000000000E+00 0.  1.
          6    2    1    2  501    0  0.91206540976E+02 -0.13233530128E+03  0.18421645608E+03  0.29850899216E+03  0.17129112828E+03 0.  0.
         24    2    3    3    0    0  0.12417663891E+03 -0.91109527708E+02  0.17087625220E+03  0.24385880640E+03  0.80917490068E+02 0.  0.
         -6    2    1    2    0  502 -0.91206540976E+02  0.13233530128E+03  0.92704743775E+03  0.95649725926E+03  0.17215919973E+03 0.  0.
        -24    2    5    5    0    0 -0.56786831969E+02  0.15706998756E+03  0.65519859052E+03  0.68132384700E+03  0.83792996085E+02 0.  0.
          5    1    3    3  501    0 -0.32970097936E+02 -0.41225773569E+02  0.13340203873E+02  0.54650185760E+02  0.47000000000E+01 0. -1.
        -13    1    4    4    0    0  0.42844102703E+02  0.30287724860E+01  0.17519824919E+02  0.46386796229E+02  0.00000000000E+00 0.  1.
         14    1    4    4    0    0  0.81332536208E+02 -0.94138300194E+02  0.15335642729E+03  0.19747201017E+03  0.00000000000E+00 0. -1.
         -5    1    5    5    0  502 -0.34419709007E+02 -0.24734686288E+02  0.27184884723E+03  0.27517341226E+03  0.47000000000E+01 0.  1.
         13    1    6    6    0    0 -0.67093896293E+02  0.68282506233E+02  0.38507881349E+03  0.39679942562E+03  0.00000000000E+00 0. -1.
        -14    1    6    6    0    0  0.10307064324E+02  0.88787481331E+02  0.27011977703E+03  0.28452442137E+03  0.00000000000E+00 0.  1.
</event>
<event>
12    1  0.1628146E-001  0.1929083E+03  0.7818608E-02  0.1155996E+00
         21   -1    0    0  503  502  0.00000000000E+00  0.00000000000E+00  0.82644051521E+03  0.82644051521E+03  0.00000000000E+00 0. -1.
         21   -1    0    0  501  503 -0.00000000000E+00 -0.00000000000E+00 -0.19253033717E+03  0.19253033717E+03  0.00000000000E+00 0.  1.
          6    2    1    2  501    0  0.76262251534E+02  0.38666714010E+02 -0.12931430544E+03  0.23174456192E+03  0.17225651398E+03 0.  0.
         24    2    3    3    0    0  0.10588474540E+02  0.37777348132E+02 -0.32340005937E+01  0.89504731962E+02  0.80382799520E+02 0.  0.
         -6    2    1    2    0  502 -0.76262251534E+02 -0.38666714010E+02  0.76322448348E+03  0.78722629045E+03  0.17292360863E+03 0.  0.
        -24    2    5    5    0    0 -0.11119891774E+03 -0.61014258162E+02  0.55979800054E+03  0.57956212086E+03  0.80190470236E+02 0.  0.
          5    1    3    3  501    0  0.65673776994E+02  0.88936587828E+00 -0.12608030485E+03  0.14223982996E+03  0.47000000000E+01 0. -1.
        -11    1    4    4    0    0  0.94011778319E+01 -0.23756349157E+02 -0.10317000485E+02  0.27553344060E+02  0.00000000000E+00 0.  1.
         12    1    4    4    0    0  0.11872967079E+01  0.61533697289E+02  0.70829998911E+01  0.61951387902E+02  0.00000000000E+00 0. -1.
         -5    1    5    5    0  502  0.34936666205E+02  0.22347544152E+02  0.20342648294E+03  0.20766416960E+03  0.47000000000E+01 0.  1.
         11    1    6    6    0    0 -0.44649468673E+02 -0.44372997321E+02  0.40999867378E+03  0.41480290554E+03  0.00000000000E+00 0. -1.
        -12    1    6    6    0    0 -0.66549449065E+02 -0.16641260841E+02  0.14979932676E+03  0.16475921532E+03  0.00000000000E+00 0.  1.
</event>
<event>
12    1  0.1628146E-001  0.1935200E+03  0.7818608E-02  0.1157317E+00
         21   -1    0    0  501  502  0.00000000000E+00  0.00000000000E+00  0.81937064711E+03  0.81937064711E+03  0.00000000000E+00 0. -1.
         21   -1    0    0  502  503 -0.00000000000E+00 -0.00000000000E+00 -0.78228111236E+02  0.78228111236E+02  0.00000000000E+00 0. -1.
         -6    2    1    2    0  503  0.43243751952E+02 -0.69313784792E+02  0.67388494118E+02  0.19660338895E+03  0.16564196498E+03 0.  0.
        -24    2    3    3    0    0  0.42020273722E+02  0.16811059022E+02  0.59975681899E+02  0.11002379894E+03  0.80373122403E+02 0.  0.
          6    2    1    2  501    0 -0.43243751952E+02  0.69313784792E+02  0.67375404175E+03  0.70099536940E+03  0.17542969045E+03 0.  0.
         24    2    5    5    0    0  0.42595022621E+02  0.25279516987E+02  0.26386648740E+03  0.27988112222E+03  0.79085583205E+02 0.  0.
          5    1    5    5  501    0 -0.85838774573E+02  0.44034267805E+02  0.40988755436E+03  0.42111424718E+03  0.47000000000E+01 0. -1.
        -11    1    6    6    0    0  0.39775239574E+02 -0.11408088593E+02  0.21368664148E+03  0.21765613917E+03  0.00000000000E+00 0.  1.
         12    1    6    6    0    0  0.28197830475E+01  0.36687605581E+02  0.50179845915E+02  0.62224983051E+02  0.00000000000E+00 0. -1.
         -5    1    3    3    0  503  0.12234782302E+01 -0.86124843814E+02  0.74128122198E+01  0.86579590009E+02  0.47000000000E+01 0.  1.
         11    1    4    4    0    0 -0.35454763241E+01 -0.28016533286E+02  0.20507741553E+02  0.34900773678E+02  0.00000000000E+00 0. -1.
        -12    1    4    4    0    0  0.45565750046E+02  0.44827592308E+02  0.39467940345E+02  0.75123025261E+02  0.00000000000E+00 0.  1.
</event>
<event>
12    1  0.1628146E-001  0.2133358E+03  0.7818608E-02  0.1140092E+00
         21   -1    0    0  503  502  0.00000000000E+00  0.00000000000E+00  0.16996372489E+03  0.16996372489E+03  0.00000000000E+00 0. -1.
         21   -1    0    0  501  503 -0.00000000000E+00 -0.00000000000E+00 -0.27834575959E+03  0.27834575959E+03  0.00000000000E+00 0.  1.
          6    2    1    2  501    0  0.71301230283E+02 -0.10026755186E+03  0.17792378457E+01  0.21334321067E+03  0.17428342566E+03 0.  0.
         24    2    3    3    0    0  0.51430988197E+02 -0.44344699048E+02 -0.65144998986E+02  0.12377125378E+03  0.80398093810E+02 0.  0.
         -6    2    1    2    0  502 -0.71301230283E+02  0.10026755186E+03 -0.11016127255E+03  0.23496627381E+03  0.16714124704E+03 0.  0.
        -24    2    5    5    0    0 -0.51303841007E+02  0.70535884769E+01 -0.85529701805E+01  0.95556533632E+02  0.79850238624E+02 0.  0.
          5    1    3    3  501    0  0.19870242085E+02 -0.55922852808E+02  0.66924236831E+02  0.89571956896E+02  0.47000000000E+01 0. -1.
        -11    1    4    4    0    0  0.22028006219E+02  0.22341504916E+02 -0.12085446107E+02  0.33621925993E+02  0.00000000000E+00 0.  1.
         12    1    4    4    0    0  0.29402981978E+02 -0.66686203964E+02 -0.53059552879E+02  0.90149327785E+02  0.00000000000E+00 0. -1.
         -5    1    5    5    0  502 -0.19997389276E+02  0.93213963379E+02 -0.10160830237E+03  0.13940974018E+03  0.47000000000E+01 0.  1.
         13    1    6    6    0    0 -0.53668778309E+02  0.35330467289E+02 -0.16007720438E+02  0.66218024719E+02  0.00000000000E+00 0. -1.
        -14    1    6    6    0    0  0.23649373022E+01 -0.28276878813E+02  0.74547502570E+01  0.29338508913E+02  0.00000000000E+00 0.  1.
</event>
<event>
12    1  0.1628146E-001  0.2492069E+03  0.7818608E-02  0.1115275E+00
         21   -1    0    0  503  502  0.00000000000E+00  0.00000000000E+00  0.95834705381E+03  0.95834705381E+03  0.00000000000E+00 0.  1.
         21   -1    0    0  501  503 -0.00000000000E+00 -0.00000000000E+00 -0.86034888502E+02  0.86034888502E+02  0.00000000000E+00 0. -1.
          6    2    1    2  501    0  0.70119428488E+02 -0.15347399508E+03  0.70356546381E+03  0.74341757952E+03  0.17086349598E+03 0.  0.
         24    2    3    3    0    0  0.48041959068E+02 -0.37469081366E+02  0.47823295278E+03  0.48897429470E+03  0.81713780158E+02 0.  0.
         -6    2    1    2    0  502 -0.70119428488E+02  0.15347399508E+03  0.16874670150E+03  0.30096436279E+03  0.18339328501E+03 0.  0.
        -24    2    5    5    0    0 -0.61500228297E+02  0.79083070084E+01  0.53205761676E+02  0.11485832063E+03  0.80726459985E+02 0.  0.
          5    1    3    3  501    0  0.22077469420E+02 -0.11600491371E+03  0.22533251104E+03  0.25444328482E+03  0.47000000000E+01 0. -1.
        -13    1    4    4    0    0  0.12164163116E+02 -0.58351807322E+02  0.25099036265E+03  0.25797104959E+03  0.00000000000E+00 0.  1.
         14    1    4    4    0    0  0.35877795952E+02  0.20882725956E+02  0.22724259013E+03  0.23100324512E+03  0.00000000000E+00 0. -1.
         -5    1    5    5    0  502 -0.86192001916E+01  0.14556568807E+03  0.11554093982E+03  0.18610604216E+03  0.47000000000E+01 0.  1.
         13    1    6    6    0    0 -0.11528284113E+02 -0.16950930592E+02 -0.15961163803E+02  0.25980649193E+02  0.00000000000E+00 0. -1.
        -14    1    6    6    0    0 -0.49971944183E+02  0.24859237600E+02  0.69166925479E+02  0.88877671435E+02  0.00000000000E+00 0.  1.
</event>
<event>
12    1  0.1628146E-001  0.2039917E+03  0.7818608E-02  0.1146612E+00
         21   -1    0    0  501  502  0.00000000000E+00  0.00000000000E+00  0.63895463100E+02  0.63895463100E+02  0.00000000000E+00 0. -1.
         21   -1    0    0  502  503 -0.00000000000E+00 -0.00000000000E+00 -0.89388275116E+03  0.89388275116E+03  0.00000000000E+00 0. -1.
         -6    2    1    2    0  503  0.30585965343E+02 -0.10623813332E+03 -0.66676023917E+03  0.69726741033E+03  0.17143681846E+03 0.  0.
        -24    2    3    3    0    0 -0.40252189977E+02 -0.96025361837E+02 -0.40922980916E+03  0.42993548681E+03  0.80835494694E+02 0.  0.
          6    2    1    2  501    0 -0.30585965343E+02  0.10623813332E+03 -0.16322704890E+03  0.26051080394E+03  0.17029611631E+03 0.  0.
         24    2    5    5    0    0  0.26543201485E+02  0.10630563377E+03 -0.73444241672E+02  0.15398949747E+03  0.79456147519E+02 0.  0.
          5    1    5    5  501    0 -0.57129166828E+02 -0.67500454380E-01 -0.89782807225E+02  0.10652130647E+03  0.47000000000E+01 0. -1.
        -11    1    6    6    0    0 -0.45202046538E+00 -0.11816911968E+02  0.85355599469E+00  0.11856318518E+02  0.00000000000E+00 0.  1.
         12    1    6    6    0    0  0.26995221951E+02  0.11812254574E+03 -0.74297797667E+02  0.14213317895E+03  0.00000000000E+00 0. -1.
         -5    1    3    3    0  503  0.70838155320E+02 -0.10212771479E+02 -0.25753043001E+03  0.26733192351E+03  0.47000000000E+01 0.  1.
         13    1    4    4    0    0  0.44279167289E+01 -0.63683856806E+02 -0.30905848955E+03  0.31558261997E+03  0.00000000000E+00 0. -1.
        -14    1    4    4    0    0 -0.44680106706E+02 -0.32341505031E+02 -0.10017131961E+03  0.11435286685E+03  0.00000000000E+00 0.  1.
</event>
<event>
12    1  0.1628146E-001  0.2627053E+03  0.7818608E-02  0.1105606E+00
         21   -1    0    0  501  502  0.00000000000E+00  0.00000000000E+00  0.19260022848E+03  0.19260022848E+03  0.00000000000E+00 0.  1.
         21   -1    0    0  502  503 -0.00000000000E+00 -0.00000000000E+00 -0.37222150586E+03  0.37222150586E+03  0.00000000000E+00 0.  1.
         -6    2    1    2    0  503  0.13063385459E+03 -0.14800095779E+03 -0.14583522244E+03  0.30046960671E+03  0.17333373873E+03 0.  0.
        -24    2    3    3    0    0 -0.43090765542E+01 -0.52818939579E+02 -0.67827304627E+02  0.11777714245E+03  0.80389697796E+02 0.  0.
          6    2    1    2  501    0 -0.13063385459E+03  0.14800095779E+03 -0.33786054936E+02  0.26435212762E+03  0.17254292914E+03 0.  0.
         24    2    5    5    0    0 -0.12032256635E+03  0.59547298086E+02 -0.66384699006E+02  0.16940406721E+03  0.79166969397E+02 0.  0.
          5    1    5    5  501    0 -0.10311288242E+02  0.88453659700E+02  0.32598644069E+02  0.94948060405E+02  0.47000000000E+01 0. -1.
        -11    1    6    6    0    0 -0.75231267776E+02  0.29007778458E+02  0.36191737460E+01  0.80711171970E+02  0.00000000000E+00 0.  1.
         12    1    6    6    0    0 -0.45091298576E+02  0.30539519628E+02 -0.70003872752E+02  0.88692895243E+02  0.00000000000E+00 0. -1.
         -5    1    3    3    0  503  0.13494293115E+03 -0.95182018207E+02 -0.78007917816E+02  0.18269246426E+03  0.47000000000E+01 0.  1.
         13    1    4    4    0    0 -0.18113734379E+02  0.17346217027E+01  0.10744889061E+02  0.21132177515E+02  0.00000000000E+00 0. -1.
        -14    1    4    4    0    0  0.13804657825E+02 -0.54553561282E+02 -0.78572193689E+02  0.96644964935E+02  0.00000000000E+00 0.  1.
</event>
<event>
12    1  0.1628146E-001  0.1946788E+03  0.7818608E-02  0.1154678E+00
         21   -1    0    0  503  502  0.00000000000E+00  0.00000000000E+00  0.29133453432E+03  0.29133453432E+03  0.00000000000E+00 0.  1.
         21   -1    0    0  501  503 -0.00000000000E+00 -0.00000000000E+00 -0.14167328565E+03  0.14167328565E+03  0.00000000000E+00 0.  1.
          6    2    1    2  501    0  0.59789862152E+02  0.63433565593E+02  0.10287825766E+02  0.19495045534E+03  0.17407238672E+03 0.  0.
         24    2    3    3    0    0  0.98754388027E+02  0.39010932403E+02  0.35010991614E+02  0.14252885466E+03  0.88399224407E+02 0.  0.
         -6    2    1    2    0  502 -0.59789862152E+02 -0.63433565593E+02  0.13937342290E+03  0.23805736462E+03  0.17218511253E+03 0.  0.
        -24    2    5    5    0    0 -0.12103742195E+02 -0.86444688860E+02  0.14144314443E+03  0.18486101533E+03  0.80921239949E+02 0.  0.
          5    1    3    3  501    0 -0.38964525875E+02  0.24422633190E+02 -0.24723165848E+02  0.52421600683E+02  0.47000000000E+01 0. -1.
        -11    1    4    4    0    0  0.59502848954E+02  0.48936945370E+01  0.60163294479E+02  0.84759420022E+02  0.00000000000E+00 0.  1.
         12    1    4    4    0    0  0.39251539073E+02  0.34117237866E+02 -0.25152302864E+02  0.57769434639E+02  0.00000000000E+00 0. -1.
         -5    1    5    5    0  502 -0.47686119957E+02  0.23011123266E+02 -0.20697215283E+01  0.53196349289E+02  0.47000000000E+01 0.  1.
         11    1    6    6    0    0  0.33141509830E+02 -0.23320313630E+02  0.38405936784E+02  0.55832004100E+02  0.00000000000E+00 0. -1.
        -12    1    6    6    0    0 -0.45245252025E+02 -0.63124375230E+02  0.10303720765E+03  0.12902901123E+03  0.00000000000E+00 0.  1.
</event>
<event>
12    1  0.1628146E-001  0.2564581E+03  0.7818608E-02  0.1109981E+00
         21   -1    0    0  501  502  0.00000000000E+00  0.00000000000E+00  0.69045417953E+03  0.69045417953E+03  0.00000000000E+00 0.  1.
         21   -1    0    0  502  503 -0.00000000000E+00 -0.00000000000E+00 -0.12662391240E+03  0.12662391240E+03  0.00000000000E+00 0.  1.
         -6    2    1    2    0  503 -0.82752663909E+02 -0.17146931713E+03  0.75125403026E+02  0.26723505426E+03  0.17181681508E+03 0.  0.
        -24    2    3    3    0    0  0.84368134377E+01 -0.12377942591E+03  0.73788513655E+02  0.16421212586E+03  0.78283787796E+02 0.  0.
          6    2    1    2  501    0  0.82752663909E+02  0.17146931713E+03  0.48870486411E+03  0.54984303767E+03  0.16506117585E+03 0.  0.
         24    2    5    5    0    0  0.28940291210E+02  0.16802796241E+03  0.32353809826E+03  0.37603347258E+03  0.87483340513E+02 0.  0.
          5    1    5    5  501    0  0.53812372699E+02  0.34413547219E+01  0.16516676584E+03  0.17380956509E+03  0.47000000000E+01 0. -1.
        -13    1    6    6    0    0  0.14746674872E+02  0.34945895319E+02  0.16138027771E+03  0.16577778516E+03  0.00000000000E+00 0.  1.
         14    1    6    6    0    0  0.14193616339E+02  0.13308206709E+03  0.16215782055E+03  0.21025568742E+03  0.00000000000E+00 0. -1.
         -5    1    3    3    0  503 -0.91189477347E+02 -0.47689891223E+02  0.13368893706E+01  0.10302292840E+03  0.47000000000E+01 0.  1.
         11    1    4    4    0    0  0.15101272259E+02 -0.13359476776E+03  0.64352687971E+02  0.14905327520E+03  0.00000000000E+00 0. -1.
        -12    1    4    4    0    0 -0.66644588209E+01  0.98153418527E+01  0.94358256846E+01  0.15158850663E+02  0.00000000000E+00 0.  1.
</event>
<event>
12    1  0.1628146E-001  0.2363142E+03  0.7818608E-02  0.1122378E+00
         21   -1    0    0  503  502  0.00000000000E+00  0.00000000000E+00  0.85510803757E+02  0.85510803757E+02  0.00000000000E+00 0. -1.
         21   -1    0    0  501  503 -0.00000000000E+00 -0.00000000000E+00 -0.65154158748E+03  0.65154158748E+03  0.00000000000E+00 0.  1.
          6    2    1    2  501    0  0.60645152956E+02  0.14856568175E+03 -0.28961893481E+03  0.37379611077E+03  0.17347855387E+03 0.  0.
         24    2    3    3    0    0  0.10527445559E+03  0.89786005015E+02 -0.19378693213E+03  0.25274782376E+03  0.84757593470E+02 0.  0.
         -6    2    1    2    0  502 -0.60645152956E+02 -0.14856568175E+03 -0.27641184891E+03  0.36325628047E+03  0.17263261195E+03 0.  0.
        -24    2    5    5    0    0 -0.57752934129E+02 -0.17597701823E+03 -0.24339945094E+03  0.31999365553E+03  0.94070901533E+02 0.  0.
          5    1    3    3  501    0 -0.44629302636E+02  0.58779676736E+02 -0.95832002680E+02  0.12104828701E+03  0.47000000000E+01 0. -1.
        -13    1    4    4    0    0  0.26439605072E+01  0.52583269348E+02 -0.54476813310E+02  0.75760899750E+02  0.00000000000E+00 0.  1.
         14    1    4    4    0    0  0.10263049509E+03  0.37202735667E+02 -0.13931011882E+03  0.17698692401E+03  0.00000000000E+00 0. -1.
         -5    1    5    5    0  502 -0.28922188275E+01  0.27411336474E+02 -0.33012397966E+02  0.43262624938E+02  0.47000000000E+01 0.  1.
         11    1    6    6    0    0 -0.63279230859E+02 -0.88050910054E+02 -0.81386966882E+02  0.13557677603E+03  0.00000000000E+00 0. -1.
        -12    1    6    6    0    0  0.55262967305E+01 -0.87926108172E+02 -0.16201248406E+03  0.18441687950E+03  0.00000000000E+00 0.  1.
</event>
<event>
12    1  0.1628146E-001  0.2111909E+03  0.7818608E-02  0.1140687E+00
         21   -1    0    0  503  502  0.00000000000E+00  0.00000000000E+00  0.34759035061E+03  0.34759035061E+03  0.00000000000E+00 0.  1.
         21   -1    0    0  501  503 -0.00000000000E+00 -0.00000000000E+00 -0.17062916265E+03  0.17062916265E+03  0.00000000000E+00 0.  1.
          6    2    1    2  501    0 -0.10168312042E+03  0.69730224465E+02 -0.40880726900E+02  0.21481107531E+03  0.17108712127E+03 0.  0.
         24    2    3    3    0    0 -0.34019288506E+02  0.10384848053E+03 -0.27632242650E+02  0.13773927839E+03  0.79162801113E+02 0.  0.
         -6    2    1    2    0  502  0.10168312042E+03 -0.69730224465E+02  0.21784191486E+03  0.30340843795E+03  0.17146375468E+03 0.  0.
        -24    2    5    5    0    0  0.12366899305E+03 -0.61333971734E+02  0.11154401351E+03  0.19443500318E+03  0.79416796588E+02 0.  0.
          5    1    3    3  501    0 -0.67663831910E+02 -0.34118256062E+02 -0.13248484249E+02  0.77071796919E+02  0.47000000000E+01 0. -1.
        -11    1    4    4    0    0 -0.44340178477E+02  0.24306759107E+02  0.56894310310E+01  0.50884571248E+02  0.00000000000E+00 0.  1.
         12    1    4    4    0    0  0.10320889971E+02  0.79541721420E+02 -0.33321673681E+02  0.86854707144E+02  0.00000000000E+00 0. -1.
         -5    1    5    5    0  502 -0.21985872632E+02 -0.83962527306E+01  0.10629790135E+03  0.10897343478E+03  0.47000000000E+01 0.  1.
         11    1    6    6    0    0  0.73053835996E+02  0.11942721082E+01  0.27426769614E+02  0.78041764018E+02  0.00000000000E+00 0. -1.
        -12    1    6    6    0    0  0.50615157053E+02 -0.62528243842E+02  0.84117243893E+02  0.11639323916E+03  0.00000000000E+00 0.  1.
</event>
<event>
12    1  0.1628146E-001  0.2187740E+03  0.7818608E-02  0.1134919E+00
         21   -1    0    0  501  502  0.00000000000E+00  0.00000000000E+00  0.20639154130E+03  0.20639154130E+03  0.00000000000E+00 0.  1.
         21   -1    0    0  502  503 -0.00000000000E+00 -0.00000000000E+00 -0.32210249397E+03  0.32210249397E+03  0.00000000000E+00 0. -1.
         -6    2    1    2    0  503  0.79989121070E+01 -0.13473420341E+03 -0.19826834887E+03  0.29524973369E+03  0.17217659224E+03 0.  0.
        -24    2    3    3    0    0  0.23045517236E+02 -0.28273676461E+02 -0.15841879943E+03  0.18048771595E+03  0.78414303235E+02 0.  0.
          6    2    1    2  501    0 -0.79989121070E+01  0.13473420341E+03  0.82557396196E+02  0.23324430158E+03  0.17137646393E+03 0.  0.
         24    2    5    5    0    0 -0.18090470198E+02  0.81125902250E+02  0.12044203378E+03  0.16666333386E+03  0.79760304820E+02 0.  0.
          5    1    5    5  501    0  0.10091558091E+02  0.53608301158E+02 -0.37884637582E+02  0.66580967720E+02  0.47000000000E+01 0. -1.
        -11    1    6    6    0    0 -0.22622684521E+02  0.59532945799E+02  0.24531460180E+02  0.68247710797E+02  0.00000000000E+00 0.  1.
         12    1    6    6    0    0  0.45322143224E+01  0.21592956451E+02  0.95910573599E+02  0.98415623064E+02  0.00000000000E+00 0. -1.
         -5    1    3    3    0  503 -0.15046605129E+02 -0.10646052695E+03 -0.39849549443E+02  0.11476201773E+03  0.47000000000E+01 0.  1.
         11    1    4    4    0    0 -0.29155792737E+02 -0.13347181541E+02 -0.54214786941E+02  0.62987702199E+02  0.00000000000E+00 0. -1.
        -12    1    4    4    0    0  0.52201309973E+02 -0.14926494919E+02 -0.10420401249E+03  0.11750001375E+03  0.00000000000E+00 0.  1.
</event>
<event>
12    1  0.1628146E-001  0.2031131E+03  0.7818608E-02  0.1147327E+00
         21   -1    0    0  501  502  0.00000000000E+00  0.00000000000E+00  0.36822689770E+03  0.36822689770E+03  0.00000000000E+00 0.  1.
         21   -1    0    0  502  503 -0.00000000000E+00 -0.00000000000E+00 -0.50571760324E+03  0.50571760324E+03  0.00000000000E+00 0.  1.
         -6    2    1    2    0  503  0.97481890245E+01  0.10495286258E+03 -0.45456620564E+03  0.49788087649E+03  0.17362258294E+03 0.  0.
        -24    2    3    3    0    0 -0.37634189179E+02  0.87001818183E+02 -0.17789152315E+03  0.21656557351E+03  0.79180837692E+02 0.  0.
          6    2    1    2  501    0 -0.97481890245E+01 -0.10495286258E+03  0.31707550010E+03  0.37606362445E+03  0.17255968914E+03 0.  0.
         24    2    5    5    0    0  0.28238176657E+01 -0.12158517086E+03  0.32300994176E+03  0.35388262742E+03  0.78144505874E+02 0.  0.
          5    1    5    5  501    0 -0.12572006690E+02  0.16632308287E+02 -0.59344416581E+01  0.22180997023E+02  0.47000000000E+01 0. -1.
        -11    1    6    6    0    0 -0.23400656145E+02 -0.44294498881E+02  0.58254965455E+02  0.76832508349E+02  0.00000000000E+00 0.  1.
         12    1    6    6    0    0  0.26224473811E+02 -0.77290671983E+02  0.26475497630E+03  0.27705011907E+03  0.00000000000E+00 0. -1.
         -5    1    3    3    0  503  0.47382378204E+02  0.17951044394E+02 -0.27667468250E+03  0.28131530298E+03  0.47000000000E+01 0.  1.
         13    1    4    4    0    0 -0.31656146309E+02  0.26194333433E+02 -0.17006418502E+02  0.44468786507E+02  0.00000000000E+00 0. -1.
        -14    1    4    4    0    0 -0.59780428699E+01  0.60807484749E+02 -0.16088510465E+03  0.17209678700E+03  0.00000000000E+00 0.  1.
</event>
<event>
12    1  0.1628146E-001  0.2010900E+03  0.7818608E-02  0.1149286E+00
         21   -1    0    0  503  502  0.00000000000E+00  0.00000000000E+00  0.13295866936E+03  0.13295866936E+03  0.00000000000E+00 0.  1.
         21   -1    0    0  501  503 -0.00000000000E+00 -0.00000000000E+00 -0.63902138157E+03  0.63902138157E+03  0.00000000000E+00 0. -1.
          6    2    1    2  501    0 -0.90097806225E+02  0.51521843356E+02 -0.53318159600E+03  0.56906971124E+03  0.16966321615E+03 0.  0.
         24    2    3    3    0    0 -0.12802532522E+02  0.76293015370E+02 -0.22737522292E+03  0.25263994318E+03  0.78376781381E+02 0.  0.
         -6    2    1    2    0  502  0.90097806225E+02 -0.51521843356E+02  0.27118883790E+02  0.20291033969E+03  0.17223546983E+03 0.  0.
        -24    2    5    5    0    0  0.59479570685E+02 -0.15348118172E+02 -0.50024488835E+02  0.11225051021E+03  0.79525741112E+02 0.  0.
          5    1    3    3  501    0 -0.77295273703E+02 -0.24771172014E+02 -0.30580637308E+03  0.31642976806E+03  0.47000000000E+01 0. -1.
        -11    1    4    4    0    0  0.14617867268E+02 -0.97928743121E+01 -0.21284752693E+02  0.27615631950E+02  0.00000000000E+00 0.  1.
         12    1    4    4    0    0 -0.27420399791E+02  0.86085889683E+02 -0.20609047022E+03  0.22502431123E+03  0.00000000000E+00 0. -1.
         -5    1    5    5    0  502  0.30618235540E+02 -0.36173725184E+02  0.77143372625E+02  0.90659829480E+02  0.47000000000E+01 0.  1.
         11    1    6    6    0    0  0.19109583670E+02 -0.43573607024E+02 -0.39594865842E+02  0.61899828903E+02  0.00000000000E+00 0. -1.
        -12    1    6    6    0    0  0.40369987015E+02  0.28225488853E+02 -0.10429622993E+02  0.50350681310E+02  0.00000000000E+00 0.  1.
</event>
<event>
12    1  0.1628146E-001  0.2028257E+03  0.7818608E-02  0.1148983E+00
         21   -1    0    0  503  502  0.00000000000E+00  0.00000000000E+00  0.11148530309E+04  0.11148530309E+04  0.00000000000E+00 0. -1.
         21   -1    0    0  501  503 -0.00000000000E+00 -0.00000000000E+00 -0.38669604715E+02  0.38669604715E+02  0.00000000000E+00 0. -1.
          6    2    1    2  501    0 -0.91440151697E+02  0.28006608614E+02  0.38323304499E+03  0.43359638498E+03  0.17886471656E+03 0.  0.
         24    2    3    3    0    0  0.19246068154E+02  0.12258088814E+02  0.21081317144E+03  0.22804795289E+03  0.83922605321E+02 0.  0.
         -6    2    1    2    0  502  0.91440151697E+02 -0.28006608614E+02  0.69295038124E+03  0.71992625068E+03  0.17019960072E+03 0.  0.
        -24    2    5    5    0    0  0.20055085020E+02  0.20483562571E+02  0.51872672300E+03  0.52544463834E+03  0.78694803110E+02 0.  0.
          5    1    3    3  501    0 -0.11068621985E+03  0.15748519801E+02  0.17241987355E+03  0.20554843209E+03  0.47000000000E+01 0. -1.
        -11    1    4    4    0    0 -0.14567554826E+02  0.34112157400E+02  0.15407208261E+03  0.15847416060E+03  0.00000000000E+00 0.  1.
         12    1    4    4    0    0  0.33813622979E+02 -0.21854068586E+02  0.56741088828E+02  0.69573792294E+02  0.00000000000E+00 0. -1.
         -5    1    5    5    0  502  0.71385066677E+02 -0.48490171185E+02  0.17422365824E+03  0.19448161234E+03  0.47000000000E+01 0.  1.
         11    1    6    6    0    0  0.40825241215E+02 -0.11084643501E+02  0.34945908336E+03  0.35201025636E+03  0.00000000000E+00 0. -1.
        -12    1    6    6    0    0 -0.20770156195E+02  0.31568206072E+02  0.16926763964E+03  0.17343438198E+03  0.00000000000E+00 0.  1.
</event>
<event>
12    1  0.1628146E-001  0.1913909E+03  0.7818608E-02  0.1159715E+00
         21   -1    0    0  503  502  0.00000000000E+00  0.00000000000E+00  0.42470676505E+03  0.42470676505E+03  0.00000000000E+00 0.  1.
         21   -1    0    0  501  503 -0.00000000000E+00 -0.00000000000E+00 -0.10129658661E+03  0.10129658661E+03  0.00000000000E+00 0.  1.
          6    2    1    2  501    0 -0.41286000758E+02  0.72864765164E+02  0.41465226114E+02  0.18523447550E+03  0.15993323006E+03 0.  0.
         24    2    3    3    0    0  0.28768987651E+02  0.24931682678E+02 -0.69040919034E+01  0.87423623739E+02  0.78396301259E+02 0.  0.
         -6    2    1    2    0  502  0.41286000758E+02 -0.72864765164E+02  0.28194495233E+03  0.34076887615E+03  0.17209492424E+03 0.  0.
        -24    2    5    5    0    0  0.62724327028E+02  0.56392062288E+01  0.11921946895E+03  0.15876846874E+03  0.83833185799E+02 0.  0.
          5    1    3    3  501    0 -0.70054988409E+02  0.47933082486E+02  0.48369318017E+02  0.97810851765E+02  0.47000000000E+01 0. -1.
        -11    1    4    4    0    0  0.68045953812E+01  0.51837720321E+02 -0.17609653119E+01  0.52312070932E+02  0.00000000000E+00 0.  1.
         12    1    4    4    0    0  0.21964392270E+02 -0.26906037643E+02 -0.51431265914E+01  0.35111552807E+02  0.00000000000E+00 0. -1.
         -5    1    5    5    0  502 -0.21438326270E+02 -0.78503971393E+02  0.16272548338E+03  0.18200040741E+03  0.47000000000E+01 0.  1.
         13    1    6    6    0    0  0.41018837253E+01 -0.15484045407E+01  0.94729505626E+02  0.94830913962E+02  0.00000000000E+00 0. -1.
        -14    1    6    6    0    0  0.58622443303E+02  0.71876107695E+01  0.24489963325E+02  0.63937554778E+02  0.00000000000E+00 0.  1.
</event>
<event>
12    1  0.1628146E-001  0.1806904E+03  0.7818608E-02  0.1167390E+00
         21   -1    0    0  503  502  0.00000000000E+00  0.00000000000E+00  0.33398541889E+03  0.33398541889E+03  0.00000000000E+00 0.  1.
         21   -1    0    0  501  503 -0.00000000000E+00 -0.00000000000E+00 -0.15284378895E+03  0.15284378895E+03  0.00000000000E+00 0. -1.
          6    2    1    2  501    0  0.53592273569E+02  0.69944913928E+01 -0.56145450781E+02  0.18921238616E+03  0.17241798264E+03 0.  0.
         24    2    3    3    0    0  0.94580556749E+02  0.24668866391E+02 -0.84691483788E+01  0.12373305584E+03  0.75393023206E+02 0.  0.
         -6    2    1    2    0  502 -0.53592273569E+02 -0.69944913928E+01  0.23728708072E+03  0.29761682168E+03  0.17131713040E+03 0.  0.
        -24    2    5    5    0    0 -0.60048507252E+02  0.27537048577E+02  0.65359998617E+02  0.12207445708E+03  0.79158899594E+02 0.  0.
          5    1    3    3  501    0 -0.40988283180E+02 -0.17674374998E+02 -0.47676302402E+02  0.65479330329E+02  0.47000000000E+01 0. -1.
        -13    1    4    4    0    0 -0.12749326644E+02 -0.13140316357E+01 -0.30239026328E+01  0.13168750744E+02  0.00000000000E+00 0.  1.
         14    1    4    4    0    0  0.10732988339E+03  0.25982898027E+02 -0.54452457460E+01  0.11056430509E+03  0.00000000000E+00 0. -1.
         -5    1    5    5    0  502  0.64562336821E+01 -0.34531539970E+02  0.17192708211E+03  0.17554236460E+03  0.47000000000E+01 0.  1.
         11    1    6    6    0    0 -0.37503112693E+02  0.25422125891E+02  0.82196748211E+02  0.93856663924E+02  0.00000000000E+00 0. -1.
        -12    1    6    6    0    0 -0.22545394559E+02  0.21149226867E+01 -0.16836749594E+02  0.28217793157E+02  0.00000000000E+00 0.  1.
</event>
<event>
12    1  0.1628146E-001  0.2280079E+03  0.7818608E-02  0.1128135E+00
         21   -1    0    0  501  502  0.00000000000E+00  0.00000000000E+00  0.14204834817E+03  0.14204834817E+03  0.00000000000E+00 0. -1.
         21   -1    0    0  502  503 -0.00000000000E+00 -0.00000000000E+00 -0.44756687590E+03  0.44756687590E+03  0.00000000000E+00 0. -1.
         -6    2    1    2    0  503 -0.57767979039E+02 -0.13793556649E+03 -0.27908493042E+03  0.36008022425E+03  0.17148180545E+03 0.  0.
        -24    2    3    3    0    0  0.26020039269E+02 -0.69791866593E+02 -0.82645767227E+02  0.13586062055E+03  0.77973317799E+02 0.  0.
          6    2    1    2  501    0  0.57767979039E+02  0.13793556649E+03 -0.26433597312E+02  0.22953499983E+03  0.17211688231E+03 0.  0.
         24    2    5    5    0    0  0.10684722904E+03  0.11212087626E+03 -0.21558889090E+02  0.17366887599E+03  0.75555751218E+02 0.  0.
          5    1    5    5  501    0 -0.49079250003E+02  0.25814690236E+02 -0.48747082222E+01  0.55866123841E+02  0.47000000000E+01 0. -1.
        -11    1    6    6    0    0  0.15753185641E+02  0.26272454038E+02 -0.36451065506E+02  0.47613914727E+02  0.00000000000E+00 0.  1.
         12    1    6    6    0    0  0.91094043400E+02  0.85848422217E+02  0.14892176417E+02  0.12605496126E+03  0.00000000000E+00 0. -1.
         -5    1    3    3    0  503 -0.83788018307E+02 -0.68143699898E+02 -0.19643916319E+03  0.22421960370E+03  0.47000000000E+01 0.  1.
         11    1    4    4    0    0 -0.14691000285E+01 -0.58666885646E+02 -0.87953408500E+02  0.10573440213E+03  0.00000000000E+00 0. -1.
        -12    1    4    4    0    0  0.27489139297E+02 -0.11124980948E+02  0.53076412730E+01  0.30126218420E+02  0.00000000000E+00 0.  1.
</event>
<event>
12    1  0.1628146E-001  0.3031541E+03  0.7818608E-02  0.1084023E+00
         21   -1    0    0  503  502  0.00000000000E+00  0.00000000000E+00  0.50896661019E+03  0.50896661019E+03  0.00000000000E+00 0. -1.
         21   -1    0    0  501  503 -0.00000000000E+00 -0.00000000000E+00 -0.31683557527E+03  0.31683557527E+03  0.00000000000E+00 0.  1.
          6    2    1    2  501    0  0.88506982226E+02  0.23047288776E+03 -0.17662622304E+03  0.34842990390E+03  0.17104191699E+03 0.  0.
         24    2    3    3    0    0  0.26890097909E+02  0.96071375681E+02 -0.15187428676E+03  0.19844605399E+03  0.79763718421E+02 0.  0.
         -6    2    1    2    0  502 -0.88506982226E+02 -0.23047288776E+03  0.36875725796E+03  0.47737228157E+03  0.17592936655E+03 0.  0.
        -24    2    5    5    0    0 -0.72224364554E+02 -0.24667989136E+03  0.36411791712E+03  0.45346822151E+03  0.83571781789E+02 0.  0.
          5    1    3    3  501    0  0.61616884317E+02  0.13440151208E+03 -0.24751936284E+02  0.14998384990E+03  0.47000000000E+01 0. -1.
        -13    1    4    4    0    0  0.20814402658E+02  0.75142440563E+02 -0.46378042728E+02  0.90722370885E+02  0.00000000000E+00 0.  1.
         14    1    4    4    0    0  0.60756952511E+01  0.20928935118E+02 -0.10549624403E+03  0.10772368311E+03  0.00000000000E+00 0. -1.
         -5    1    5    5    0  502 -0.16282617672E+02  0.16207003600E+02  0.46393408402E+01  0.23904060060E+02  0.47000000000E+01 0.  1.
         13    1    6    6    0    0  0.15859662904E+02 -0.66278224296E+02  0.11308330872E+03  0.13203093059E+03  0.00000000000E+00 0. -1.
        -14    1    6    6    0    0 -0.88084027457E+02 -0.18040166707E+03  0.25103460841E+03  0.32143729092E+03  0.00000000000E+00 0.  1.
</event>
<event>
12    1  0.1628146E-001  0.2139834E+03  0.7818608E-02  0.1138725E+00
         21   -1    0    0  503  502  0.00000000000E+00  0.00000000000E+00  0.22012266464E+03  0.22012266464E+03  0.00000000000E+00 0.  1.
         21   -1    0    0  501  503 -0.00000000000E+00 -0.00000000000E+00 -0.21300141520E+03  0.21300141520E+03  0.00000000000E+00 0.  1.
          6    2    1    2  501    0  0.11841482760E+03  0.49859637272E+02 -0.33851734019E+02  0.21664447055E+03  0.17111642790E+03 0.  0.
         24    2    3    3    0    0  0.61911608174E+02 -0.24476722446E+02  0.23808856355E+02  0.10680212050E+03  0.80047948966E+02 0.  0.
         -6    2    1    2    0  502 -0.11841482760E+03 -0.49859637272E+02  0.40972983462E+02  0.21647960929E+03  0.16934161048E+03 0.  0.
        -24    2    5    5    0    0 -0.48529077062E+02  0.39606691041E+02  0.15289861369E+02  0.99989460392E+02  0.76422189403E+02 0.  0.
          5    1    3    3  501    0  0.56503219425E+02  0.74336359718E+02 -0.57660590375E+02  0.10984235005E+03  0.47000000000E+01 0. -1.
        -13    1    4    4    0    0  0.23918020732E+02 -0.25708406429E+02 -0.26324877113E+02  0.43886137127E+02  0.00000000000E+00 0.  1.
         14    1    4    4    0    0  0.37993587442E+02  0.12316839829E+01  0.50133733469E+02  0.62915983372E+02  0.00000000000E+00 0. -1.
         -5    1    5    5    0  502 -0.69885750537E+02 -0.89466328313E+02  0.25683122093E+02  0.11649014890E+03  0.47000000000E+01 0.  1.
         11    1    6    6    0    0 -0.18712388494E+02 -0.15391788980E+02  0.27069395607E+02  0.36329228311E+02  0.00000000000E+00 0. -1.
        -12    1    6    6    0    0 -0.29816688568E+02  0.54998480021E+02 -0.11779534238E+02  0.63660232081E+02  0.00000000000E+00 0.  1.
</event>
<event>
12    1  0.1628146E-001  0.1975137E+03  0.7818608E-02  0.1152022E+00
         21   -1    0    0  501  502  0.00000000000E+00  0.00000000000E+00  0.15949095424E+03  0.15949095424E+03  0.00000000000E+00 0. -1.
         21   -1    0    0  502  503 -0.00000000000E+00 -0.00000000000E+00 -0.25983356190E+03  0.25983356190E+03  0.00000000000E+00 0. -1.
         -6    2    1    2    0  503  0.93683816541E+02 -0.10178901705E+02 -0.10262043556E+03  0.22258172334E+03  0.17358399192E+03 0.  0.
        -24    2    3    3    0    0  0.17310533339E+02 -0.38215296421E+02  0.50037534349E+01  0.87585523867E+02  0.76721072709E+02 0.  0.
          6    2    1    2  501    0 -0.93683816541E+02  0.10178901705E+02  0.22778278950E+01  0.19674279280E+03  0.17269125773E+03 0.  0.
         24    2    5    5    0    0 -0.12870971993E+03 -0.14445358820E+02 -0.48068109013E+01  0.15309132981E+03  0.81479994086E+02 0.  0.
          5    1    5    5  501    0  0.35025903384E+02  0.24624260525E+02  0.70846387964E+01  0.43651462990E+02  0.47000000000E+01 0. -1.
        -11    1    6    6    0    0 -0.96881548769E+02 -0.15837356252E+02 -0.39655741716E+02  0.10587461545E+03  0.00000000000E+00 0.  1.
         12    1    6    6    0    0 -0.31828171156E+02  0.13919974319E+01  0.34848930815E+02  0.47216714360E+02  0.00000000000E+00 0. -1.
         -5    1    3    3    0  503  0.76373283202E+02  0.28036394716E+02 -0.10762418900E+03  0.13499619948E+03  0.47000000000E+01 0.  1.
         13    1    4    4    0    0  0.28820843144E+02 -0.57846159367E+02  0.50951155259E+01  0.64828846630E+02  0.00000000000E+00 0. -1.
        -14    1    4    4    0    0 -0.11510309805E+02  0.19630862947E+02 -0.91362091088E-01  0.22756677237E+02  0.00000000000E+00 0.  1.
</event>
<event>
12    1  0.1628146E-001  0.2108897E+03  0.7818608E-02  0.1141165E+00
         21   -1    0    0  501  502  0.00000000000E+00  0.00000000000E+00  0.87387378907E+03  0.87387378907E+03  0.00000000000E+00 0. -1.
         21   -1    0    0  502  503 -0.00000000000E+00 -0.00000000000E+00 -0.16469026957E+03  0.16469026957E+03  0.00000000000E+00 0. -1.
         -6    2    1    2    0  503  0.76602135535E+02  0.92318464327E+02 -0.78150840111E+02  0.22347518220E+03  0.17158967692E+03 0.  0.
        -24    2    3    3    0    0  0.65027090886E+02  0.10248905551E+03 -0.11380901082E+03  0.18434696065E+03  0.79364865699E+02 0.  0.
          6    2    1    2  501    0 -0.76602135535E+02 -0.92318464327E+02  0.78733435961E+03  0.81508887644E+03  0.17344710043E+03 0.  0.
         24    2    5    5    0    0 -0.11808455837E+03 -0.91885142770E+02  0.54410548364E+03  0.56830282481E+03  0.67308847671E+02 0.  0.
          5    1    5    5  501    0  0.41482422834E+02 -0.43332155758E+00  0.24322887598E+03  0.24678605163E+03  0.47000000000E+01 0. -1.
        -11    1    6    6    0    0 -0.24330412415E+02 -0.48541137516E+02  0.11856691409E+03  0.13040829773E+03  0.00000000000E+00 0.  1.
         12    1    6    6    0    0 -0.93754145954E+02 -0.43344005254E+02  0.42553856954E+03  0.43789452708E+03  0.00000000000E+00 0. -1.
         -5    1    3    3    0  503  0.11575044649E+02 -0.10170591183E+02  0.35658170709E+02  0.39128221554E+02  0.47000000000E+01 0.  1.
         11    1    4    4    0    0  0.34605600798E+02 -0.21868168155E-01 -0.46620838763E+02  0.58060750010E+02  0.00000000000E+00 0. -1.
        -12    1    4    4    0    0  0.30421490088E+02  0.10251092368E+03 -0.67188172057E+02  0.12628621064E+03  0.00000000000E+00 0.  1.
</event>
<event>
12    1  0.1628146E-001  0.1758142E+03  0.7818608E-02  0.1171946E+00
         21   -1    0    0  503  502  0.00000000000E+00  0.00000000000E+00  0.13011194501E+03  0.13011194501E+03  0.00000000000E+00 0.  1.
         21   -1    0    0  501  503 -0.00000000000E+00 -0.00000000000E+00 -0.30450078420E+03  0.30450078420E+03  0.00000000000E+00 0.  1.
          6    2    1    2  501    0  0.27452759148E+02  0.19557043038E+02 -0.18917405192E+03  0.25817790964E+03  0.17243224522E+03 0.  0.
         24    2    3    3    0    0  0.14599532190E+01  0.73145850792E+02 -0.15395776541E+03  0.18882617490E+03  0.81239669162E+02 0.  0.
         -6    2    1    2    0  502 -0.27452759148E+02 -0.19557043038E+02  0.14785212719E+02  0.17643481957E+03  0.17255292267E+03 0.  0.
        -24    2    5    5    0    0 -0.60120922621E+02 -0.25414887521E+01  0.61176946672E+02  0.11701242504E+03  0.79550639892E+02 0.  0.
          5    1    3    3  501    0  0.25992805929E+02 -0.53588807754E+02 -0.35216286509E+02  0.69351734744E+02  0.47000000000E+01 0. -1.
        -11    1    4    4    0    0  0.29401835086E+02  0.40971683301E+02 -0.13110943580E+03  0.14047359501E+03  0.00000000000E+00 0.  1.
         12    1    4    4    0    0 -0.27941881867E+02  0.32174167491E+02 -0.22848329608E+02  0.48352579888E+02  0.00000000000E+00 0. -1.
         -5    1    5    5    0  502  0.32668163473E+02 -0.17015554286E+02 -0.46391733953E+02  0.59422394528E+02  0.47000000000E+01 0.  1.
         11    1    6    6    0    0 -0.33112032622E+01  0.17648290558E+02 -0.12449848814E+02  0.21850056342E+02  0.00000000000E+00 0. -1.
        -12    1    6    6    0    0 -0.56809719359E+02 -0.20189779310E+02  0.73626795486E+02  0.95162368696E+02  0.00000000000E+00 0.  1.
</event>
<event>
12    1  0.1628146E-001  0.2429703E+03  0.7818608E-02  0.1119542E+00
         21   -1    0    0  503  502  0.00000000000E+00  0.00000000000E+00  0.30456135898E+03  0.30456135898E+03  0.00000000000E+00 0.  1.
         21   -1    0    0  501  503 -0.00000000000E+00 -0.00000000000E+00 -0.18714240660E+03  0.18714240660E+03  0.00000000000E+00 0.  1.
          6    2    1    2  501    0  0.14415723882E+03 -0.94429971134E+02  0.36462435828E+02  0.23560118532E+03  0.15646111448E+03 0.  0.
         24    2    3    3    0    0  0.45697214792E+02 -0.99694676125E+02  0.23087001261E+02  0.13598649915E+03  0.77019831455E+02 0.  0.
         -6    2    1    2    0  502 -0.14415723882E+03  0.94429971134E+02  0.80956516545E+02  0.25610258026E+03  0.17127826801E+03 0.  0.
        -24    2    5    5    0    0 -0.80159032774E+02 -0.24849730388E+01 -0.29241420804E+01  0.11276266372E+03  0.79216299436E+02 0.  0.
          5    1    3    3  501    0  0.98460024030E+02  0.52647049913E+01  0.13375434566E+02  0.99614686168E+02  0.47000000000E+01 0. -1.
        -11    1    4    4    0    0  0.38196120216E+02 -0.56445253093E+02 -0.23391389758E+02  0.72056695117E+02  0.00000000000E+00 0.  1.
         12    1    4    4    0    0  0.75010945755E+01 -0.43249423032E+02  0.46478391019E+02  0.63929804037E+02  0.00000000000E+00 0. -1.
         -5    1    5    5    0  502 -0.63998206047E+02  0.96914944173E+02  0.83880658626E+02  0.14333991654E+03  0.47000000000E+01 0.  1.
         11    1    6    6    0    0 -0.13744270655E+02  0.41357535220E+01 -0.35647437099E+02  0.38428494698E+02  0.00000000000E+00 0. -1.
        -12    1    6    6    0    0 -0.66414762119E+02 -0.66207265608E+01  0.32723295019E+02  0.74334169024E+02  0.00000000000E+00 0.  1.
</event>
<event>
12    1  0.1628146E-001  0.1892011E+03  0.7818608E-02  0.1160774E+00
         21   -1    0    0  501  502  0.00000000000E+00  0.00000000000E+00  0.40310918158E+03  0.40310918158E+03  0.00000000000E+00 0.  1.
         21   -1    0    0  502  503 -0.00000000000E+00 -0.00000000000E+00 -0.16677043190E+03  0.16677043190E+03  0.00000000000E+00 0.  1.
         -6    2    1    2    0  503 -0.45043218538E+02 -0.59428653676E+02 -0.81719606161E+02  0.19980101713E+03  0.16637817165E+03 0.  0.
        -24    2    3    3    0    0 -0.77870591027E+02 -0.23320069798E+01 -0.27914213963E+02  0.11462605791E+03  0.79313697478E+02 0.  0.
          6    2    1    2  501    0  0.45043218538E+02  0.59428653676E+02  0.31805835584E+03  0.37007859634E+03  0.17388615051E+03 0.  0.
         24    2    5    5    0    0  0.59690169658E+02  0.13652014756E+02  0.30318607165E+03  0.31954832141E+03  0.80249871100E+02 0.  0.
          5    1    5    5  501    0 -0.14646951120E+02  0.45776638920E+02  0.14872284187E+02  0.50530274934E+02  0.47000000000E+01 0. -1.
        -11    1    6    6    0    0  0.63630952608E+02  0.36550134984E+02  0.18351458787E+03  0.19764213735E+03  0.00000000000E+00 0.  1.
         12    1    6    6    0    0 -0.39407829499E+01 -0.22898120228E+02  0.11967148379E+03  0.12190618406E+03  0.00000000000E+00 0. -1.
         -5    1    3    3    0  503  0.32827372489E+02 -0.57096646697E+02 -0.53805392198E+02  0.85174959220E+02  0.47000000000E+01 0.  1.
         13    1    4    4    0    0 -0.21328551067E+02 -0.38364123948E+02 -0.74233118116E+01  0.44517621850E+02  0.00000000000E+00 0. -1.
        -14    1    4    4    0    0 -0.56542039959E+02  0.36032116968E+02 -0.20490902151E+02  0.70108436061E+02  0.00000000000E+00 0.  1.
</event>
<event>
12    1  0.1628146E-001  0.1933848E+03  0.7818608E-02  0.1157354E+00
         21   -1    0    0  503  502  0.00000000000E+00  0.00000000000E+00  0.16802527207E+03  0.16802527207E+03  0.00000000000E+00 0. -1.
         21   -1    0    0  501  503 -0.00000000000E+00 -0.00000000000E+00 -0.42763895116E+03  0.42763895116E+03  0.00000000000E+00 0. -1.
          6    2    1    2  501    0  0.77569105243E+02 -0.15295537857E+02 -0.34225978354E+03  0.39311504475E+03  0.17648444525E+03 0.  0.
         24    2    3    3    0    0  0.20784046163E+02  0.50111229044E+02 -0.12344680814E+03  0.15773493452E+03  0.81841818625E+02 0.  0.
         -6    2    1    2    0  502 -0.77569105243E+02  0.15295537857E+02  0.82646104448E+02  0.20254917848E+03  0.16716719642E+03 0.  0.
        -24    2    5    5    0    0 -0.39816599649E+01 -0.40928025424E+02  0.30753886710E+02  0.96289621585E+02  0.81455096808E+02 0.  0.
          5    1    3    3  501    0  0.56785059080E+02 -0.65406766900E+02 -0.21881297539E+03  0.23538011023E+03  0.47000000000E+01 0. -1.
        -13    1    4    4    0    0  0.60086814940E+01  0.46454925101E+02 -0.13214663002E+03  0.14020305327E+03  0.00000000000E+00 0.  1.
         14    1    4    4    0    0  0.14775364669E+02  0.36563039425E+01  0.86998218765E+01  0.17531881254E+02  0.00000000000E+00 0. -1.
         -5    1    5    5    0  502 -0.73587445278E+02  0.56223563281E+02  0.51892217738E+02  0.10625955690E+03  0.47000000000E+01 0.  1.
         13    1    6    6    0    0 -0.77454565040E+01 -0.24748993156E+02  0.58477947217E+02  0.63970110751E+02  0.00000000000E+00 0. -1.
        -14    1    6    6    0    0  0.37637965391E+01 -0.16179032268E+02 -0.27724060508E+02  0.32319510834E+02  0.00000000000E+00 0.  1.
</event>
<event>
12    1  0.1628146E-001  0.1937129E+03  0.7818608E-02  0.1155285E+00
         21   -1    0    0  501  502  0.00000000000E+00  0.00000000000E+00  0.43524262496E+03  0.43524262496E+03  0.00000000000E+00 0.  1.
         21   -1    0    0  502  503 -0.00000000000E+00 -0.00000000000E+00 -0.23034466683E+03  0.23034466683E+03  0.00000000000E+00 0.  1.
         -6    2    1    2    0  503  0.87734512220E+02 -0.90190623839E+01 -0.16097855881E+03  0.25187056047E+03  0.17247027197E+03 0.  0.
        -24    2    3    3    0    0  0.11602088732E+03  0.99496090613E+01 -0.74736337641E+02  0.15902800436E+03  0.78387148138E+02 0.  0.
          6    2    1    2  501    0 -0.87734512220E+02  0.90190623839E+01  0.36587651695E+03  0.41371673132E+03  0.17180576241E+03 0.  0.
         24    2    5    5    0    0 -0.34533987258E+02 -0.34804084596E+02  0.31531903552E+03  0.32810766056E+03  0.76319212378E+02 0.  0.
          5    1    5    5  501    0 -0.53200524962E+02  0.43823146980E+02  0.50557481436E+02  0.85609070762E+02  0.47000000000E+01 0. -1.
        -11    1    6    6    0    0 -0.22096877681E+01 -0.50830980123E+02  0.13624319174E+03  0.14543341623E+03  0.00000000000E+00 0.  1.
         12    1    6    6    0    0 -0.32324299490E+02  0.16026895526E+02  0.17907584377E+03  0.18267424433E+03  0.00000000000E+00 0. -1.
         -5    1    3    3    0  503 -0.28286375096E+02 -0.18968671445E+02 -0.86242221172E+02  0.92842556110E+02  0.47000000000E+01 0.  1.
         11    1    4    4    0    0  0.36536460289E+02  0.38287057693E+02 -0.13071060208E+02  0.54512973980E+02  0.00000000000E+00 0. -1.
        -12    1    4    4    0    0  0.79484427027E+02 -0.28337448631E+02 -0.61665277433E+02  0.10451503038E+03  0.00000000000E+00 0.  1.
</event>
<event>
12    1  0.1628146E-001  0.2086214E+03  0.7818608E-02  0.1144974E+00
         21   -1    0    0  501  502  0.00000000000E+00  0.00000000000E+00  0.35017105943E+03  0.35017105943E+03  0.00000000000E+00 0. -1.
         21   -1    0    0  502  503 -0.00000000000E+00 -0.00000000000E+00 -0.13462635812E+03  0.13462635812E+03  0.00000000000E+00 0.  1.
         -6    2    1    2    0  503 -0.10190484973E+03 -0.54176162849E+02  0.24420331097E+02  0.21004577971E+03  0.17379074194E+03 0.  0.
        -24    2    3    3    0    0 -0.13470734470E+02 -0.81948893983E+02  0.68457921635E+01  0.11558482611E+03  0.80099346096E+02 0.  0.
          6    2    1    2  501    0  0.10190484973E+03  0.54176162849E+02  0.19112437021E+03  0.27475163784E+03  0.16012583360E+03 0.  0.
         24    2    5    5    0    0  0.12522295230E+03  0.51756139967E+02  0.11564259159E+03  0.19557348857E+03  0.80723569259E+02 0.  0.
          5    1    5    5  501    0 -0.23318102569E+02  0.24200228818E+01  0.75481778620E+02  0.79178149270E+02  0.47000000000E+01 0. -1.
        -11    1    6    6    0    0  0.88676226036E+02  0.62024370455E+02  0.11456946573E+03  0.15759650400E+03  0.00000000000E+00 0.  1.
         12    1    6    6    0    0  0.36546726264E+02 -0.10268230488E+02  0.10731258592E+01  0.37976984571E+02  0.00000000000E+00 0. -1.
         -5    1    3    3    0  503 -0.88434115261E+02  0.27772731134E+02  0.17574538934E+02  0.94460953602E+02  0.47000000000E+01 0.  1.
         11    1    4    4    0    0 -0.22685362030E+02 -0.37959470715E+02  0.40084401865E+02  0.59685059607E+02  0.00000000000E+00 0. -1.
        -12    1    4    4    0    0  0.92146275599E+01 -0.43989423267E+02 -0.33238609702E+02  0.55899766505E+02  0.00000000000E+00 0.  1.
</event>
<event>
12    1  0.1628146E-001  0.2019034E+03  0.7818608E-02  0.1148275E+00
         21   -1    0    0  503  502  0.00000000000E+00  0.00000000000E+00  0.42240017003E+03  0.42240017003E+03  0.00000000000E+00 0.  1.
         21   -1    0    0  501  503 -0.00000000000E+00 -0.00000000000E+00 -0.12990685585E+03  0.12990685585E+03  0.00000000000E+00 0. -1.
          6    2    1    2  501    0  0.82593670690E+02 -0.61406084902E+02  0.57606727938E+01  0.20198557866E+03  0.17370252426E+03 0.  0.
         24    2    3    3    0    0 -0.90326955786E+01  0.48456656410E+01 -0.19271806919E+02  0.86083031288E+02  0.83269536260E+02 0.  0.
         -6    2    1    2    0  502 -0.82593670690E+02  0.61406084902E+02  0.28673264139E+03  0.35032144723E+03  0.17296556607E+03 0.  0.
        -24    2    5    5    0    0 -0.29622752780E+02  0.66238535415E+02  0.74451428202E+02  0.13142723946E+03  0.80405553625E+02 0.  0.
          5    1    3    3  501    0  0.91626366269E+02 -0.66251750543E+02  0.25032479713E+02  0.11590254737E+03  0.47000000000E+01 0. -1.
        -11    1    4    4    0    0 -0.42474379724E+02  0.98447218419E+00  0.74105094814E+01  0.43127227701E+02  0.00000000000E+00 0.  1.
         12    1    4    4    0    0  0.33441684145E+02  0.38611934568E+01 -0.26682316400E+02  0.42955803587E+02  0.00000000000E+00 0. -1.
         -5    1    5    5    0  502 -0.52970917910E+02 -0.48324505134E+01  0.21228121319E+03  0.21889420777E+03  0.47000000000E+01 0.  1.
         13    1    6    6    0    0  0.21633924684E+02  0.48658582588E+02  0.28609433938E+02  0.60449847534E+02  0.00000000000E+00 0. -1.
        -14    1    6    6    0    0 -0.51256677464E+02  0.17579952828E+02  0.45841994264E+02  0.70977391922E+02  0.00000000000E+00 0.  1.
</event>
<event>
12    1  0.1628146E-001  0.5453878E+03  0.7818608E-02  0.1002659E+00
         21   -1    0    0  503  502  0.00000000000E+00  0.00000000000E+00  0.12859122641E+03  0.12859122641E+03  0.00000000000E+00 0. -1.
         21   -1    0    0  501  503 -0.00000000000E+00 -0.00000000000E+00 -0.23070901425E+04  0.23070901425E+04  0.00000000000E+00 0.  1.
          6    2    1    2  501    0 -0.40435680620E+03 -0.32326609415E+03 -0.11071914572E+04  0.12335384759E+04  0.16654985472E+03 0.  0.
         24    2    3    3    0    0 -0.38398302567E+03 -0.26425837166E+03 -0.89385721818E+03  0.10112085638E+04  0.79287968849E+02 0.  0.
         -6    2    1    2    0  502  0.40435680620E+03  0.32326609415E+03 -0.10713074588E+04  0.12021428930E+04  0.17158808102E+03 0.  0.
        -24    2    5    5    0    0  0.35461899696E+03  0.33404227694E+03 -0.96979858881E+03  0.10884937994E+04  0.83489955907E+02 0.  0.
          5    1    3    3  501    0 -0.20373780534E+02 -0.59007722490E+02 -0.21333423905E+03  0.22232991206E+03  0.47000000000E+01 0. -1.
        -11    1    4    4    0    0 -0.21766550937E+03 -0.10186566136E+03 -0.44692940225E+03  0.50744534438E+03  0.00000000000E+00 0.  1.
         12    1    4    4    0    0 -0.16631751630E+03 -0.16239271030E+03 -0.44692781593E+03  0.50376321942E+03  0.00000000000E+00 0. -1.
         -5    1    5    5    0  502  0.49737809238E+02 -0.10776182782E+02 -0.10150887003E+03  0.11364909361E+03  0.47000000000E+01 0.  1.
         11    1    6    6    0    0  0.12812473326E+03  0.15773510711E+03 -0.33494751231E+03  0.39177308138E+03  0.00000000000E+00 0. -1.
        -12    1    6    6    0    0  0.22649426370E+03  0.17630716982E+03 -0.63485107650E+03  0.69672071805E+03  0.00000000000E+00 0.  1.
</event>
<event>
12    1  0.1628146E-001  0.1869300E+03  0.7818608E-02  0.1161433E+00
         21   -1    0    0  503  502  0.00000000000E+00  0.00000000000E+00  0.65107295550E+03  0.65107295550E+03  0.00000000000E+00 0. -1.
         21   -1    0    0  501  503 -0.00000000000E+00 -0.00000000000E+00 -0.10816661131E+03  0.10816661131E+03  0.00000000000E+00 0. -1.
          6    2    1    2  501    0 -0.31053103225E+02  0.63512287836E+02  0.17346327201E+01  0.18693800810E+03  0.17304538131E+03 0.  0.
         24    2    3    3    0    0 -0.14838619183E+02  0.64721805126E+02 -0.61958867059E+02  0.12103410579E+03  0.80007855113E+02 0.  0.
         -6    2    1    2    0  502  0.31053103225E+02 -0.63512287836E+02  0.54117171147E+03  0.57230155871E+03  0.17223282753E+03 0.  0.
        -24    2    5    5    0    0 -0.24494063860E+02  0.52789058020E+01  0.37069837230E+03  0.38020531860E+03  0.80690613216E+02 0.  0.
          5    1    3    3  501    0 -0.16214484041E+02 -0.12095172895E+01  0.63693499779E+02  0.65903902304E+02  0.47000000000E+01 0. -1.
        -11    1    4    4    0    0  0.15157843863E+01  0.73804862806E+00  0.17575207860E+02  0.17655884271E+02  0.00000000000E+00 0.  1.
         12    1    4    4    0    0 -0.16354403570E+02  0.63983756498E+02 -0.79534074919E+02  0.10337822152E+03  0.00000000000E+00 0. -1.
         -5    1    5    5    0  502  0.55547167085E+02 -0.68791193638E+02  0.17047333918E+03  0.19209624011E+03  0.47000000000E+01 0.  1.
         13    1    6    6    0    0  0.28985838987E+02 -0.45729947803E+01  0.15534144929E+03  0.15808876308E+03  0.00000000000E+00 0. -1.
        -14    1    6    6    0    0 -0.53479902847E+02  0.98519005823E+01  0.21535692300E+03  0.22211655553E+03  0.00000000000E+00 0.  1.
</event>
<event>
12    1  0.1628146E-001  0.1848447E+03  0.7818608E-02  0.1163585E+00
         21   -1    0    0  501  502  0.00000000000E+00  0.00000000000E+00  0.12243916319E+03  0.12243916319E+03  0.00000000000E+00 0.  1.
         21   -1    0    0  502  503 -0.00000000000E+00 -0.00000000000E+00 -0.49669605207E+03  0.49669605207E+03  0.00000000000E+00 0.  1.
         -6    2    1    2    0  503  0.52791429202E+02  0.43139223817E+02 -0.39274925728E+03  0.43336779190E+03  0.17002275242E+03 0.  0.
        -24    2    3    3    0    0 -0.12383961858E+02 -0.85930641996E+01 -0.25293054332E+03  0.27059364164E+03  0.94972921851E+02 0.  0.
          6    2    1    2  501    0 -0.52791429202E+02 -0.43139223817E+02  0.18492368392E+02  0.18576742336E+03  0.17181280587E+03 0.  0.
         24    2    5    5    0    0 -0.43190137480E-01 -0.43735904031E+00 -0.45400918433E+02  0.92438606363E+02  0.80519931715E+02 0.  0.
          5    1    5    5  501    0 -0.52748239065E+02 -0.42701864777E+02  0.63893286825E+02  0.93328816992E+02  0.47000000000E+01 0. -1.
        -13    1    6    6    0    0 -0.81226117550E+01 -0.38127392222E+02 -0.10337285734E+02  0.40330315343E+02  0.00000000000E+00 0.  1.
         14    1    6    6    0    0  0.80794216175E+01  0.37690033181E+02 -0.35063632699E+02  0.52108291019E+02  0.00000000000E+00 0. -1.
         -5    1    3    3    0  503  0.65175391061E+02  0.51732288017E+02 -0.13981871395E+03  0.16277415026E+03  0.47000000000E+01 0.  1.
         13    1    4    4    0    0 -0.13682702063E+02 -0.17696716317E+02 -0.55570889361E+01  0.23049324103E+02  0.00000000000E+00 0. -1.
        -14    1    4    4    0    0  0.12987402049E+01  0.91036521175E+01 -0.24737345439E+03  0.24754431753E+03  0.00000000000E+00 0.  1.
</event>
<event>
12    1  0.1628146E-001  0.2287599E+03  0.7818608E-02  0.1127536E+00
         21   -1    0    0  503  502  0.00000000000E+00  0.00000000000E+00  0.11020051151E+03  0.11020051151E+03  0.00000000000E+00 0. -1.
         21   -1    0    0  501  503 -0.00000000000E+00 -0.00000000000E+00 -0.58813023483E+03  0.58813023483E+03  0.00000000000E+00 0. -1.
          6    2    1    2  501    0  0.14611950129E+03  0.37509876454E+02 -0.39230403420E+03  0.45407093228E+03  0.17181401807E+03 0.  0.
         24    2    3    3    0    0  0.10516882077E+03 -0.42271140247E+02 -0.22089200286E+03  0.26056087221E+03  0.79065549007E+02 0.  0.
         -6    2    1    2    0  502 -0.14611950129E+03 -0.37509876454E+02 -0.85625689122E+02  0.24425981406E+03  0.17196859782E+03 0.  0.
        -24    2    5    5    0    0 -0.48590074452E+02 -0.31317969666E+02 -0.10572000225E+03  0.14437888380E+03  0.79540760950E+02 0.  0.
          5    1    3    3  501    0  0.40950680517E+02  0.79781016700E+02 -0.17141203134E+03  0.19351006007E+03  0.47000000000E+01 0. -1.
        -11    1    4    4    0    0  0.26049173039E+02  0.66385755098E+01 -0.77035599986E+01  0.27963814787E+02  0.00000000000E+00 0.  1.
         12    1    4    4    0    0  0.79119647734E+02 -0.48909715756E+02 -0.21318844286E+03  0.23259705742E+03  0.00000000000E+00 0. -1.
         -5    1    5    5    0  502 -0.97529426837E+02 -0.61919067880E+01  0.20094313127E+02  0.99880930257E+02  0.47000000000E+01 0.  1.
         11    1    6    6    0    0 -0.43369348767E+02  0.16354129531E+02 -0.31600796724E+02  0.56097845937E+02  0.00000000000E+00 0. -1.
        -12    1    6    6    0    0 -0.52207256852E+01 -0.47672099197E+02 -0.74119205525E+02  0.88281037863E+02  0.00000000000E+00 0.  1.
</event>
<event>
12    1  0.1628146E-001  0.1880980E+03  0.7818608E-02  0.1160370E+00
         21   -1    0    0  501  502  0.00000000000E+00  0.00000000000E+00  0.19165045290E+03  0.19165045290E+03  0.00000000000E+00 0. -1.
         21   -1    0    0  502  503 -0.00000000000E+00 -0.00000000000E+00 -0.23968097522E+03  0.23968097522E+03  0.00000000000E+00 0.  1.
         -6    2    1    2    0  503 -0.56335958902E+02  0.46788351435E+02 -0.12808165771E+03  0.22690773000E+03  0.17239291401E+03 0.  0.
        -24    2    3    3    0    0  0.30798240783E+01 -0.25073219967E+02 -0.22208688487E+02  0.85750029814E+02  0.78877690718E+02 0.  0.
          6    2    1    2  501    0  0.56335958902E+02 -0.46788351435E+02  0.80051135392E+02  0.20442369811E+03  0.17325695939E+03 0.  0.
         24    2    5    5    0    0 -0.31105422221E+01 -0.81296812390E+02  0.22959416010E+02  0.11494590872E+03  0.77888253092E+02 0.  0.
          5    1    5    5  501    0  0.59446501124E+02  0.34508460956E+02  0.57091719382E+02  0.89477789397E+02  0.47000000000E+01 0. -1.
        -11    1    6    6    0    0  0.12162536114E+02 -0.70953196809E+02  0.46000816284E+02  0.85430430884E+02  0.00000000000E+00 0.  1.
         12    1    6    6    0    0 -0.15273078336E+02 -0.10343615581E+02 -0.23041400274E+02  0.29515477834E+02  0.00000000000E+00 0. -1.
         -5    1    3    3    0  503 -0.59415782980E+02  0.71861571402E+02 -0.10587296922E+03  0.14115770019E+03  0.47000000000E+01 0.  1.
         13    1    4    4    0    0 -0.25016663323E+02  0.18402615342E+02 -0.79490407236E+01  0.32057400763E+02  0.00000000000E+00 0. -1.
        -14    1    4    4    0    0  0.28096487401E+02 -0.43475835309E+02 -0.14259647764E+02  0.53692629052E+02  0.00000000000E+00 0.  1.
</event>
<event>
12    1  0.1628146E-001  0.2008392E+03  0.7818608E-02  0.1149062E+00
         21   -1    0    0  503  502  0.00000000000E+00  0.00000000000E+00  0.23022176096E+03  0.23022176096E+03  0.00000000000E+00 0. -1.
         21   -1    0    0  501  503 -0.00000000000E+00 -0.00000000000E+00 -0.24739311640E+03  0.24739311640E+03  0.00000000000E+00 0. -1.
          6    2    1    2  501    0  0.10267907061E+03  0.12269875041E+02 -0.13768897129E+03  0.24339090387E+03  0.17200970292E+03 0.  0.
         24    2    3    3    0    0  0.31259545758E+02  0.54475709347E+02 -0.27818232839E+02  0.10563840790E+03  0.80254950224E+02 0.  0.
         -6    2    1    2    0  502 -0.10267907061E+03 -0.12269875041E+02  0.12051761584E+03  0.23422397349E+03  0.17217094022E+03 0.  0.
        -24    2    5    5    0    0 -0.12380428127E+03 -0.49102855389E+02  0.67324886216E+02  0.16600008140E+03  0.72696604146E+02 0.  0.
          5    1    3    3  501    0  0.71419524847E+02 -0.42205834306E+02 -0.10987073845E+03  0.13775249597E+03  0.47000000000E+01 0. -1.
        -11    1    4    4    0    0  0.51673463161E+01  0.15880046925E+02  0.28203331024E+02  0.32776595905E+02  0.00000000000E+00 0.  1.
         12    1    4    4    0    0  0.26092199442E+02  0.38595662422E+02 -0.56021563863E+02  0.72861811995E+02  0.00000000000E+00 0. -1.
         -5    1    5    5    0  502  0.21125210661E+02  0.36832980348E+02  0.53192729628E+02  0.68223892091E+02  0.47000000000E+01 0.  1.
         13    1    6    6    0    0 -0.32139734850E+02 -0.22095352240E+02  0.58125131136E+02  0.69997842941E+02  0.00000000000E+00 0. -1.
        -14    1    6    6    0    0 -0.91664546416E+02 -0.27007503148E+02  0.91997550802E+01  0.96002238461E+02  0.00000000000E+00 0.  1.
</event>
<event>
12    1  0.1628146E-001  0.2271221E+03  0.7818608E-02  0.1131209E+00
         21   -1    0    0  501  502  0.00000000000E+00  0.00000000000E+00  0.97584205673E+03  0.97584205673E+03  0.00000000000E+00 0. -1.
         21   -1    0    0  502  503 -0.00000000000E+00 -0.00000000000E+00 -0.56648604005E+02  0.56648604005E+02  0.00000000000E+00 0.  1.
         -6    2    1    2    0  503 -0.13040035630E+03 -0.45629585472E+02  0.29174665625E+03  0.36973038976E+03  0.18027239857E+03 0.  0.
        -24    2    3    3    0    0 -0.35796379768E+01  0.14528950998E+02  0.15015648567E+03  0.17030017513E+03  0.78938426846E+02 0.  0.
          6    2    1    2  501    0  0.13040035630E+03  0.45629585472E+02  0.62744679647E+03  0.66276027097E+03  0.16271257597E+03 0.  0.
         24    2    5    5    0    0  0.14678679401E+03  0.11016264507E+02  0.43275994710E+03  0.46428695627E+03  0.81323335933E+02 0.  0.
          5    1    5    5  501    0 -0.16386437714E+02  0.34613320965E+02  0.19468684937E+03  0.19847331470E+03  0.47000000000E+01 0. -1.
        -13    1    6    6    0    0  0.11396258202E+03  0.43149764194E+02  0.32772109795E+03  0.34964337588E+03  0.00000000000E+00 0.  1.
         14    1    6    6    0    0  0.32824211990E+02 -0.32133499687E+02  0.10503884915E+03  0.11464358039E+03  0.00000000000E+00 0. -1.
         -5    1    3    3    0  503 -0.12682071832E+03 -0.60158536470E+02  0.14159017058E+03  0.19943021464E+03  0.47000000000E+01 0.  1.
         11    1    4    4    0    0 -0.29255901622E+02  0.35841578209E+02  0.75881051820E+02  0.88873283576E+02  0.00000000000E+00 0. -1.
        -12    1    4    4    0    0  0.25676263645E+02 -0.21312627211E+02  0.74275433852E+02  0.81426891549E+02  0.00000000000E+00 0.  1.
</event>
<event>
12    1  0.1628146E-001  0.1842932E+03  0.7818608E-02  0.1168189E+00
         21   -1    0    0  503  502  0.00000000000E+00  0.00000000000E+00  0.31854420851E+03  0.31854420851E+03  0.00000000000E+00 0. -1.
         21   -1    0    0  501  503 -0.00000000000E+00 -0.00000000000E+00 -0.10891351872E+03  0.10891351872E+03  0.00000000000E+00 0.  1.
          6    2    1    2  501    0 -0.46310358153E+02 -0.49981847925E+02  0.27756273737E+02  0.16853245064E+03  0.15162434433E+03 0.  0.
         24    2    3    3    0    0  0.25932955131E+02 -0.19596272063E+02  0.96172114310E+00  0.85572113232E+02  0.79152571751E+02 0.  0.
         -6    2    1    2    0  502  0.46310358153E+02  0.49981847925E+02  0.18187441605E+03  0.25892527658E+03  0.17123422918E+03 0.  0.
        -24    2    5    5    0    0 -0.20225696339E+02  0.21137476882E+02  0.16255529083E+03  0.18372977879E+03  0.80476936549E+02 0.  0.
          5    1    3    3  501    0 -0.72243313284E+02 -0.30385575862E+02  0.26794552594E+02  0.82960337412E+02  0.47000000000E+01 0. -1.
        -11    1    4    4    0    0  0.29801010136E+02 -0.43290557547E+02  0.18633159075E+02  0.55761700073E+02  0.00000000000E+00 0.  1.
         12    1    4    4    0    0 -0.38680550050E+01  0.23694285484E+02 -0.17671437932E+02  0.29810413159E+02  0.00000000000E+00 0. -1.
         -5    1    5    5    0  502  0.66536054493E+02  0.28844371043E+02  0.19319125225E+02  0.75195497789E+02  0.47000000000E+01 0.  1.
         11    1    6    6    0    0 -0.29567975232E+02 -0.97167857522E+01  0.18706142941E+02  0.36312544229E+02  0.00000000000E+00 0. -1.
        -12    1    6    6    0    0  0.93422788923E+01  0.30854262634E+02  0.14384914789E+03  0.14741723456E+03  0.00000000000E+00 0.  1.
</event>
<event>
12    1  0.1628146E-001  0.2445709E+03  0.7818608E-02  0.1116796E+00
         21   -1    0    0  503  502  0.00000000000E+00  0.00000000000E+00  0.12861864109E+03  0.12861864109E+03  0.00000000000E+00 0. -1.
         21   -1    0    0  501  503 -0.00000000000E+00 -0.00000000000E+00 -0.57271020743E+03  0.57271020743E+03  0.00000000000E+00 0.  1.
          6    2    1    2  501    0  0.17364838342E+03 -0.64017464204E+01 -0.37414795862E+03  0.44695305010E+03  0.17200462388E+03 0.  0.
         24    2    3    3    0    0  0.11190542131E+03 -0.10028433767E+02 -0.11434493393E+03  0.17984811217E+03  0.81530281076E+02 0.  0.
         -6    2    1    2    0  502 -0.17364838342E+03  0.64017464204E+01 -0.69943607726E+02  0.25437579842E+03  0.17210518626E+03 0.  0.
        -24    2    5    5    0    0 -0.81622247531E+02 -0.60861906825E+02 -0.25801982421E+02  0.13204926074E+03  0.80030631456E+02 0.  0.
          5    1    3    3  501    0  0.61742962108E+02  0.36266873463E+01 -0.25980302468E+03  0.26710493793E+03  0.47000000000E+01 0. -1.
        -11    1    4    4    0    0  0.27253134230E+02 -0.18200342830E+02 -0.82955972625E+02  0.89194614180E+02  0.00000000000E+00 0.  1.
         12    1    4    4    0    0  0.84652287084E+02  0.81719090636E+01 -0.31388961309E+02  0.90653497993E+02  0.00000000000E+00 0. -1.
         -5    1    5    5    0  502 -0.92026135890E+02  0.67263653246E+02 -0.44141625305E+02  0.12232653767E+03  0.47000000000E+01 0.  1.
         11    1    6    6    0    0 -0.66829268125E+02 -0.16934366290E+02  0.14704866774E+02  0.70492247422E+02  0.00000000000E+00 0. -1.
        -12    1    6    6    0    0 -0.14792979406E+02 -0.43927540535E+02 -0.40506849195E+02  0.61557013320E+02  0.00000000000E+00 0.  1.
</event>
<event>
12    1  0.1628146E-001  0.2380714E+03  0.7818608E-02  0.1121262E+00
         21   -1    0    0  503  502  0.00000000000E+00  0.00000000000E+00  0.82898828645E+02  0.82898828645E+02  0.00000000000E+00 0. -1.
         21   -1    0    0  501  503 -0.00000000000E+00 -0.00000000000E+00 -0.98292652666E+03  0.98292652666E+03  0.00000000000E+00 0. -1.
          6    2    1    2  501    0  0.14434589310E+03  0.75677077710E+02 -0.74621396054E+03  0.78327089107E+03  0.17353747995E+03 0.  0.
         24    2    3    3    0    0  0.13121772415E+03  0.90461566622E+02 -0.41783752214E+03  0.45426617191E+03  0.79800838762E+02 0.  0.
         -6    2    1    2    0  502 -0.14434589310E+03 -0.75677077710E+02 -0.15381373747E+03  0.28255446423E+03  0.17209184315E+03 0.  0.
        -24    2    5    5    0    0 -0.27669485439E+01 -0.99885754297E+01 -0.62945300675E+02  0.10189251561E+03  0.79451533764E+02 0.  0.
          5    1    3    3  501    0  0.13128168949E+02 -0.14784488912E+02 -0.32837643840E+03  0.32900471916E+03  0.47000000000E+01 0. -1.
        -13    1    4    4    0    0 -0.45310258236E+01 -0.40676165981E+01 -0.56935615400E+02  0.57260282926E+02  0.00000000000E+00 0.  1.
         14    1    4    4    0    0  0.13574874997E+03  0.94529183220E+02 -0.36090190674E+03  0.39700588899E+03  0.00000000000E+00 0. -1.
         -5    1    5    5    0  502 -0.14157894455E+03 -0.65688502280E+02 -0.90868436793E+02  0.18066194862E+03  0.47000000000E+01 0.  1.
         11    1    6    6    0    0  0.18875960107E+01  0.11841815928E+02  0.15919138541E+02  0.19930142876E+02  0.00000000000E+00 0. -1.
        -12    1    6    6    0    0 -0.46545445546E+01 -0.21830391357E+02 -0.78864439216E+02  0.81962372737E+02  0.00000000000E+00 0.  1.
</event>
<event>
12    1  0.1628146E-001  0.2031647E+03  0.7818608E-02  0.1147166E+00
         21   -1    0    0  501  502  0.00000000000E+00  0.00000000000E+00  0.55495371507E+03  0.55495371507E+03  0.00000000000E+00 0. -1.
         21   -1    0    0  502  503 -0.00000000000E+00 -0.00000000000E+00 -0.84984583192E+02  0.84984583192E+02  0.00000000000E+00 0.  1.
         -6    2    1    2    0  503  0.62981589263E+02  0.88107415401E+02  0.34884965670E+03  0.40369785831E+03  0.17189031559E+03 0.  0.
        -24    2    3    3    0    0  0.29157927322E+02  0.12505819093E+03  0.24053508704E+03  0.28426781218E+03  0.80382368093E+02 0.  0.
          6    2    1    2  501    0 -0.62981589263E+02 -0.88107415401E+02  0.12111947518E+03  0.23624043995E+03  0.17149350123E+03 0.  0.
         24    2    5    5    0    0 -0.11623533852E+02 -0.97762280559E+02  0.13158988400E+03  0.18273730230E+03  0.79902778691E+02 0.  0.
          5    1    5    5  501    0 -0.51358055410E+02  0.96548651583E+01 -0.10470408824E+02  0.53503137644E+02  0.47000000000E+01 0. -1.
        -13    1    6    6    0    0  0.93683369051E+01  0.95837134045E+00 -0.66832177883E+01  0.11547710249E+02  0.00000000000E+00 0.  1.
         14    1    6    6    0    0 -0.20991870757E+02 -0.98720651900E+02  0.13827310179E+03  0.17118959205E+03  0.00000000000E+00 0. -1.
         -5    1    3    3    0  503  0.33823661940E+02 -0.36950775526E+02  0.10831456965E+03  0.11943004613E+03  0.47000000000E+01 0.  1.
         11    1    4    4    0    0  0.14663978829E+02  0.86272578079E+02  0.22252773889E+03  0.23911625745E+03  0.00000000000E+00 0. -1.
        -12    1    4    4    0    0  0.14493948493E+02  0.38785612848E+02  0.18007348155E+02  0.45151554730E+02  0.00000000000E+00 0.  1.
</event>
<event>
12    1  0.1628146E-001  0.2127505E+03  0.7818608E-02  0.1139432E+00
         21   -1    0    0  503  502  0.00000000000E+00  0.00000000000E+00  0.14518597772E+04  0.14518597772E+04  0.00000000000E+00 0.  1.
         21   -1    0    0  501  503 -0.00000000000E+00 -0.00000000000E+00 -0.26073606852E+03  0.26073606852E+03  0.00000000000E+00 0.  1.
          6    2    1    2  501    0  0.12536219268E+03 -0.96341473322E+01 -0.20792558388E+03  0.29748245491E+03  0.17162245308E+03 0.  0.
         24    2    3    3    0    0  0.87926741872E+01 -0.41185188419E+02 -0.72283560953E+02  0.11581030730E+03  0.80084850174E+02 0.  0.
         -6    2    1    2    0  502 -0.12536219268E+03  0.96341473322E+01  0.13990492925E+04  0.14151133908E+04  0.17145987779E+03 0.  0.
        -24    2    5    5    0    0 -0.10667903663E+03 -0.42508371115E+02  0.71793300070E+03  0.73173253391E+03  0.82567119415E+02 0.  0.
          5    1    3    3  501    0  0.11656951850E+03  0.31551041087E+02 -0.13564202292E+03  0.18167214761E+03  0.47000000000E+01 0. -1.
        -13    1    4    4    0    0 -0.22501418057E+02  0.19893473687E+01 -0.55479567933E+02  0.59902034820E+02  0.00000000000E+00 0.  1.
         14    1    4    4    0    0  0.31294092244E+02 -0.43174535788E+02 -0.16803993020E+02  0.55908272476E+02  0.00000000000E+00 0. -1.
         -5    1    5    5    0  502 -0.18683156054E+02  0.52142518447E+02  0.68111629184E+03  0.68338085689E+03  0.47000000000E+01 0.  1.
         11    1    6    6    0    0 -0.61367887166E+02 -0.98948746590E+01  0.17081772860E+03  0.18177629803E+03  0.00000000000E+00 0. -1.
        -12    1    6    6    0    0 -0.45311149463E+02 -0.32613496456E+02  0.54711527210E+03  0.54995623588E+03  0.00000000000E+00 0.  1.
</event>
<event>
12    1  0.1628146E-001  0.2310223E+03  0.7818608E-02  0.1125927E+00
         21   -1    0    0  503  502  0.00000000000E+00  0.00000000000E+00  0.20815317757E+03  0.20815317757E+03  0.00000000000E+00 0. -1.
         21   -1    0    0  501  503 -0.00000000000E+00 -0.00000000000E+00 -0.85135004791E+03  0.85135004791E+03  0.00000000000E+00 0.  1.
          6    2    1    2  501    0  0.13068330868E+03 -0.82279920556E+02 -0.76446583474E+03  0.79861087091E+03  0.17182315953E+03 0.  0.
         24    2    3    3    0    0  0.13212773396E+02 -0.80603844829E+02 -0.37675165648E+03  0.39346088644E+03  0.78728021157E+02 0.  0.
         -6    2    1    2    0  502 -0.13068330868E+03  0.82279920556E+02  0.12126896441E+03  0.26089235457E+03  0.17178633953E+03 0.  0.
        -24    2    5    5    0    0 -0.72421856124E+02  0.34888581305E+02  0.14324516079E+03  0.18249988620E+03  0.79529202335E+02 0.  0.
          5    1    3    3  501    0  0.11747053528E+03 -0.16760757272E+01 -0.38771417826E+03  0.40514998447E+03  0.47000000000E+01 0. -1.
        -11    1    4    4    0    0  0.85818193420E+01 -0.55652948744E+02 -0.35670160491E+03  0.36111900154E+03  0.00000000000E+00 0.  1.
         12    1    4    4    0    0  0.46309540537E+01 -0.24950896084E+02 -0.20050051566E+02  0.32341884896E+02  0.00000000000E+00 0. -1.
         -5    1    5    5    0  502 -0.58261452556E+02  0.47391339250E+02 -0.21976196377E+02  0.78392468370E+02  0.47000000000E+01 0.  1.
         13    1    6    6    0    0 -0.50196956587E+02  0.44763099041E+02  0.44123846838E+02  0.80438693091E+02  0.00000000000E+00 0. -1.
        -14    1    6    6    0    0 -0.22224899537E+02 -0.98745177356E+01  0.99121313947E+02  0.10206119311E+03  0.00000000000E+00 0.  1.
</event>
<event>
12    1  0.1628146E-001  0.1909966E+03  0.7818608E-02  0.1159418E+00
         21   -1    0    0  503  502  0.00000000000E+00  0.00000000000E+00  0.40817124187E+02  0.40817124187E+02  0.00000000000E+00 0.  1.
         21   -1    0    0  501  503 -0.00000000000E+00 -0.00000000000E+00 -0.98532811407E+03  0.98532811407E+03  0.00000000000E+00 0.  1.
          6    2    1    2  501    0  0.61391932109E+02 -0.16095589450E+02 -0.29551417053E+03  0.35186406329E+03  0.18014343375E+03 0.  0.
         24    2    3    3    0    0  0.56316454884E+02 -0.71701782098E+02 -0.13234345883E+03  0.17933991922E+03  0.79594766689E+02 0.  0.
         -6    2    1    2    0  502 -0.61391932109E+02  0.16095589450E+02 -0.64899681935E+03  0.67428117497E+03  0.17155230706E+03 0.  0.
        -24    2    5    5    0    0 -0.54662941923E+02 -0.48329480191E+02 -0.29598558888E+03  0.31534540391E+03  0.80693736220E+02 0.  0.
          5    1    3    3  501    0  0.50754772252E+01  0.55606192648E+02 -0.16317071171E+03  0.17252414407E+03  0.47000000000E+01 0. -1.
        -13    1    4    4    0    0  0.67838519518E+02 -0.81013141535E+02 -0.10998032063E+03  0.15251512960E+03  0.00000000000E+00 0.  1.
         14    1    4    4    0    0 -0.11522064634E+02  0.93113594364E+01 -0.22363138194E+02  0.26824789615E+02  0.00000000000E+00 0. -1.
         -5    1    5    5    0  502 -0.67289901860E+01  0.64425069641E+02 -0.35301123047E+03  0.35893577106E+03  0.47000000000E+01 0.  1.
         11    1    6    6    0    0 -0.20295479701E+02 -0.66582138468E+02 -0.17900133297E+03  0.19205875368E+03  0.00000000000E+00 0. -1.
        -12    1    6    6    0    0 -0.34367462222E+02  0.18252658277E+02 -0.11698425591E+03  0.12328665023E+03  0.00000000000E+00 0.  1.
</event>
<event>
12    1  0.1628146E-001  0.1811215E+03  0.7818608E-02  0.1166834E+00
         21   -1    0    0  501  502  0.00000000000E+00  0.00000000000E+00  0.70749357579E+03  0.70749357579E+03  0.00000000000E+00 0.  1.
         21   -1    0    0  502  503 -0.00000000000E+00 -0.00000000000E+00 -0.46875110256E+02  0.46875110256E+02  0.00000000000E+00 0.  1.
         -6    2    1    2    0  503 -0.41849126902E+02 -0.35081503871E+02  0.28714170146E+03  0.33949279308E+03  0.17269319182E+03 0.  0.
        -24    2    3    3    0    0 -0.61849839865E+02 -0.33960754244E+02  0.88525158771E+02  0.13981328580E+03  0.82050689400E+02 0.  0.
          6    2    1    2  501    0  0.41849126902E+02  0.35081503871E+02  0.37347676407E+03  0.41487589296E+03  0.17220642241E+03 0.  0.
         24    2    5    5    0    0  0.64546178835E+02  0.28791734968E+02  0.37646007499E+03  0.39067449830E+03  0.76871336384E+02 0.  0.
          5    1    5    5  501    0 -0.22697051934E+02  0.62897689037E+01 -0.29833109178E+01  0.24201394658E+02  0.47000000000E+01 0. -1.
        -11    1    6    6    0    0 -0.76172274162E+01  0.30021033579E+02  0.86877319339E+02  0.92233146028E+02  0.00000000000E+00 0.  1.
         12    1    6    6    0    0  0.72163406252E+02 -0.12292986114E+01  0.28958275565E+03  0.29844135227E+03  0.00000000000E+00 0. -1.
         -5    1    3    3    0  503  0.20000712963E+02 -0.11207496268E+01  0.19861654269E+03  0.19967950728E+03  0.47000000000E+01 0.  1.
         13    1    4    4    0    0 -0.15858976506E+02  0.17588809428E+02  0.61021829922E+02  0.65456375396E+02  0.00000000000E+00 0. -1.
        -14    1    4    4    0    0 -0.45990863358E+02 -0.51549563672E+02  0.27503328849E+02  0.74356910405E+02  0.00000000000E+00 0.  1.
</event>
<event>
12    1  0.1628146E-001  0.2319704E+03  0.7818608E-02  0.1125321E+00
         21   -1    0    0  503  502  0.00000000000E+00  0.00000000000E+00  0.95584228872E+03  0.95584228872E+03  0.00000000000E+00 0. -1.
         21   -1    0    0  501  503 -0.00000000000E+00 -0.00000000000E+00 -0.64023489191E+02  0.64023489191E+02  0.00000000000E+00 0. -1.
          6    2    1    2  501    0 -0.13411125229E+03  0.79873137185E+02  0.26749458504E+03  0.35383951604E+03  0.17112423571E+03 0.  0.
         24    2    3    3    0    0 -0.14642587485E+03  0.96403075160E+02  0.27149583751E+03  0.33232234151E+03  0.77421309468E+02 0.  0.
         -6    2    1    2    0  502  0.13411125229E+03 -0.79873137185E+02  0.62432421449E+03  0.66602626188E+03  0.17159461146E+03 0.  0.
        -24    2    5    5    0    0  0.78769534415E+02 -0.22503703922E+02  0.15991069733E+03  0.19479811912E+03  0.75258354018E+02 0.  0.
          5    1    3    3  501    0  0.12314622561E+02 -0.16529937975E+02 -0.40012524613E+01  0.21517174525E+02  0.47000000000E+01 0. -1.
        -13    1    4    4    0    0 -0.61787674106E+02  0.75177432496E+02  0.18727812202E+03  0.21105084225E+03  0.00000000000E+00 0.  1.
         14    1    4    4    0    0 -0.84638200740E+02  0.21225642664E+02  0.84217715489E+02  0.12127149926E+03  0.00000000000E+00 0. -1.
         -5    1    5    5    0  502  0.55341717871E+02 -0.57369433263E+02  0.46441351716E+03  0.47122814276E+03  0.47000000000E+01 0.  1.
         13    1    6    6    0    0  0.63830289560E+02  0.17582249311E+02  0.11552959834E+03  0.13315603421E+03  0.00000000000E+00 0. -1.
        -14    1    6    6    0    0  0.14939244855E+02 -0.40085953233E+02  0.44381098994E+02  0.61642084904E+02  0.00000000000E+00 0.  1.
</event>
<event>
12    1  0.1628146E-001  0.2039486E+03  0.7818608E-02  0.1146489E+00
         21   -1    0    0  501  502  0.00000000000E+00  0.00000000000E+00  0.12553816059E+03  0.12553816059E+03  0.00000000000E+00 0.  1.
         21   -1    0    0  502  503 -0.00000000000E+00 -0.00000000000E+00 -0.33112590245E+03  0.33112590245E+03  0.00000000000E+00 0.  1.
         -6    2    1    2    0  503 -0.98470751544E+02 -0.46288811490E+02 -0.10689626207E+03  0.23026470653E+03  0.17249893116E+03 0.  0.
        -24    2    3    3    0    0 -0.10256488128E+03 -0.80191481173E+02 -0.42302588124E+02  0.15704868626E+03  0.76971113866E+02 0.  0.
          6    2    1    2  501    0  0.98470751544E+02  0.46288811490E+02 -0.98691479791E+02  0.22639935650E+03  0.17227163859E+03 0.  0.
         24    2    5    5    0    0  0.10885326028E+03  0.24587345992E+02 -0.12813867652E+03  0.18808516216E+03  0.80640795802E+02 0.  0.
          5    1    5    5  501    0 -0.10382508739E+02  0.21701465498E+02  0.29447196732E+02  0.38314194339E+02  0.47000000000E+01 0. -1.
        -11    1    6    6    0    0  0.10046824074E+03  0.16129777896E+02 -0.58370819204E+02  0.11730809719E+03  0.00000000000E+00 0.  1.
         12    1    6    6    0    0  0.83850195421E+01  0.84575680959E+01 -0.69767857319E+02  0.70777064970E+02  0.00000000000E+00 0. -1.
         -5    1    3    3    0  503  0.40941297367E+01  0.33902669683E+02 -0.64593673946E+02  0.73216020267E+02  0.47000000000E+01 0.  1.
         11    1    4    4    0    0 -0.27931550587E+02 -0.74494764305E+01  0.20437018017E+02  0.35402512943E+02  0.00000000000E+00 0. -1.
        -12    1    4    4    0    0 -0.74633330694E+02 -0.72742004743E+02 -0.62739606140E+02  0.12164617332E+03  0.00000000000E+00 0.  1.
</event>
<event>
12    1  0.1628146E-001  0.1855895E+03  0.7818608E-02  0.1164414E+00
         21   -1    0    0  503  502  0.00000000000E+00  0.00000000000E+00  0.16588060742E+04  0.16588060742E+04  0.00000000000E+00 0. -1.
         21   -1    0    0  501  503 -0.00000000000E+00 -0.00000000000E+00 -0.25159277083E+02  0.25159277083E+02  0.00000000000E+00 0. -1.
          6    2    1    2  501    0  0.43198973860E+02 -0.38200684394E+01  0.41673524991E+03  0.45298315287E+03  0.17217643276E+03 0.  0.
         24    2    3    3    0    0 -0.36031136191E+02 -0.32629791154E+02  0.20313826221E+03  0.22330256244E+03  0.78967935104E+02 0.  0.
         -6    2    1    2    0  502 -0.43198973860E+02  0.38200684394E+01  0.12169115472E+04  0.12309821984E+04  0.18045141959E+03 0.  0.
        -24    2    5    5    0    0 -0.99405197385E+02 -0.44808794599E+01  0.82558001855E+03  0.83551981004E+03  0.81298920020E+02 0.  0.
          5    1    3    3  501    0  0.79230110050E+02  0.28809722715E+02  0.21359698770E+03  0.22968059042E+03  0.47000000000E+01 0. -1.
        -13    1    4    4    0    0 -0.14887428623E+02  0.15032924735E+02  0.10284653761E+02  0.23524422630E+02  0.00000000000E+00 0.  1.
         14    1    4    4    0    0 -0.21143707568E+02 -0.47662715890E+02  0.19285360845E+03  0.19977813982E+03  0.00000000000E+00 0. -1.
         -5    1    5    5    0  502  0.56206223525E+02  0.83009478993E+01  0.39133152867E+03  0.39546238839E+03  0.47000000000E+01 0.  1.
         11    1    6    6    0    0 -0.79046578485E+02  0.23703770618E+02  0.71120932561E+03  0.71598109972E+03  0.00000000000E+00 0. -1.
        -12    1    6    6    0    0 -0.20358618900E+02 -0.28184650078E+02  0.11437069293E+03  0.11953871032E+03  0.00000000000E+00 0.  1.
</event>
<event>
12    1  0.1628146E-001  0.1956076E+03  0.7818608E-02  0.1153583E+00
         21   -1    0    0  501  502  0.00000000000E+00  0.00000000000E+00  0.12814479184E+03  0.12814479184E+03  0.00000000000E+00 0. -1.
         21   -1    0    0  502  503 -0.00000000000E+00 -0.00000000000E+00 -0.41271511211E+03  0.41271511211E+03  0.00000000000E+00 0. -1.
         -6    2    1    2    0  503 -0.74665273507E+01 -0.93555341979E+02 -0.28476020328E+03  0.34525225467E+03  0.17117942323E+03 0.  0.
        -24    2    3    3    0    0 -0.43977403131E+02 -0.11718419385E+03 -0.19663516235E+03  0.24686790870E+03  0.81315619667E+02 0.  0.
          6    2    1    2  501    0  0.74665273507E+01  0.93555341979E+02  0.18988301555E+00  0.19560764929E+03  0.17162157603E+03 0.  0.
         24    2    5    5    0    0 -0.48417231094E+02  0.68053866132E+02 -0.42668676346E+02  0.12055922599E+03  0.75751924522E+02 0.  0.
          5    1    5    5  501    0  0.55883758444E+02  0.25501475847E+02  0.42858559361E+02  0.75048423293E+02  0.47000000000E+01 0. -1.
        -11    1    6    6    0    0 -0.43153125031E+02  0.34454285889E+01 -0.62335534833E+00  0.43294939081E+02  0.00000000000E+00 0.  1.
         12    1    6    6    0    0 -0.52641060626E+01  0.64608437543E+02 -0.42045320997E+02  0.77264286913E+02  0.00000000000E+00 0. -1.
         -5    1    3    3    0  503  0.36510875780E+02  0.23628851872E+02 -0.88125040932E+02  0.98384345962E+02  0.47000000000E+01 0.  1.
         11    1    4    4    0    0 -0.23278698706E+02 -0.27863764842E+02 -0.12600072653E+03  0.13112768697E+03  0.00000000000E+00 0. -1.
        -12    1    4    4    0    0 -0.20698704425E+02 -0.89320429009E+02 -0.70634435818E+02  0.11574022173E+03  0.00000000000E+00 0.  1.
</event>
<event>
12    1  0.1628146E-001  0.2027772E+03  0.7818608E-02  0.1147894E+00
         21   -1    0    0  501  502  0.00000000000E+00  0.00000000000E+00  0.15807585532E+03  0.15807585532E+03  0.00000000000E+00 0. -1.
         21   -1    0    0  502  503 -0.00000000000E+00 -0.00000000000E+00 -0.36278467451E+03  0.36278467451E+03  0.00000000000E+00 0. -1.
         -6    2    1    2    0  503 -0.83500678515E+02  0.66168858634E+02 -0.24244507840E+03  0.31460191663E+03  0.16983541664E+03 0.  0.
        -24    2    3    3    0    0 -0.64758597435E+02  0.53027592784E+02 -0.59822898531E+02  0.13049078430E+03  0.80271190719E+02 0.  0.
          6    2    1    2  501    0  0.83500678515E+02 -0.66168858634E+02  0.37736259208E+02  0.20625861319E+03  0.17253379116E+03 0.  0.
         24    2    5    5    0    0  0.12357905576E+02  0.25543695159E+02  0.26532809191E+01  0.84910386872E+02  0.79984596683E+02 0.  0.
          5    1    5    5  501    0  0.71142772939E+02 -0.91712553793E+02  0.35082978289E+02  0.12134822632E+03  0.47000000000E+01 0. -1.
        -13    1    6    6    0    0 -0.72703000979E+01 -0.95067599155E+01 -0.30538524628E+02  0.32799957836E+02  0.00000000000E+00 0.  1.
         14    1    6    6    0    0  0.19628205674E+02  0.35050455075E+02  0.33191805547E+02  0.52110429037E+02  0.00000000000E+00 0. -1.
         -5    1    3    3    0  503 -0.18742081080E+02  0.13141265850E+02 -0.18262217987E+03  0.18411113234E+03  0.47000000000E+01 0.  1.
         13    1    4    4    0    0 -0.75857494320E+02  0.55321312834E+02 -0.68497670067E+02  0.11621849209E+03  0.00000000000E+00 0. -1.
        -14    1    4    4    0    0  0.11098896886E+02 -0.22937200491E+01  0.86747715358E+01  0.14272292210E+02  0.00000000000E+00 0.  1.
</event>
<event>
12    1  0.1628146E-001  0.2724269E+03  0.7818608E-02  0.1100066E+00
         21   -1    0    0  501  502  0.00000000000E+00  0.00000000000E+00  0.90907608234E+02  0.90907608234E+02  0.00000000000E+00 0.  1.
         21   -1    0    0  502  503 -0.00000000000E+00 -0.00000000000E+00 -0.81633728722E+03  0.81633728722E+03  0.00000000000E+00 0. -1.
         -6    2    1    2    0  503  0.79813159760E+02 -0.19577178812E+03 -0.39157542857E+03  0.47634458031E+03  0.16992971911E+03 0.  0.
        -24    2    3    3    0    0  0.62561388108E+02 -0.71728828247E+02 -0.29073535196E+03  0.31548721936E+03  0.77111533633E+02 0.  0.
          6    2    1    2  501    0 -0.79813159760E+02  0.19577178812E+03 -0.33385425042E+03  0.43090031514E+03  0.17181294355E+03 0.  0.
         24    2    5    5    0    0 -0.11982261150E+03  0.17354640431E+03 -0.29200916528E+03  0.36870847433E+03  0.78744991961E+02 0.  0.
          5    1    5    5  501    0  0.40009451735E+02  0.22225383815E+02 -0.41845085139E+02  0.62191840817E+02  0.47000000000E+01 0. -1.
        -11    1    6    6    0    0 -0.81460798344E+02  0.51613855014E+02 -0.10983657899E+03  0.14616403724E+03  0.00000000000E+00 0.  1.
         12    1    6    6    0    0 -0.38361813152E+02  0.12193254929E+03 -0.18217258629E+03  0.22254443709E+03  0.00000000000E+00 0. -1.
         -5    1    3    3    0  503  0.17251771652E+02 -0.12404295988E+03 -0.10084007661E+03  0.16085736095E+03  0.47000000000E+01 0.  1.
         13    1    4    4    0    0 -0.14836660838E+02 -0.28599822239E+02 -0.10243374149E+03  0.10738131929E+03  0.00000000000E+00 0. -1.
        -14    1    4    4    0    0  0.77398048946E+02 -0.43129006008E+02 -0.18830161047E+03  0.20810590007E+03  0.00000000000E+00 0.  1.
</event>
<event>
12    1  0.1628146E-001  0.2375214E+03  0.7818608E-02  0.1122223E+00
         21   -1    0    0  501  502  0.00000000000E+00  0.00000000000E+00  0.16423800740E+03  0.16423800740E+03  0.00000000000E+00 0. -1.
         21   -1    0    0  502  503 -0.00000000000E+00 -0.00000000000E+00 -0.54973055113E+03  0.54973055113E+03  0.00000000000E+00 0.  1.
         -6    2    1    2    0  503  0.14878166003E+03  0.54976516115E+02 -0.41593080538E+03  0.47897272169E+03  0.17679941622E+03 0.  0.
        -24    2    3    3    0    0  0.35599761899E+02  0.79832620330E+02 -0.17259192790E+03  0.20941035920E+03  0.80150699604E+02 0.  0.
          6    2    1    2  501    0 -0.14878166003E+03 -0.54976516115E+02  0.30438261652E+02  0.23499583684E+03  0.17069902131E+03 0.  0.
         24    2    5    5    0    0 -0.90193766043E+02  0.19151747699E+02 -0.26204583304E+02  0.12473232201E+03  0.79810820667E+02 0.  0.
          5    1    5    5  501    0 -0.58587893983E+02 -0.74128263814E+02  0.56642844956E+02  0.11026351483E+03  0.47000000000E+01 0. -1.
        -11    1    6    6    0    0 -0.18538581787E+02  0.18714710794E+02 -0.43649992308E+02  0.50982754371E+02  0.00000000000E+00 0.  1.
         12    1    6    6    0    0 -0.71655184256E+02  0.43703690504E+00  0.17445409003E+02  0.73749567642E+02  0.00000000000E+00 0. -1.
         -5    1    3    3    0  503  0.11318189813E+03 -0.24856104214E+02 -0.24333887748E+03  0.26956236250E+03  0.47000000000E+01 0.  1.
         13    1    4    4    0    0 -0.34162086370E+01  0.67822410521E+02 -0.14506764659E+03  0.16017544112E+03  0.00000000000E+00 0. -1.
        -14    1    4    4    0    0  0.39015970536E+02  0.12010209808E+02 -0.27524281307E+02  0.49234918076E+02  0.00000000000E+00 0.  1.
</event>
<event>
12    1  0.1628146E-001  0.2148233E+03  0.7818608E-02  0.1141188E+00
         21   -1    0    0  503  502  0.00000000000E+00  0.00000000000E+00  0.28747368916E+03  0.28747368916E+03  0.00000000000E+00 0.  1.
         21   -1    0    0  501  503 -0.00000000000E+00 -0.00000000000E+00 -0.18274095196E+03  0.18274095196E+03  0.00000000000E+00 0. -1.
          6    2    1    2  501    0  0.84557990107E+02 -0.51010576777E+02  0.15627786701E+03  0.26565359339E+03  0.19077978754E+03 0.  0.
         24    2    3    3    0    0  0.11564690258E+03  0.82085276764E+01  0.12819564045E+03  0.19296161131E+03  0.85781555169E+02 0.  0.
         -6    2    1    2    0  502 -0.84557990107E+02  0.51010576777E+02 -0.51545129804E+02  0.20456104772E+03  0.17156977940E+03 0.  0.
        -24    2    5    5    0    0 -0.93192166363E+02  0.37941030651E+02 -0.93747849086E+02  0.15930045172E+03  0.80396971531E+02 0.  0.
          5    1    3    3  501    0 -0.31088912468E+02 -0.59219104453E+02  0.28082226556E+02  0.72691982082E+02  0.47000000000E+01 0. -1.
        -13    1    4    4    0    0  0.77013775531E+02  0.84830534598E+01  0.13310880355E+03  0.15401635433E+03  0.00000000000E+00 0.  1.
         14    1    4    4    0    0  0.38633127044E+02 -0.27452578343E+00 -0.49131631034E+01  0.38945256980E+02  0.00000000000E+00 0. -1.
         -5    1    5    5    0  502  0.86341762559E+01  0.13069546126E+02  0.42202719282E+02  0.45260596001E+02  0.47000000000E+01 0.  1.
         13    1    6    6    0    0 -0.51050681286E+02  0.15630693889E+01 -0.90026151402E+02  0.10350518432E+03  0.00000000000E+00 0. -1.
        -14    1    6    6    0    0 -0.42141485077E+02  0.36377961262E+02 -0.37216976843E+01  0.55795267396E+02  0.00000000000E+00 0.  1.
</event>
<event>
12    1  0.1628146E-001  0.2889607E+03  0.7818608E-02  0.1091021E+00
         21   -1    0    0  501  502  0.00000000000E+00  0.00000000000E+00  0.18735395322E+03  0.18735395322E+03  0.00000000000E+00 0. -1.
         21   -1    0    0  502  503 -0.00000000000E+00 -0.00000000000E+00 -0.46914452709E+03  0.46914452709E+03  0.00000000000E+00 0.  1.
         -6    2    1    2    0  503  0.13274377819E+02 -0.23046546488E+03 -0.21685165826E+03  0.36127957141E+03  0.17380376124E+03 0.  0.
        -24    2    3    3    0    0  0.21131065946E+02 -0.75110747822E+02 -0.25697331053E+02  0.11478640220E+03  0.80171185097E+02 0.  0.
          6    2    1    2  501    0 -0.13274377819E+02  0.23046546488E+03 -0.64938915614E+02  0.29521890890E+03  0.17218188581E+03 0.  0.
         24    2    5    5    0    0  0.54449777987E+02  0.17209057494E+03 -0.53700544256E+02  0.20498266315E+03  0.80958010323E+02 0.  0.
          5    1    5    5  501    0 -0.67724155806E+02  0.58374889941E+02 -0.11238371359E+02  0.90236245744E+02  0.47000000000E+01 0. -1.
        -11    1    6    6    0    0 -0.20677971064E+02  0.43771617785E+02 -0.20815752059E+02  0.52695621683E+02  0.00000000000E+00 0.  1.
         12    1    6    6    0    0  0.75127749051E+02  0.12831895715E+03 -0.32884792197E+02  0.15228704147E+03  0.00000000000E+00 0. -1.
         -5    1    3    3    0  503 -0.78566881274E+01 -0.15535471705E+03 -0.19115432720E+03  0.24649316921E+03  0.47000000000E+01 0.  1.
         13    1    4    4    0    0  0.30717216200E+02 -0.89462950712E+02 -0.20863377397E+02  0.96863034422E+02  0.00000000000E+00 0. -1.
        -14    1    4    4    0    0 -0.95861502536E+01  0.14352202890E+02 -0.48339536565E+01  0.17923367776E+02  0.00000000000E+00 0.  1.
</event>
<event>
12    1  0.1628146E-001  0.2201387E+03  0.7818608E-02  0.1133808E+00
         21   -1    0    0  503  502  0.00000000000E+00  0.00000000000E+00  0.31728175231E+03  0.31728175231E+03  0.00000000000E+00 0. -1.
         21   -1    0    0  501  503 -0.00000000000E+00 -0.00000000000E+00 -0.37166014581E+03  0.37166014581E+03  0.00000000000E+00 0. -1.
          6    2    1    2  501    0 -0.11722674324E+03 -0.71390772700E+02 -0.29163326106E+03  0.36539160505E+03  0.17211134282E+03 0.  0.
         24    2    3    3    0    0 -0.14533848642E+03 -0.31152486166E+02 -0.20595542517E+03  0.26653731142E+03  0.80813044679E+02 0.  0.
         -6    2    1    2    0  502  0.11722674324E+03  0.71390772700E+02  0.23725486755E+03  0.32355029308E+03  0.17191907461E+03 0.  0.
        -24    2    5    5    0    0  0.10685841296E+03  0.32489920608E+01  0.21055196911E+03  0.24948316591E+03  0.80501192571E+02 0.  0.
          5    1    3    3  501    0  0.28111743177E+02 -0.40238286534E+02 -0.85677835883E+02  0.98854293631E+02  0.47000000000E+01 0. -1.
        -11    1    4    4    0    0 -0.69391220952E+02  0.32834600193E+01 -0.15225069343E+03  0.16735051929E+03  0.00000000000E+00 0.  1.
         12    1    4    4    0    0 -0.75947265469E+02 -0.34435946185E+02 -0.53704731741E+02  0.99186792131E+02  0.00000000000E+00 0. -1.
         -5    1    5    5    0  502  0.10368330283E+02  0.68141780639E+02  0.26702898439E+02  0.74067127166E+02  0.47000000000E+01 0.  1.
         11    1    6    6    0    0 -0.36947289866E+01 -0.20192991210E+02  0.26770186022E+02  0.33735008166E+02  0.00000000000E+00 0. -1.
        -12    1    6    6    0    0  0.11055314195E+03  0.23441983271E+02  0.18378178309E+03  0.21574815774E+03  0.00000000000E+00 0.  1.
</event>
<event>
12    1  0.1628146E-001  0.1789943E+03  0.7818608E-02  0.1169797E+00
         21   -1    0    0  503  502  0.00000000000E+00  0.00000000000E+00  0.76142350079E+02  0.76142350079E+02  0.00000000000E+00 0.  1.
         21   -1    0    0  501  503 -0.00000000000E+00 -0.00000000000E+00 -0.53683690048E+03  0.53683690048E+03  0.00000000000E+00 0.  1.
          6    2    1    2  501    0 -0.11867835005E+02  0.48286237400E+02 -0.37658646124E+03  0.41520885226E+03  0.16765626137E+03 0.  0.
         24    2    3    3    0    0 -0.14063797641E+02 -0.35817864690E+02 -0.22178047941E+03  0.23895532959E+03  0.80201986639E+02 0.  0.
         -6    2    1    2    0  502  0.11867835005E+02 -0.48286237400E+02 -0.84108089157E+02  0.19777039829E+03  0.17194927610E+03 0.  0.
        -24    2    5    5    0    0 -0.49020462734E+02 -0.16023327068E+02 -0.92248906735E+01  0.95898598469E+02  0.80322411589E+02 0.  0.
          5    1    3    3  501    0  0.21959626360E+01  0.84104102090E+02 -0.15480598183E+03  0.17625352267E+03  0.47000000000E+01 0. -1.
        -13    1    4    4    0    0 -0.39813599595E+02 -0.21362949990E+02 -0.19111501476E+03  0.19638341889E+03  0.00000000000E+00 0.  1.
         14    1    4    4    0    0  0.25749801954E+02 -0.14454914701E+02 -0.30665464643E+02  0.42571910709E+02  0.00000000000E+00 0. -1.
         -5    1    5    5    0  502  0.60888297739E+02 -0.32262910332E+02 -0.74883198483E+02  0.10187179983E+03  0.47000000000E+01 0.  1.
         13    1    6    6    0    0 -0.10369485580E+02  0.34084824795E+01  0.33417097968E+02  0.35154607388E+02  0.00000000000E+00 0. -1.
        -14    1    6    6    0    0 -0.38650977154E+02 -0.19431809547E+02 -0.42641988641E+02  0.60743991081E+02  0.00000000000E+00 0.  1.
</event>
<event>
12    1  0.1628146E-001  0.1808041E+03  0.7818608E-02  0.1167088E+00
         21   -1    0    0  503  502  0.00000000000E+00  0.00000000000E+00  0.58469290347E+02  0.58469290347E+02  0.00000000000E+00 0.  1.
         21   -1    0    0  501  503 -0.00000000000E+00 -0.00000000000E+00 -0.63617396328E+03  0.63617396328E+03  0.00000000000E+00 0. -1.
          6    2    1    2  501    0  0.44628001318E+01  0.55275027833E+02 -0.16752517076E+03  0.24648492653E+03  0.17208977565E+03 0.  0.
         24    2    3    3    0    0  0.43982573397E+02 -0.23315402484E+02 -0.76469774448E+02  0.11979063537E+03  0.77615044685E+02 0.  0.
         -6    2    1    2    0  502 -0.44628001318E+01 -0.55275027833E+02 -0.41017950217E+03  0.44815832710E+03  0.17182379595E+03 0.  0.
        -24    2    5    5    0    0  0.10459699440E+02 -0.87522639694E+02 -0.38784397723E+03  0.40592616946E+03  0.81138687493E+02 0.  0.
          5    1    3    3  501    0 -0.39519773266E+02  0.78590430317E+02 -0.91055396315E+02  0.12669429117E+03  0.47000000000E+01 0. -1.
        -13    1    4    4    0    0  0.16357195427E+02 -0.46005874886E+02 -0.66825513491E+02  0.82763202086E+02  0.00000000000E+00 0.  1.
         14    1    4    4    0    0  0.27625377970E+02  0.22690472402E+02 -0.96442609575E+01  0.37027433279E+02  0.00000000000E+00 0. -1.
         -5    1    5    5    0  502 -0.14922499572E+02  0.32247611861E+02 -0.22335524946E+02  0.42232157638E+02  0.47000000000E+01 0.  1.
         11    1    6    6    0    0  0.26805184943E+02 -0.65519758146E+01 -0.41279045512E+02  0.49652854150E+02  0.00000000000E+00 0. -1.
        -12    1    6    6    0    0 -0.16345485503E+02 -0.80970663879E+02 -0.34656493171E+03  0.35627331531E+03  0.00000000000E+00 0.  1.
</event>
<event>
12    1  0.1628146E-001  0.1757749E+03  0.7818608E-02  0.1172383E+00
         21   -1    0    0  503  502  0.00000000000E+00  0.00000000000E+00  0.80537402047E+02  0.80537402047E+02  0.00000000000E+00 0. -1.
         21   -1    0    0  501  503 -0.00000000000E+00 -0.00000000000E+00 -0.44991996584E+03  0.44991996584E+03  0.00000000000E+00 0. -1.
          6    2    1    2  501    0 -0.26507501068E+02  0.23814307409E+02 -0.29006253630E+03  0.33916526197E+03  0.17212504499E+03 0.  0.
         24    2    3    3    0    0  0.31026325960E+02 -0.13024711098E+02 -0.23504460342E+03  0.25132268986E+03  0.82370218153E+02 0.  0.
         -6    2    1    2    0  502  0.26507501068E+02 -0.23814307409E+02 -0.79320027488E+02  0.19129210591E+03  0.17038554567E+03 0.  0.
        -24    2    5    5    0    0  0.51843406028E+00 -0.77981211289E+02 -0.44929593526E+02  0.12190711454E+03  0.82227356231E+02 0.  0.
          5    1    3    3  501    0 -0.57533827028E+02  0.36839018507E+02 -0.55017932882E+02  0.87842572114E+02  0.47000000000E+01 0. -1.
        -13    1    4    4    0    0 -0.14117625117E+02 -0.93560035543E+00 -0.28005683378E+01  0.14423101954E+02  0.00000000000E+00 0.  1.
         14    1    4    4    0    0  0.45143951077E+02 -0.12089110742E+02 -0.23224403508E+03  0.23689958790E+03  0.00000000000E+00 0. -1.
         -5    1    5    5    0  502  0.25989067008E+02  0.54166903880E+02 -0.34390433962E+02  0.69384991374E+02  0.47000000000E+01 0.  1.
         13    1    6    6    0    0  0.41007082984E+02 -0.34069890766E+02 -0.16897389029E+02  0.55927274810E+02  0.00000000000E+00 0. -1.
        -14    1    6    6    0    0 -0.40488648923E+02 -0.43911320522E+02 -0.28032204497E+02  0.65979839729E+02  0.00000000000E+00 0.  1.
</event>
<event>
12    1  0.1628146E-001  0.1885007E+03  0.7818608E-02  0.1159839E+00
         21   -1    0    0  503  502  0.00000000000E+00  0.00000000000E+00  0.48049556735E+03  0.48049556735E+03  0.00000000000E+00 0.  1.
         21   -1    0    0  501  503 -0.00000000000E+00 -0.00000000000E+00 -0.11479628261E+03  0.11479628261E+03  0.00000000000E+00 0. -1.
          6    2    1    2  501    0 -0.37279746376E+02 -0.67381483802E+02  0.52593633316E+01  0.18857409946E+03  0.17205373066E+03 0.  0.
         24    2    3    3    0    0  0.32747570566E+02 -0.49589308413E+02 -0.35310836727E+02  0.10557760702E+03  0.79801460060E+02 0.  0.
         -6    2    1    2    0  502  0.37279746376E+02  0.67381483802E+02  0.36043992142E+03  0.40671775051E+03  0.17196612392E+03 0.  0.
        -24    2    5    5    0    0  0.54832986204E+01  0.29928110004E+02  0.27365406833E+02  0.70006462362E+02  0.56800360467E+02 0.  0.
          5    1    3    3  501    0 -0.70027316942E+02 -0.17792175389E+02  0.40570200059E+02  0.82996492432E+02  0.47000000000E+01 0. -1.
        -11    1    4    4    0    0  0.15953066156E+02  0.21316573861E+02 -0.89902178068E+01  0.28101968920E+02  0.00000000000E+00 0.  1.
         12    1    4    4    0    0  0.16794504409E+02 -0.70905882273E+02 -0.26320618921E+02  0.77475638104E+02  0.00000000000E+00 0. -1.
         -5    1    5    5    0  502  0.31796447756E+02  0.37453373798E+02  0.33307451458E+03  0.33671128814E+03  0.47000000000E+01 0.  1.
         13    1    6    6    0    0 -0.20975931600E+02  0.19925237448E+02  0.29900961267E+02  0.41606156739E+02  0.00000000000E+00 0. -1.
        -14    1    6    6    0    0  0.26459230221E+02  0.10002872556E+02 -0.25355544339E+01  0.28400305624E+02  0.00000000000E+00 0.  1.
</event>
<event>
12    1  0.1628146E-001  0.2135262E+03  0.7818608E-02  0.1138818E+00
         21   -1    0    0  501  502  0.00000000000E+00  0.00000000000E+00  0.15619597704E+04  0.15619597704E+04  0.00000000000E+00 0.  1.
         21   -1    0    0  502  503 -0.00000000000E+00 -0.00000000000E+00 -0.19777814778E+03  0.19777814778E+03  0.00000000000E+00 0.  1.
         -6    2    1    2    0  503  0.63286789841E+02  0.10851985449E+03 -0.13029970157E+03  0.25007972360E+03  0.17256905674E+03 0.  0.
        -24    2    3    3    0    0 -0.12939397489E+01  0.19873450101E+02 -0.29718900845E+01  0.81962748784E+02  0.79450813455E+02 0.  0.
          6    2    1    2  501    0 -0.63286789841E+02 -0.10851985449E+03  0.14944813242E+04  0.15096581946E+04  0.17266053256E+03 0.  0.
         24    2    5    5    0    0 -0.19743611242E+02 -0.13472201039E+03  0.97565851078E+03  0.98833126923E+03  0.79682732157E+02 0.  0.
          5    1    5    5  501    0 -0.43543178599E+02  0.26202155906E+02  0.51882281345E+03  0.52132692539E+03  0.47000000000E+01 0. -1.
        -11    1    6    6    0    0 -0.46526963082E+02 -0.10033266057E+03  0.78507358913E+03  0.79282529060E+03  0.00000000000E+00 0.  1.
         12    1    6    6    0    0  0.26783351840E+02 -0.34389349827E+02  0.19058492165E+03  0.19550597862E+03  0.00000000000E+00 0. -1.
         -5    1    3    3    0  503  0.64580729590E+02  0.88646404386E+02 -0.12732781149E+03  0.16811697482E+03  0.47000000000E+01 0.  1.
         13    1    4    4    0    0 -0.51761328796E+01  0.37378860255E+02 -0.30900874390E+02  0.48773308106E+02  0.00000000000E+00 0. -1.
        -14    1    4    4    0    0  0.38821931308E+01 -0.17505410154E+02  0.27928984306E+02  0.33189440678E+02  0.00000000000E+00 0.  1.
</event>
<event>
12    1  0.1628146E-001  0.1933867E+03  0.7818608E-02  0.1155897E+00
         21   -1    0    0  503  502  0.00000000000E+00  0.00000000000E+00  0.12268602979E+04  0.12268602979E+04  0.00000000000E+00 0. -1.
         21   -1    0    0  501  503 -0.00000000000E+00 -0.00000000000E+00 -0.45585241576E+02  0.45585241576E+02  0.00000000000E+00 0. -1.
          6    2    1    2  501    0  0.75007771920E+02 -0.45999207015E+02  0.96281312414E+03  0.98204253582E+03  0.17221015429E+03 0.  0.
         24    2    3    3    0    0  0.36777387348E+01  0.23321370135E+02  0.46833999276E+03  0.47764280970E+03  0.90790378181E+02 0.  0.
         -6    2    1    2    0  502 -0.75007771920E+02  0.45999207015E+02  0.21846193219E+03  0.29040300367E+03  0.16990054687E+03 0.  0.
        -24    2    5    5    0    0 -0.10996597865E+03  0.59853653906E+01  0.17748347526E+03  0.22313854298E+03  0.78498944651E+02 0.  0.
          5    1    3    3  501    0  0.71330033185E+02 -0.69320577150E+02  0.49447313138E+03  0.50439972612E+03  0.47000000000E+01 0. -1.
        -11    1    4    4    0    0 -0.34311990008E+02 -0.17101092868E+02  0.19154965712E+03  0.19534848650E+03  0.00000000000E+00 0.  1.
         12    1    4    4    0    0  0.37989728743E+02  0.40422463003E+02  0.27679033565E+03  0.28229432320E+03  0.00000000000E+00 0. -1.
         -5    1    5    5    0  502  0.34958206734E+02  0.40013841624E+02  0.40978456928E+02  0.67264460689E+02  0.47000000000E+01 0.  1.
         11    1    6    6    0    0 -0.40316173218E+02  0.23079667008E+02  0.12756142823E+03  0.13575707283E+03  0.00000000000E+00 0. -1.
        -12    1    6    6    0    0 -0.69649805436E+02 -0.17094301617E+02  0.49922047033E+02  0.87381470147E+02  0.00000000000E+00 0.  1.
</event>
<event>
12    1  0.1628146E-001  0.2002843E+03  0.7818608E-02  0.1150178E+00
         21   -1    0    0  503  502  0.00000000000E+00  0.00000000000E+00  0.11694043276E+04  0.11694043276E+04  0.00000000000E+00 0.  1.
         21   -1    0    0  501  503 -0.00000000000E+00 -0.00000000000E+00 -0.35086079789E+02  0.35086079789E+02  0.00000000000E+00 0.  1.
          6    2    1    2  501    0 -0.76743891643E+02 -0.68799945847E+02  0.44560106064E+03  0.48724207992E+03  0.16799250503E+03 0.  0.
         24    2    3    3    0    0 -0.71661452341E+01 -0.66223037151E+02  0.14308503530E+03  0.17678155289E+03  0.79633823401E+02 0.  0.
         -6    2    1    2    0  502  0.76743891643E+02  0.68799945847E+02  0.68871718716E+03  0.71724832746E+03  0.17172868689E+03 0.  0.
        -24    2    5    5    0    0  0.28189474821E+02 -0.72071870662E+01  0.16231871370E+03  0.18315839261E+03  0.79705971732E+02 0.  0.
          5    1    3    3  501    0 -0.69577746409E+02 -0.25769086961E+01  0.30251602534E+03  0.31046052703E+03  0.47000000000E+01 0. -1.
        -11    1    4    4    0    0  0.90351735529E+01 -0.79773116893E+02  0.12693899133E+03  0.15019617858E+03  0.00000000000E+00 0.  1.
         12    1    4    4    0    0 -0.16201318787E+02  0.13550079743E+02  0.16146043967E+02  0.26585374311E+02  0.00000000000E+00 0. -1.
         -5    1    5    5    0  502  0.48554416822E+02  0.76007132913E+02  0.52639847346E+03  0.53408993485E+03  0.47000000000E+01 0.  1.
         13    1    6    6    0    0  0.51941068116E+02 -0.12887546633E+02  0.14073291749E+03  0.15056466213E+03  0.00000000000E+00 0. -1.
        -14    1    6    6    0    0 -0.23751593294E+02  0.56803595665E+01  0.21585796206E+02  0.32593730481E+02  0.00000000000E+00 0.  1.
</event>
<event>
12    1  0.1628146E-001  0.2197975E+03  0.7818608E-02  0.1134055E+00
         21   -1    0    0  501  502  0.00000000000E+00  0.00000000000E+00  0.11322012471E+03  0.11322012471E+03  0.00000000000E+00 0. -1.
         21   -1    0    0  502  503 -0.00000000000E+00 -0.00000000000E+00 -0.45379177221E+03  0.45379177221E+03  0.00000000000E+00 0.  1.
         -6    2    1    2    0  503 -0.11349015011E+03  0.75613313862E+02 -0.23979671324E+03  0.32521338970E+03  0.17223210432E+03 0.  0.
        -24    2    3    3    0    0 -0.13666548948E+03  0.27524071139E+02 -0.21877491115E+03  0.26764883652E+03  0.65866588150E+02 0.  0.
          6    2    1    2  501    0  0.11349015011E+03 -0.75613313862E+02 -0.10077493427E+03  0.24179850721E+03  0.17237616804E+03 0.  0.
         24    2    5    5    0    0  0.76068835475E+02 -0.63284676543E+02  0.63299568320E+01  0.12757986695E+03  0.80281604871E+02 0.  0.
          5    1    5    5  501    0  0.37421314638E+02 -0.12328637319E+02 -0.10710489110E+03  0.11421864027E+03  0.47000000000E+01 0. -1.
        -13    1    6    6    0    0  0.38913021977E+02 -0.77806153449E+02  0.97590957997E+01  0.87540052232E+02  0.00000000000E+00 0.  1.
         14    1    6    6    0    0  0.37155813498E+02  0.14521476906E+02 -0.34291389677E+01  0.40039814714E+02  0.00000000000E+00 0. -1.
         -5    1    3    3    0  503  0.23175339366E+02  0.48089242723E+02 -0.21021802086E+02  0.57564553185E+02  0.47000000000E+01 0.  1.
         13    1    4    4    0    0 -0.50315258334E+02 -0.12711315571E+02 -0.11834741214E+03  0.12922582066E+03  0.00000000000E+00 0. -1.
        -14    1    4    4    0    0 -0.86350231145E+02  0.40235386710E+02 -0.10042749901E+03  0.13842301586E+03  0.00000000000E+00 0.  1.
</event>
<event>
12    1  0.1628146E-001  0.1987808E+03  0.7818608E-02  0.1152078E+00
         21   -1    0    0  501  502  0.00000000000E+00  0.00000000000E+00  0.20312753111E+03  0.20312753111E+03  0.00000000000E+00 0.  1.
         21   -1    0    0  502  503 -0.00000000000E+00 -0.00000000000E+00 -0.20718537363E+03  0.20718537363E+03  0.00000000000E+00 0. -1.
         -6    2    1    2    0  503 -0.32381663022E+02 -0.79663290012E+02 -0.63402328683E+02  0.20864722243E+03  0.17921773425E+03 0.  0.
        -24    2    3    3    0    0 -0.27498202908E+02 -0.70808683809E+02 -0.11256549131E+03  0.15823533104E+03  0.81224437758E+02 0.  0.
          6    2    1    2  501    0  0.32381663022E+02  0.79663290012E+02  0.59344486170E+02  0.20166568230E+03  0.17248903590E+03 0.  0.
         24    2    5    5    0    0  0.17439761304E+02  0.94763555944E+02 -0.23655407152E+01  0.13623254180E+03  0.96277893895E+02 0.  0.
          5    1    5    5  501    0  0.14941901718E+02 -0.15100265932E+02  0.61710026885E+02  0.65433140505E+02  0.47000000000E+01 0. -1.
        -13    1    6    6    0    0  0.41250395205E+02  0.52637199377E+02  0.34640628881E+02  0.75314295005E+02  0.00000000000E+00 0.  1.
         14    1    6    6    0    0 -0.23810633901E+02  0.42126356567E+02 -0.37006169596E+02  0.60918246795E+02  0.00000000000E+00 0. -1.
         -5    1    3    3    0  503 -0.48834601137E+01 -0.88546062036E+01  0.49163162631E+02  0.50411891391E+02  0.47000000000E+01 0.  1.
         13    1    4    4    0    0 -0.31643387978E+02  0.75673535101E+01 -0.37251216317E+02  0.49459295982E+02  0.00000000000E+00 0. -1.
        -14    1    4    4    0    0  0.41451850703E+01 -0.78376037319E+02 -0.75314274997E+02  0.10877603506E+03  0.00000000000E+00 0.  1.
</event>
<event>
12    1  0.1628146E-001  0.2190644E+03  0.7818608E-02  0.1135166E+00
         21   -1    0    0  503  502  0.00000000000E+00  0.00000000000E+00  0.85404195130E+02  0.85404195130E+02  0.00000000000E+00 0. -1.
         21   -1    0    0  501  503 -0.00000000000E+00 -0.00000000000E+00 -0.61737584077E+03  0.61737584077E+03  0.00000000000E+00 0.  1.
          6    2    1    2  501    0  0.13136990366E+03 -0.10816908626E+02 -0.37686009109E+03  0.43436091763E+03  0.17108717486E+03 0.  0.
         24    2    3    3    0    0  0.51682191504E+02  0.20771695839E+02 -0.30851002801E+03  0.32462581602E+03  0.84267258032E+02 0.  0.
         -6    2    1    2    0  502 -0.13136990366E+03  0.10816908626E+02 -0.15511155455E+03  0.26841911828E+03  0.17496905898E+03 0.  0.
        -24    2    5    5    0    0 -0.81391754181E+02  0.53652807371E+02 -0.35933356471E+02  0.13219040418E+03  0.81730382745E+02 0.  0.
          5    1    3    3  501    0  0.79687712158E+02 -0.31588604465E+02 -0.68350063084E+02  0.10973510161E+03  0.47000000000E+01 0. -1.
        -11    1    4    4    0    0  0.41115238949E+02 -0.28882505634E+02 -0.15373501431E+03  0.16173780210E+03  0.00000000000E+00 0.  1.
         12    1    4    4    0    0  0.10566952555E+02  0.49654201473E+02 -0.15477501371E+03  0.16288801392E+03  0.00000000000E+00 0. -1.
         -5    1    5    5    0  502 -0.49978149481E+02 -0.42835898745E+02 -0.11917819808E+03  0.13622871409E+03  0.47000000000E+01 0.  1.
         13    1    6    6    0    0 -0.26422956330E+01 -0.19519944890E+02 -0.63559102831E+01  0.20698008847E+02  0.00000000000E+00 0. -1.
        -14    1    6    6    0    0 -0.78749458548E+02  0.73172752260E+02 -0.29577446188E+02  0.11149239534E+03  0.00000000000E+00 0.  1.
</event>
<event>
12    1  0.1628146E-001  0.2090723E+03  0.7818608E-02  0.1142500E+00
         21   -1    0    0  501  502  0.00000000000E+00  0.00000000000E+00  0.75173570030E+02  0.75173570030E+02  0.00000000000E+00 0. -1.
         21   -1    0    0  502  503 -0.00000000000E+00 -0.00000000000E+00 -0.87352107266E+03  0.87352107266E+03  0.00000000000E+00 0. -1.
         -6    2    1    2    0  503 -0.57630432225E+01  0.11747923723E+03 -0.67536249950E+03  0.70698355688E+03  0.17284866247E+03 0.  0.
        -24    2    3    3    0    0  0.61095238734E+02  0.77871792627E+02 -0.34932600300E+03  0.37178113060E+03  0.79974423497E+02 0.  0.
          6    2    1    2  501    0  0.57630432225E+01 -0.11747923723E+03 -0.12298500313E+03  0.24171108581E+03  0.17165183996E+03 0.  0.
         24    2    5    5    0    0  0.62875256855E+02 -0.11168113701E+03 -0.97912120135E+02  0.17889259829E+03  0.77393825123E+02 0.  0.
          5    1    5    5  501    0 -0.57112213632E+02 -0.57981002265E+01 -0.25072882994E+02  0.62818487516E+02  0.47000000000E+01 0. -1.
        -13    1    6    6    0    0  0.17868837081E+02 -0.27529863284E+01 -0.47277189773E+02  0.50616271546E+02  0.00000000000E+00 0.  1.
         14    1    6    6    0    0  0.45006419774E+02 -0.10892815068E+03 -0.50634930362E+02  0.12827632675E+03  0.00000000000E+00 0. -1.
         -5    1    3    3    0  503 -0.66858281957E+02  0.39607444608E+02 -0.32603649650E+03  0.33520242628E+03  0.47000000000E+01 0.  1.
         11    1    4    4    0    0 -0.12300671350E+02  0.18555005561E+02 -0.14520412812E+03  0.14690076096E+03  0.00000000000E+00 0. -1.
        -12    1    4    4    0    0  0.73395910084E+02  0.59316787065E+02 -0.20412187488E+03  0.22488036964E+03  0.00000000000E+00 0.  1.
</event>
<event>
12    1  0.1628146E-001  0.2039374E+03  0.7818608E-02  0.1149630E+00
         21   -1    0    0  501  502  0.00000000000E+00  0.00000000000E+00  0.34984987793E+03  0.34984987793E+03  0.00000000000E+00 0. -1.
         21   -1    0    0  502  503 -0.00000000000E+00 -0.00000000000E+00 -0.14466491958E+03  0.14466491958E+03  0.00000000000E+00 0.  1.
         -6    2    1    2    0  503  0.57296488427E+02  0.52479229113E+02 -0.20620113665E+02  0.19024781094E+03  0.17242993767E+03 0.  0.
        -24    2    3    3    0    0  0.13229265947E+02  0.38283771499E+02  0.54852904918E+02  0.10158159614E+03  0.75294879361E+02 0.  0.
          6    2    1    2  501    0 -0.57296488427E+02 -0.52479229113E+02  0.22580507202E+03  0.30426698656E+03  0.18855638808E+03 0.  0.
         24    2    5    5    0    0  0.23136254624E+02  0.12149669334E+02  0.76192458466E+02  0.12246394807E+03  0.92245472018E+02 0.  0.
          5    1    5    5  501    0 -0.80432743051E+02 -0.64628898448E+02  0.14961261355E+03  0.18180303849E+03  0.47000000000E+01 0. -1.
        -13    1    6    6    0    0  0.83778535707E+01 -0.13587155998E+02 -0.17794936835E+02  0.23905208962E+02  0.00000000000E+00 0.  1.
         14    1    6    6    0    0  0.14758401053E+02  0.25736825332E+02  0.93987395301E+02  0.98558739112E+02  0.00000000000E+00 0. -1.
         -5    1    3    3    0  503  0.44067222480E+02  0.14195457614E+02 -0.75473018583E+02  0.88666214806E+02  0.47000000000E+01 0.  1.
         11    1    4    4    0    0  0.44816030159E+02  0.22270221682E+02  0.30587646484E+02  0.58651883605E+02  0.00000000000E+00 0. -1.
        -12    1    4    4    0    0 -0.31586764213E+02  0.16013549817E+02  0.24265258434E+02  0.42929712532E+02  0.00000000000E+00 0.  1.
</event>
<event>
12    1  0.1628146E-001  0.1811036E+03  0.7818608E-02  0.1167074E+00
         21   -1    0    0  503  502  0.00000000000E+00  0.00000000000E+00  0.14467478948E+03  0.14467478948E+03  0.00000000000E+00 0. -1.
         21   -1    0    0  501  503 -0.00000000000E+00 -0.00000000000E+00 -0.23812127284E+03  0.23812127284E+03  0.00000000000E+00 0. -1.
          6    2    1    2  501    0  0.53999928351E+02  0.51051913260E+01 -0.91870110398E+02  0.20307293660E+03  0.17279017667E+03 0.  0.
         24    2    3    3    0    0 -0.15676095221E+02  0.49908920462E+02 -0.32949883972E+02  0.10130945844E+03  0.80257530564E+02 0.  0.
         -6    2    1    2    0  502 -0.53999928351E+02 -0.51051913260E+01 -0.15763729635E+01  0.17972312573E+03  0.17133552384E+03 0.  0.
        -24    2    5    5    0    0 -0.55615207339E+02 -0.44430130321E+02  0.46460628076E+02  0.11744388824E+03  0.81039429634E+02 0.  0.
          5    1    3    3  501    0  0.69676023572E+02 -0.44803729136E+02 -0.58920226427E+02  0.10176347816E+03  0.47000000000E+01 0. -1.
        -13    1    4    4    0    0  0.85726286722E+01 -0.14774731175E+02  0.10166865720E+02  0.19878324935E+02  0.00000000000E+00 0.  1.
         14    1    4    4    0    0 -0.24248723893E+02  0.64683651637E+02 -0.43116749692E+02  0.81431133503E+02  0.00000000000E+00 0. -1.
         -5    1    5    5    0  502  0.16152789883E+01  0.39324938995E+02 -0.48037001039E+02  0.62279237487E+02  0.47000000000E+01 0.  1.
         11    1    6    6    0    0 -0.55035012448E+02  0.33791991623E+01  0.42214166367E+02  0.69442835657E+02  0.00000000000E+00 0. -1.
        -12    1    6    6    0    0 -0.58019489159E+00 -0.47809329484E+02  0.42464617089E+01  0.48001052580E+02  0.00000000000E+00 0.  1.
</event>
<event>
12    1  0.1628146E-001  0.2224922E+03  0.7818608E-02  0.1132144E+00
         21   -1    0    0  501  502  0.00000000000E+00  0.00000000000E+00  0.48757565530E+02  0.48757565530E+02  0.00000000000E+00 0.  1.
         21   -1    0    0  502  503 -0.00000000000E+00 -0.00000000000E+00 -0.14355512157E+04  0.14355512157E+04  0.00000000000E+00 0.  1.
         -6    2    1    2    0  503  0.10704537122E+03 -0.90958137474E+02 -0.28995498992E+03  0.36513148745E+03  0.17179933841E+03 0.  0.
        -24    2    3    3    0    0  0.12366471098E+03 -0.64221894929E+02 -0.29432830679E+03  0.33300291730E+03  0.69601567650E+02 0.  0.
          6    2    1    2  501    0 -0.10704537122E+03  0.90958137474E+02 -0.10968386602E+04  0.11191772937E+04  0.17254180367E+03 0.  0.
         24    2    5    5    0    0 -0.37818145924E+02  0.10872425550E+03 -0.54540124943E+03  0.56310773723E+03  0.79853772289E+02 0.  0.
          5    1    5    5  501    0 -0.69227225293E+02 -0.17766118024E+02 -0.55143741078E+03  0.55606955651E+03  0.47000000000E+01 0. -1.
        -11    1    6    6    0    0 -0.33280666245E+02  0.53450592809E+02 -0.43526995123E+03  0.43980052190E+03  0.00000000000E+00 0.  1.
         12    1    6    6    0    0 -0.45374796791E+01  0.55273662688E+02 -0.11013129820E+03  0.12330721533E+03  0.00000000000E+00 0. -1.
         -5    1    3    3    0  503 -0.16619339763E+02 -0.26736242545E+02  0.43733168748E+01  0.32128570153E+02  0.47000000000E+01 0.  1.
         11    1    4    4    0    0  0.74320385694E+02 -0.35986482219E+00 -0.12500640630E+03  0.14543125815E+03  0.00000000000E+00 0. -1.
        -12    1    4    4    0    0  0.49344325286E+02 -0.63862030107E+02 -0.16932190049E+03  0.18757165914E+03  0.00000000000E+00 0.  1.
</event>
<event>
12    1  0.1628146E-001  0.2775290E+03  0.7818608E-02  0.1097050E+00
         21   -1    0    0  501  502  0.00000000000E+00  0.00000000000E+00  0.12851806598E+04  0.12851806598E+04  0.00000000000E+00 0.  1.
         21   -1    0    0  502  503 -0.00000000000E+00 -0.00000000000E+00 -0.63226940741E+02  0.63226940741E+02  0.00000000000E+00 0.  1.
         -6    2    1    2    0  503  0.21698546359E+03  0.79980794799E+00  0.45689760236E+03  0.53456902676E+03  0.17298928935E+03 0.  0.
        -24    2    3    3    0    0  0.98756828572E+02  0.19218156834E+02  0.10941177504E+03  0.16702891208E+03  0.76193649410E+02 0.  0.
          6    2    1    2  501    0 -0.21698546359E+03 -0.79980794799E+00  0.76505611671E+03  0.81383857380E+03  0.17302898999E+03 0.  0.
         24    2    5    5    0    0 -0.10031358451E+03  0.87200657693E+01  0.58574851226E+03  0.59965112697E+03  0.79632277846E+02 0.  0.
          5    1    5    5  501    0 -0.11667187908E+03 -0.95198737173E+01  0.17930760445E+03  0.21418744683E+03  0.47000000000E+01 0. -1.
        -13    1    6    6    0    0 -0.69650553022E+02 -0.10072094248E+02  0.19608251466E+03  0.20832906464E+03  0.00000000000E+00 0.  1.
         14    1    6    6    0    0 -0.30663031485E+02  0.18792160017E+02  0.38966599760E+03  0.39132206233E+03  0.00000000000E+00 0. -1.
         -5    1    3    3    0  503  0.11822863502E+03 -0.18418348886E+02  0.34748582732E+03  0.36754011469E+03  0.47000000000E+01 0.  1.
         11    1    4    4    0    0  0.65910828581E+02 -0.11710760235E+02  0.25268083250E+02  0.71553163876E+02  0.00000000000E+00 0. -1.
        -12    1    4    4    0    0  0.32845999991E+02  0.30928917069E+02  0.84143691790E+02  0.95475748201E+02  0.00000000000E+00 0.  1.
</event>
<event>
12    1  0.1628146E-001  0.2223752E+03  0.7818608E-02  0.1132208E+00
         21   -1    0    0  503  502  0.00000000000E+00  0.00000000000E+00  0.75722832453E+03  0.75722832453E+03  0.00000000000E+00 0. -1.
         21   -1    0    0  501  503 -0.00000000000E+00 -0.00000000000E+00 -0.71003345949E+03  0.71003345949E+03  0.00000000000E+00 0.  1.
          6    2    1    2  501    0  0.13959801867E+03  0.17850994562E+02 -0.67555198258E+03  0.71121108946E+03  0.17217568868E+03 0.  0.
         24    2    3    3    0    0  0.16464878825E+03  0.19822403369E+02 -0.47660035367E+03  0.51062378140E+03  0.78016651163E+02 0.  0.
         -6    2    1    2    0  502 -0.13959801867E+03 -0.17850994562E+02  0.72274684762E+03  0.75605069456E+03  0.17159074036E+03 0.  0.
        -24    2    5    5    0    0 -0.12570535454E+03 -0.61382089468E+02  0.65434044915E+03  0.67365234693E+03  0.77951677750E+02 0.  0.
          5    1    3    3  501    0 -0.25050769579E+02 -0.19714088071E+01 -0.19895162891E+03  0.20058730806E+03  0.47000000000E+01 0. -1.
        -11    1    4    4    0    0  0.46548595319E+01 -0.14713330737E+02 -0.81726006585E+02  0.83170246910E+02  0.00000000000E+00 0.  1.
         12    1    4    4    0    0  0.15999392872E+03  0.34535734106E+02 -0.39487434709E+03  0.42745353449E+03  0.00000000000E+00 0. -1.
         -5    1    5    5    0  502 -0.13892664139E+02  0.43531094907E+02  0.68406398466E+02  0.82398347627E+02  0.47000000000E+01 0.  1.
         11    1    6    6    0    0 -0.55011877853E+02 -0.65064307455E+02  0.27997369634E+03  0.29265157004E+03  0.00000000000E+00 0. -1.
        -12    1    6    6    0    0 -0.70693476683E+02  0.36822179867E+01  0.37436675282E+03  0.38100077689E+03  0.00000000000E+00 0.  1.
</event>
<event>
12    1  0.1628146E-001  0.2149557E+03  0.7818608E-02  0.1137710E+00
         21   -1    0    0  501  502  0.00000000000E+00  0.00000000000E+00  0.12659525714E+03  0.12659525714E+03  0.00000000000E+00 0.  1.
         21   -1    0    0  502  503 -0.00000000000E+00 -0.00000000000E+00 -0.45435528445E+03  0.45435528445E+03  0.00000000000E+00 0.  1.
         -6    2    1    2    0  503  0.12372598553E+03  0.35855605481E+02 -0.29277916667E+03  0.36321563432E+03  0.17208199395E+03 0.  0.
        -24    2    3    3    0    0  0.13789237335E+03 -0.11518044060E+02 -0.18515318667E+03  0.24468129000E+03  0.80251225366E+02 0.  0.
          6    2    1    2  501    0 -0.12372598553E+03 -0.35855605481E+02 -0.34980860648E+02  0.21773490727E+03  0.17202059555E+03 0.  0.
         24    2    5    5    0    0 -0.13655295794E+03  0.17644185960E+02 -0.35457748468E+02  0.16251646536E+03  0.78716719723E+02 0.  0.
          5    1    5    5  501    0  0.12826972412E+02 -0.53499791441E+02  0.47688782001E+00  0.55218441914E+02  0.47000000000E+01 0. -1.
        -13    1    6    6    0    0 -0.88512092012E+02 -0.20487224451E+02  0.15810229830E+01  0.90865925581E+02  0.00000000000E+00 0.  1.
         14    1    6    6    0    0 -0.48040865931E+02  0.38131410411E+02 -0.37038771451E+02  0.71650539774E+02  0.00000000000E+00 0. -1.
         -5    1    3    3    0  503 -0.14166387818E+02  0.47373649541E+02 -0.10762597999E+03  0.11853434432E+03  0.47000000000E+01 0.  1.
         11    1    4    4    0    0  0.70289178831E+02  0.34160279463E+02 -0.97017207443E+02  0.12457861732E+03  0.00000000000E+00 0. -1.
        -12    1    4    4    0    0  0.67603194518E+02 -0.45678323523E+02 -0.88135979231E+02  0.12010267268E+03  0.00000000000E+00 0.  1.
</event>
<event>
12    1  0.1628146E-001  0.2068482E+03  0.7818608E-02  0.1144338E+00
         21   -1    0    0  501  502  0.00000000000E+00  0.00000000000E+00  0.13195803892E+04  0.13195803892E+04  0.00000000000E+00 0. -1.
         21   -1    0    0  502  503 -0.00000000000E+00 -0.00000000000E+00 -0.41320574421E+02  0.41320574421E+02  0.00000000000E+00 0. -1.
         -6    2    1    2    0  503 -0.11138545061E+03 -0.21849269484E+02  0.31846137179E+03  0.37906634512E+03  0.17143377583E+03 0.  0.
        -24    2    3    3    0    0 -0.70558225469E+02  0.24680345662E+02  0.29102616037E+03  0.31119405163E+03  0.80981041631E+02 0.  0.
          6    2    1    2  501    0  0.11138545061E+03  0.21849269484E+02  0.95979844299E+03  0.98183461850E+03  0.17292211466E+03 0.  0.
         24    2    5    5    0    0  0.25496236546E+02  0.52525914015E+02  0.67983558940E+03  0.68735320482E+03  0.82879248566E+02 0.  0.
          5    1    5    5  501    0  0.85889214068E+02 -0.30676644531E+02  0.27996285359E+03  0.29448141368E+03  0.47000000000E+01 0. -1.
        -13    1    6    6    0    0  0.53909416477E+01 -0.21953139875E+02  0.21173539548E+03  0.21293867732E+03  0.00000000000E+00 0.  1.
         14    1    6    6    0    0  0.20105294899E+02  0.74479053890E+02  0.46810019392E+03  0.47441452750E+03  0.00000000000E+00 0. -1.
         -5    1    3    3    0  503 -0.40827225145E+02 -0.46529615146E+02  0.27435211422E+02  0.67872293497E+02  0.47000000000E+01 0.  1.
         11    1    4    4    0    0 -0.45070621530E+02  0.75071190776E+00  0.48702960891E+02  0.66361908450E+02  0.00000000000E+00 0. -1.
        -12    1    4    4    0    0 -0.25487603939E+02  0.23929633755E+02  0.24232319948E+03  0.24483214318E+03  0.00000000000E+00 0.  1.
</event>
<event>
12    1  0.1628146E-001  0.2037305E+03  0.7818608E-02  0.1148496E+00
         21   -1    0    0  501  502  0.00000000000E+00  0.00000000000E+00  0.15009401941E+04  0.15009401941E+04  0.00000000000E+00 0. -1.
         21   -1    0    0  502  503 -0.00000000000E+00 -0.00000000000E+00 -0.14619583464E+03  0.14619583464E+03  0.00000000000E+00 0. -1.
         -6    2    1    2    0  503 -0.76869712057E+02 -0.41750827789E+02 -0.65178403923E+02  0.21390266184E+03  0.18399467425E+03 0.  0.
        -24    2    3    3    0    0 -0.93625486803E+01 -0.44724389751E+02  0.29985383841E+02  0.97093862172E+02  0.80250647792E+02 0.  0.
          6    2    1    2  501    0  0.76869712057E+02  0.41750827789E+02  0.14199227634E+04  0.14332333669E+04  0.17414116617E+03 0.  0.
         24    2    5    5    0    0 -0.39328641372E+01 -0.23805214560E+02  0.43881800487E+03  0.44661526034E+03  0.79509708267E+02 0.  0.
          5    1    5    5  501    0  0.80802576194E+02  0.65556042349E+02  0.98110475852E+03  0.98661810656E+03  0.47000000000E+01 0. -1.
        -11    1    6    6    0    0 -0.63315600462E+01 -0.30879072418E+02  0.43796426289E+03  0.43909714339E+03  0.00000000000E+00 0.  1.
         12    1    6    6    0    0  0.23986959091E+01  0.70738578572E+01  0.85374197910E+00  0.75181169461E+01  0.00000000000E+00 0. -1.
         -5    1    3    3    0  503 -0.67507163377E+02  0.29735619620E+01 -0.95163787765E+02  0.11680879967E+03  0.47000000000E+01 0.  1.
         13    1    4    4    0    0  0.24173355093E+01 -0.30696245055E+02 -0.24666974648E+02  0.39453296564E+02  0.00000000000E+00 0. -1.
        -14    1    4    4    0    0 -0.11779884190E+02 -0.14028144696E+02  0.54652358490E+02  0.57640565608E+02  0.00000000000E+00 0.  1.
</event>
<event>
12    1  0.1628146E-001  0.2658504E+03  0.7818608E-02  0.1104170E+00
         21   -1    0    0  503  502  0.00000000000E+00  0.00000000000E+00  0.14985254455E+04  0.14985254455E+04  0.00000000000E+00 0.  1.
         21   -1    0    0  501  503 -0.00000000000E+00 -0.00000000000E+00 -0.52681613375E+02  0.52681613375E+02  0.00000000000E+00 0.  1.
          6    2    1    2  501    0  0.65106503580E+02 -0.18730805567E+03  0.45474390687E+03  0.52507085348E+03  0.17200062737E+03 0.  0.
         24    2    3    3    0    0  0.11041184965E+03 -0.11767554753E+03  0.30685753842E+03  0.35538370446E+03  0.78087883023E+02 0.  0.
         -6    2    1    2    0  502 -0.65106503580E+02  0.18730805567E+03  0.99109992522E+03  0.10261362054E+04  0.17706859022E+03 0.  0.
        -24    2    5    5    0    0  0.35416920425E+02  0.73766486339E+02  0.44708157067E+03  0.46135774717E+03  0.79203455007E+02 0.  0.
          5    1    3    3  501    0 -0.45305346075E+02 -0.69632508141E+02  0.14788636844E+03  0.16968714903E+03  0.47000000000E+01 0. -1.
        -13    1    4    4    0    0  0.23079092019E+02 -0.16986786257E+02  0.13441059171E+03  0.13743144676E+03  0.00000000000E+00 0.  1.
         14    1    4    4    0    0  0.87332757635E+02 -0.10068876127E+03  0.17244694672E+03  0.21795225769E+03  0.00000000000E+00 0. -1.
         -5    1    5    5    0  502 -0.10052342400E+03  0.11354156933E+03  0.54401835455E+03  0.56477845818E+03  0.47000000000E+01 0.  1.
         11    1    6    6    0    0  0.41295864106E+02  0.15157387473E+02  0.29510284218E+03  0.29836350690E+03  0.00000000000E+00 0. -1.
        -12    1    6    6    0    0 -0.58789436811E+01  0.58609098866E+02  0.15197872849E+03  0.16299424027E+03  0.00000000000E+00 0.  1.
</event>
<event>
12    1  0.1628146E-001  0.2374319E+03  0.7818608E-02  0.1121683E+00
         21   -1    0    0  501  502  0.00000000000E+00  0.00000000000E+00  0.35657686061E+03  0.35657686061E+03  0.00000000000E+00 0.  1.
         21   -1    0    0  502  503 -0.00000000000E+00 -0.00000000000E+00 -0.16678929872E+03  0.16678929872E+03  0.00000000000E+00 0. -1.
         -6    2    1    2    0  503  0.15925828158E+03 -0.25346676623E+02  0.15703172566E+03  0.28466270536E+03  0.17426485215E+03 0.  0.
        -24    2    3    3    0    0  0.52902826403E+01  0.17523793336E+00  0.92216834444E+02  0.11560480717E+03  0.69516250522E+02 0.  0.
          6    2    1    2  501    0 -0.15925828158E+03  0.25346676623E+02  0.32755836235E+02  0.23870345397E+03  0.17291830402E+03 0.  0.
         24    2    5    5    0    0 -0.80062372284E+02  0.76137401536E+02  0.43260728029E+02  0.14391878993E+03  0.81450844910E+02 0.  0.
          5    1    5    5  501    0 -0.79195909296E+02 -0.50790724913E+02 -0.10504891793E+02  0.94784664044E+02  0.47000000000E+01 0. -1.
        -11    1    6    6    0    0 -0.40116541612E+02  0.52789941073E+02 -0.16514338731E+02  0.68328897057E+02  0.00000000000E+00 0.  1.
         12    1    6    6    0    0 -0.39945830672E+02  0.23347460463E+02  0.59775066760E+02  0.75589892871E+02  0.00000000000E+00 0. -1.
         -5    1    3    3    0  503  0.15396799894E+03 -0.25521914557E+02  0.64814891211E+02  0.16905789820E+03  0.47000000000E+01 0.  1.
         13    1    4    4    0    0  0.12418473360E+02 -0.33095674330E+02  0.52701971726E+02  0.63458962832E+02  0.00000000000E+00 0. -1.
        -14    1    4    4    0    0 -0.71281907200E+01  0.33270912264E+02  0.39514862718E+02  0.52145844335E+02  0.00000000000E+00 0.  1.
</event>
<event>
12    1  0.1628146E-001  0.2218826E+03  0.7818608E-02  0.1133071E+00
         21   -1    0    0  503  502  0.00000000000E+00  0.00000000000E+00  0.17730850530E+03  0.17730850530E+03  0.00000000000E+00 0. -1.
         21   -1    0    0  501  503 -0.00000000000E+00 -0.00000000000E+00 -0.27877949366E+03  0.27877949366E+03  0.00000000000E+00 0.  1.
          6    2    1    2  501    0  0.42714063726E+01  0.13895009333E+03 -0.81019633797E+02  0.23326486452E+03  0.16888736664E+03 0.  0.
         24    2    3    3    0    0  0.43875385656E+01  0.15489604103E+03 -0.27033533008E+02  0.17677702677E+03  0.80667659346E+02 0.  0.
         -6    2    1    2    0  502 -0.42714063726E+01 -0.13895009333E+03 -0.20451354554E+02  0.22282313444E+03  0.17293501089E+03 0.  0.
        -24    2    5    5    0    0  0.44276308995E+02 -0.80618251012E+02  0.37448659642E+02  0.12725124454E+03  0.79566218929E+02 0.  0.
          5    1    3    3  501    0 -0.11613219295E+00 -0.15945947705E+02 -0.53986100789E+02  0.56487837747E+02  0.47000000000E+01 0. -1.
        -13    1    4    4    0    0  0.20786133456E+02  0.10283146458E+03 -0.51604030335E+02  0.11691599291E+03  0.00000000000E+00 0.  1.
         14    1    4    4    0    0 -0.16398594891E+02  0.52064576455E+02  0.24570497328E+02  0.59861033859E+02  0.00000000000E+00 0. -1.
         -5    1    5    5    0  502 -0.48547715368E+02 -0.58331842314E+02 -0.57900014196E+02  0.95571889900E+02  0.47000000000E+01 0.  1.
         11    1    6    6    0    0  0.63650510758E+02 -0.60525346362E+02  0.10510278160E+02  0.88459996716E+02  0.00000000000E+00 0. -1.
        -12    1    6    6    0    0 -0.19374201763E+02 -0.20092904650E+02  0.26938381482E+02  0.38791247828E+02  0.00000000000E+00 0.  1.
</event>
<event>
12    1  0.1628146E-001  0.2008185E+03  0.7818608E-02  0.1149647E+00
         21   -1    0    0  501  502  0.00000000000E+00  0.00000000000E+00  0.60804335585E+03  0.60804335585E+03  0.00000000000E+00 0. -1.
         21   -1    0    0  502  503 -0.00000000000E+00 -0.00000000000E+00 -0.66666583690E+02  0.66666583690E+02  0.00000000000E+00 0. -1.
         -6    2    1    2    0  503 -0.69478184200E+02  0.77679777017E+02  0.22598552188E+03  0.30232020528E+03  0.17165862804E+03 0.  0.
        -24    2    3    3    0    0 -0.90852382620E+02  0.99572806391E+02  0.22136826950E+03  0.27102212047E+03  0.79247585717E+02 0.  0.
          6    2    1    2  501    0  0.69478184200E+02 -0.77679777017E+02  0.31539125028E+03  0.37238973426E+03  0.16834817372E+03 0.  0.
         24    2    5    5    0    0  0.44034550405E+02 -0.11055867949E+03  0.17683159100E+03  0.22765110809E+03  0.79958440435E+02 0.  0.
          5    1    5    5  501    0  0.25443633795E+02  0.32878902476E+02  0.13855965927E+03  0.14473862617E+03  0.47000000000E+01 0. -1.
        -11    1    6    6    0    0 -0.13987161914E+02 -0.79472133225E+01  0.12053848545E+01  0.16132323164E+02  0.00000000000E+00 0.  1.
         12    1    6    6    0    0  0.58021712320E+02 -0.10261146617E+03  0.17562620615E+03  0.21151878493E+03  0.00000000000E+00 0. -1.
         -5    1    3    3    0  503  0.21374198420E+02 -0.21893029374E+02  0.46172523887E+01  0.31298084812E+02  0.47000000000E+01 0.  1.
         13    1    4    4    0    0 -0.66936870780E+02  0.33733159448E+02  0.63229283641E+02  0.98063311314E+02  0.00000000000E+00 0. -1.
        -14    1    4    4    0    0 -0.23915511840E+02  0.65839646943E+02  0.15813898585E+03  0.17295880915E+03  0.00000000000E+00 0.  1.
</event>
<event>
12    1  0.1628146E-001  0.2709243E+03  0.7818608E-02  0.1100760E+00
         21   -1    0    0  501  502  0.00000000000E+00  0.00000000000E+00  0.89868656555E+02  0.89868656555E+02  0.00000000000E+00 0. -1.
         21   -1    0    0  502  503 -0.00000000000E+00 -0.00000000000E+00 -0.90818534255E+03  0.90818534255E+03  0.00000000000E+00 0.  1.
         -6    2    1    2    0  503  0.16879307385E+03 -0.12506969918E+03 -0.25069695548E+03  0.36911917443E+03  0.17107445752E+03 0.  0.
        -24    2    3    3    0    0  0.73003445028E+02 -0.19144507766E+02 -0.17962576821E+03  0.20952906564E+03  0.77077866982E+02 0.  0.
          6    2    1    2  501    0 -0.16879307385E+03  0.12506969918E+03 -0.56761973051E+03  0.62893482467E+03  0.17097755344E+03 0.  0.
         24    2    5    5    0    0 -0.19168562180E+03  0.11384871345E+03 -0.45126410787E+03  0.50972618323E+03  0.80477199651E+02 0.  0.
          5    1    5    5  501    0  0.22892547947E+02  0.11220985734E+02 -0.11635562265E+03  0.11920864144E+03  0.47000000000E+01 0. -1.
        -11    1    6    6    0    0 -0.20780919757E+02  0.68053680456E+01 -0.11947729241E+03  0.12146185846E+03  0.00000000000E+00 0.  1.
         12    1    6    6    0    0 -0.17090470204E+03  0.10704334540E+03 -0.33178681546E+03  0.38826432476E+03  0.00000000000E+00 0. -1.
         -5    1    3    3    0  503  0.95789628820E+02 -0.10592519141E+03 -0.71071187267E+02  0.15959010879E+03  0.47000000000E+01 0.  1.
         13    1    4    4    0    0  0.55560378929E+01  0.12958198948E+02  0.93200831853E+00  0.14129866119E+02  0.00000000000E+00 0. -1.
        -14    1    4    4    0    0  0.67447407135E+02 -0.32102706714E+02 -0.18055777653E+03  0.19539919952E+03  0.00000000000E+00 0.  1.
</event>
<event>
12    1  0.1628146E-001  0.3082507E+03  0.7818608E-02  0.1081204E+00
         21   -1    0    0  503  502  0.00000000000E+00  0.00000000000E+00  0.47820750235E+03  0.47820750235E+03  0.00000000000E+00 0.  1.
         21   -1    0    0  501  503 -0.00000000000E+00 -0.00000000000E+00 -0.20464825232E+03  0.20464825232E+03  0.00000000000E+00 0. -1.
          6    2    1    2  501    0  0.25219168225E+03  0.41270652493E+02  0.19539504247E+03  0.36484920234E+03  0.17213891621E+03 0.  0.
         24    2    3    3    0    0  0.11674999687E+03 -0.34749182525E+02  0.50657832959E+02  0.15249474566E+03  0.76487671949E+02 0.  0.
         -6    2    1    2    0  502 -0.25219168225E+03 -0.41270652493E+02  0.78164207565E+02  0.31800655232E+03  0.17237926970E+03 0.  0.
        -24    2    5    5    0    0 -0.29218779182E+02 -0.25960882500E+02  0.15992102000E+02  0.85974732800E+02  0.74887935454E+02 0.  0.
          5    1    3    3  501    0  0.13544168539E+03  0.76019835018E+02  0.14473720951E+03  0.21235445668E+03  0.47000000000E+01 0. -1.
        -11    1    4    4    0    0  0.18810746579E+01 -0.26194822017E+02 -0.94007282835E+00  0.26279095862E+02  0.00000000000E+00 0.  1.
         12    1    4    4    0    0  0.11486892221E+03 -0.85543605076E+01  0.51597905788E+02  0.12621564980E+03  0.00000000000E+00 0. -1.
         -5    1    5    5    0  502 -0.22297290307E+03 -0.15309769992E+02  0.62172105565E+02  0.23203181952E+03  0.47000000000E+01 0.  1.
         11    1    6    6    0    0  0.10304165890E+02 -0.28169039845E+02  0.31467468849E+02  0.43472660791E+02  0.00000000000E+00 0. -1.
        -12    1    6    6    0    0 -0.39522945072E+02  0.22081573442E+01 -0.15475366849E+02  0.42502072009E+02  0.00000000000E+00 0.  1.
</event>
<event>
12    1  0.1628146E-001  0.1874959E+03  0.7818608E-02  0.1160891E+00
         21   -1    0    0  501  502  0.00000000000E+00  0.00000000000E+00  0.33538752471E+03  0.33538752471E+03  0.00000000000E+00 0.  1.
         21   -1    0    0  502  503 -0.00000000000E+00 -0.00000000000E+00 -0.12695720519E+03  0.12695720519E+03  0.00000000000E+00 0.  1.
         -6    2    1    2    0  503  0.68704498274E+02 -0.26126499635E+02  0.70311711740E+01  0.18762766410E+03  0.17248710358E+03 0.  0.
        -24    2    3    3    0    0 -0.25007997072E+01 -0.30266268922E+02 -0.47881840624E+02  0.97489653164E+02  0.79304859743E+02 0.  0.
          6    2    1    2  501    0 -0.68704498274E+02  0.26126499635E+02  0.20139914835E+03  0.27471706580E+03  0.17177004169E+03 0.  0.
         24    2    5    5    0    0 -0.44046472244E+02 -0.52682948485E+02  0.10727958108E+03  0.14941929924E+03  0.78112954703E+02 0.  0.
          5    1    5    5  501    0 -0.24658026030E+02  0.78809448120E+02  0.94119567275E+02  0.12529776656E+03  0.47000000000E+01 0. -1.
        -11    1    6    6    0    0 -0.42007105939E+02 -0.88900601128E+01  0.94431694339E+02  0.10373511948E+03  0.00000000000E+00 0.  1.
         12    1    6    6    0    0 -0.20393663048E+01 -0.43792888372E+02  0.12847886738E+02  0.45684179762E+02  0.00000000000E+00 0. -1.
         -5    1    3    3    0  503  0.71205297981E+02  0.41397692864E+01  0.54913011798E+02  0.90138010934E+02  0.47000000000E+01 0.  1.
         13    1    4    4    0    0 -0.89645933747E+01  0.15480704469E+02  0.12233011023E+02  0.21671702838E+02  0.00000000000E+00 0. -1.
        -14    1    4    4    0    0  0.64637936675E+01 -0.45746973391E+02 -0.60114851647E+02  0.75817950325E+02  0.00000000000E+00 0.  1.
</event>
<event>
12    1  0.1628146E-001  0.1816528E+03  0.7818608E-02  0.1167503E+00
         21   -1    0    0  501  502  0.00000000000E+00  0.00000000000E+00  0.52551307863E+02  0.52551307863E+02  0.00000000000E+00 0.  1.
         21   -1    0    0  502  503 -0.00000000000E+00 -0.00000000000E+00 -0.26693058348E+04  0.26693058348E+04  0.00000000000E+00 0.  1.
         -6    2    1    2    0  503  0.20651764305E+01 -0.36417406244E+02 -0.25082257763E+04  0.25147950762E+04  0.17795290987E+03 0.  0.
        -24    2    3    3    0    0 -0.43858763266E+02 -0.38042429257E+02 -0.22700196400E+04  0.22721515057E+04  0.79451126251E+02 0.  0.
          6    2    1    2  501    0 -0.20651764305E+01  0.36417406244E+02 -0.10852875066E+03  0.20706206645E+03  0.17252743901E+03 0.  0.
         24    2    5    5    0    0 -0.19675918394E+02  0.85909623040E+02 -0.94617736531E+02  0.15251645187E+03  0.80877357331E+02 0.  0.
          5    1    5    5  501    0  0.17610741963E+02 -0.49492216796E+02 -0.13911014128E+02  0.54545614580E+02  0.47000000000E+01 0. -1.
        -13    1    6    6    0    0 -0.22847089512E+02  0.94854737115E+02 -0.55467161510E+02  0.11223197699E+03  0.00000000000E+00 0.  1.
         14    1    6    6    0    0  0.31711711181E+01 -0.89451140753E+01 -0.39150575020E+02  0.40284474882E+02  0.00000000000E+00 0. -1.
         -5    1    3    3    0  503  0.45923939697E+02  0.16250230135E+01 -0.23820613628E+03  0.24264357049E+03  0.47000000000E+01 0.  1.
         11    1    4    4    0    0 -0.42612321016E+02 -0.21160841141E+02 -0.55147535255E+03  0.55352385276E+03  0.00000000000E+00 0. -1.
        -12    1    4    4    0    0 -0.12464422505E+01 -0.16881588116E+02 -0.17185442875E+04  0.17186276530E+04  0.00000000000E+00 0.  1.
</event>
<event>
12    1  0.1628146E-001  0.2061887E+03  0.7818608E-02  0.1146837E+00
         21   -1    0    0  501  502  0.00000000000E+00  0.00000000000E+00  0.18571952268E+03  0.18571952268E+03  0.00000000000E+00 0.  1.
         21   -1    0    0  502  503 -0.00000000000E+00 -0.00000000000E+00 -0.26042793263E+03  0.26042793263E+03  0.00000000000E+00 0.  1.
         -6    2    1    2    0  503 -0.65481228866E+02 -0.65491904209E+02 -0.12896929941E+03  0.24320131663E+03  0.18421948694E+03 0.  0.
        -24    2    3    3    0    0  0.52137754130E+01 -0.17932593277E+02  0.79882801448E+01  0.81834838436E+02  0.79273998300E+02 0.  0.
          6    2    1    2  501    0  0.65481228866E+02  0.65491904209E+02  0.54260889462E+02  0.20294613868E+03  0.17223794654E+03 0.  0.
         24    2    5    5    0    0  0.62991800975E+02  0.57794539798E+02  0.10153691841E+03  0.15475319747E+03  0.79565259419E+02 0.  0.
          5    1    5    5  501    0  0.24894278906E+01  0.76973644110E+01 -0.47276028944E+02  0.48192941213E+02  0.47000000000E+01 0. -1.
        -11    1    6    6    0    0  0.30403829589E+01  0.19406655978E+02  0.76982271388E+02  0.79448929086E+02  0.00000000000E+00 0.  1.
         12    1    6    6    0    0  0.59951418016E+02  0.38387883819E+02  0.24554647018E+02  0.75304268381E+02  0.00000000000E+00 0. -1.
         -5    1    3    3    0  503 -0.70695004279E+02 -0.47559310932E+02 -0.13695757956E+03  0.16136647819E+03  0.47000000000E+01 0.  1.
         13    1    4    4    0    0 -0.24766148848E+02 -0.35685819606E+02  0.15630584257E+02  0.46164434514E+02  0.00000000000E+00 0. -1.
        -14    1    4    4    0    0  0.29979924261E+02  0.17753226329E+02 -0.76423041124E+01  0.35670403922E+02  0.00000000000E+00 0.  1.
</event>
<event>
12    1  0.1628146E-001  0.2023797E+03  0.7818608E-02  0.1149596E+00
         21   -1    0    0  503  502  0.00000000000E+00  0.00000000000E+00  0.53583896469E+02  0.53583896469E+02  0.00000000000E+00 0. -1.
         21   -1    0    0  501  503 -0.00000000000E+00 -0.00000000000E+00 -0.73748031168E+03  0.73748031168E+03  0.00000000000E+00 0. -1.
          6    2    1    2  501    0 -0.53385276107E+02 -0.10425245951E+03 -0.31491669524E+03  0.37433951966E+03  0.16504238249E+03 0.  0.
         24    2    3    3    0    0  0.34276759647E+02 -0.53114240174E+02 -0.14661729315E+03  0.17775231577E+03  0.78123212616E+02 0.  0.
         -6    2    1    2    0  502  0.53385276107E+02  0.10425245951E+03 -0.36897971997E+03  0.41672468849E+03  0.15425585638E+03 0.  0.
        -24    2    5    5    0    0  0.30761636257E+02  0.13282420124E+03 -0.29432294068E+03  0.33351472395E+03  0.77572746367E+02 0.  0.
          5    1    3    3  501    0 -0.87662035755E+02 -0.51138219339E+02 -0.16829940208E+03  0.19658720389E+03  0.47000000000E+01 0. -1.
        -11    1    4    4    0    0  0.12019500302E+02  0.15926550023E+02 -0.83859801137E+01  0.21643660633E+02  0.00000000000E+00 0.  1.
         12    1    4    4    0    0  0.22257259345E+02 -0.69040790196E+02 -0.13823131304E+03  0.15610865514E+03  0.00000000000E+00 0. -1.
         -5    1    5    5    0  502  0.22623639850E+02 -0.28571741725E+02 -0.74656779291E+02  0.83209964544E+02  0.47000000000E+01 0.  1.
         11    1    6    6    0    0 -0.35202889599E+01  0.10492070786E+03 -0.15387112223E+03  0.18627149440E+03  0.00000000000E+00 0. -1.
        -12    1    6    6    0    0  0.34281925217E+02  0.27903493379E+02 -0.14045181846E+03  0.14724322955E+03  0.00000000000E+00 0.  1.
</event>
<event>
12    1  0.1628146E-001  0.1909904E+03  0.7818608E-02  0.1158010E+00
         21   -1    0    0  503  502  0.00000000000E+00  0.00000000000E+00  0.50092261212E+03  0.50092261212E+03  0.00000000000E+00 0. -1.
         21   -1    0    0  501  503 -0.00000000000E+00 -0.00000000000E+00 -0.23386726100E+03  0.23386726100E+03  0.00000000000E+00 0. -1.
          6    2    1    2  501    0 -0.23868013052E+02  0.78455277863E+02 -0.17226081148E+03  0.25575330390E+03  0.17032631216E+03 0.  0.
         24    2    3    3    0    0 -0.22169461921E+02  0.10281357822E+03 -0.73784623134E+02  0.15418627410E+03  0.85247402313E+02 0.  0.
         -6    2    1    2    0  502  0.23868013052E+02 -0.78455277863E+02  0.43931616259E+03  0.47903656922E+03  0.17248893084E+03 0.  0.
        -24    2    5    5    0    0  0.42926525813E+02 -0.40088883528E+02  0.11431304237E+03  0.15118854761E+03  0.79628512923E+02 0.  0.
          5    1    3    3  501    0 -0.16985511314E+01 -0.24358300359E+02 -0.98476188344E+02  0.10156702980E+03  0.47000000000E+01 0. -1.
        -11    1    4    4    0    0  0.29178855556E+02  0.32007308490E+02 -0.64164523795E+01  0.43784064104E+02  0.00000000000E+00 0.  1.
         12    1    4    4    0    0 -0.51348317477E+02  0.70806269733E+02 -0.67368170754E+02  0.11040221000E+03  0.00000000000E+00 0. -1.
         -5    1    5    5    0  502 -0.19058512760E+02 -0.38366394336E+02  0.32500312022E+03  0.32784802161E+03  0.47000000000E+01 0.  1.
         13    1    6    6    0    0  0.15144562686E+02 -0.36117881404E+02  0.11662864077E+03  0.12302885427E+03  0.00000000000E+00 0. -1.
        -14    1    6    6    0    0  0.27781963126E+02 -0.39710021233E+01 -0.23155983918E+01  0.28159693339E+02  0.00000000000E+00 0.  1.
</event>
<event>
12    1  0.1628146E-001  0.1977659E+03  0.7818608E-02  0.1151728E+00
         21   -1    0    0  501  502  0.00000000000E+00  0.00000000000E+00  0.12649833616E+04  0.12649833616E+04  0.00000000000E+00 0.  1.
         21   -1    0    0  502  503 -0.00000000000E+00 -0.00000000000E+00 -0.38777435570E+02  0.38777435570E+02  0.00000000000E+00 0.  1.
         -6    2    1    2    0  503 -0.48932694033E+02  0.82000935551E+02  0.31789160326E+03  0.37416611228E+03  0.17270392635E+03 0.  0.
        -24    2    3    3    0    0  0.38493283277E+02  0.46487822039E+02  0.12630828141E+03  0.16055257818E+03  0.78616143072E+02 0.  0.
          6    2    1    2  501    0  0.48932694033E+02 -0.82000935551E+02  0.90831432281E+03  0.92959468493E+03  0.17318431584E+03 0.  0.
         24    2    5    5    0    0 -0.27404566254E+02 -0.13976604265E+02  0.29468468962E+03  0.30748689388E+03  0.82236049847E+02 0.  0.
          5    1    5    5  501    0  0.76337260286E+02 -0.68024331286E+02  0.61362963319E+03  0.62210779105E+03  0.47000000000E+01 0. -1.
        -13    1    6    6    0    0  0.17325956887E+02 -0.17671913545E+02  0.21170400357E+03  0.21314565546E+03  0.00000000000E+00 0.  1.
         14    1    6    6    0    0 -0.44730523141E+02  0.36953092807E+01  0.82980686046E+02  0.94341238426E+02  0.00000000000E+00 0. -1.
         -5    1    3    3    0  503 -0.87425977310E+02  0.35513113512E+02  0.19158332185E+03  0.21361353410E+03  0.47000000000E+01 0.  1.
         11    1    4    4    0    0  0.53874214281E+02  0.29684187209E+02  0.12301389434E+03  0.13753545047E+03  0.00000000000E+00 0. -1.
        -12    1    4    4    0    0 -0.15380931003E+02  0.16803634829E+02  0.32943870744E+01  0.23017127714E+02  0.00000000000E+00 0.  1.
</event>
<event>
12    1  0.1628146E-001  0.1864885E+03  0.7818608E-02  0.1162854E+00
         21   -1    0    0  501  502  0.00000000000E+00  0.00000000000E+00  0.26087890842E+02  0.26087890842E+02  0.00000000000E+00 0.  1.
         21   -1    0    0  502  503 -0.00000000000E+00 -0.00000000000E+00 -0.15185837262E+04  0.15185837262E+04  0.00000000000E+00 0. -1.
         -6    2    1    2    0  503 -0.16087420786E+01  0.61737176103E+02 -0.10499124507E+04  0.10663461478E+04  0.17596558132E+03 0.  0.
        -24    2    3    3    0    0 -0.51129194100E+02  0.45977904350E+02 -0.38648417866E+03  0.40086903176E+03  0.81226831121E+02 0.  0.
          6    2    1    2  501    0  0.16087420786E+01 -0.61737176103E+02 -0.44258338463E+03  0.47832546922E+03  0.17059054837E+03 0.  0.
         24    2    5    5    0    0  0.42860850653E+02 -0.91506911625E+02 -0.34473414488E+03  0.36794187744E+03  0.79555182962E+02 0.  0.
          5    1    5    5  501    0 -0.41252108574E+02  0.29769735521E+02 -0.97849239751E+02  0.11038359178E+03  0.47000000000E+01 0. -1.
        -13    1    6    6    0    0 -0.59402941943E+01 -0.84686373641E+01 -0.35837731364E+00  0.10350524055E+02  0.00000000000E+00 0.  1.
         14    1    6    6    0    0  0.48801144847E+02 -0.83038274261E+02 -0.34437576756E+03  0.35759135338E+03  0.00000000000E+00 0. -1.
         -5    1    3    3    0  503  0.49520452022E+02  0.15759271753E+02 -0.66342827208E+03  0.66547711606E+03  0.47000000000E+01 0.  1.
         13    1    4    4    0    0  0.17820963677E+02  0.12426380039E+02 -0.16633525471E+03  0.16774808084E+03  0.00000000000E+00 0. -1.
        -14    1    4    4    0    0 -0.68950157778E+02  0.33551524311E+02 -0.22014892396E+03  0.23312095092E+03  0.00000000000E+00 0.  1.
</event>
<event>
12    1  0.1628146E-001  0.2444768E+03  0.7818608E-02  0.1116895E+00
         21   -1    0    0  503  502  0.00000000000E+00  0.00000000000E+00  0.17259470811E+03  0.17259470811E+03  0.00000000000E+00 0. -1.
         21   -1    0    0  501  503 -0.00000000000E+00 -0.00000000000E+00 -0.47756177355E+03  0.47756177355E+03  0.00000000000E+00 0. -1.
          6    2    1    2  501    0 -0.24271960348E+02  0.17176942245E+03 -0.32312220947E+03  0.40500652705E+03  0.17183847691E+03 0.  0.
         24    2    3    3    0    0 -0.76044318177E+02  0.12435959269E+03 -0.27307240445E+03  0.31866336300E+03  0.75695140071E+02 0.  0.
         -6    2    1    2    0  502  0.24271960348E+02 -0.17176942245E+03  0.18155144031E+02  0.24514995461E+03  0.17226441432E+03 0.  0.
        -24    2    5    5    0    0  0.21297880745E+02 -0.18103931909E+03 -0.25089457000E+02  0.20057460659E+03  0.79823913560E+02 0.  0.
          5    1    3    3  501    0  0.51772357829E+02  0.47409829768E+02 -0.50049805028E+02  0.86343164043E+02  0.47000000000E+01 0. -1.
        -11    1    4    4    0    0 -0.58927870598E+02  0.49857141970E+02 -0.80763856480E+02  0.11171852600E+03  0.00000000000E+00 0.  1.
         12    1    4    4    0    0 -0.17116447579E+02  0.74502450717E+02 -0.19230854797E+03  0.20694483700E+03  0.00000000000E+00 0. -1.
         -5    1    5    5    0  502  0.29740796033E+01  0.92698966304E+01  0.43244601031E+02  0.44575348023E+02  0.47000000000E+01 0.  1.
         13    1    6    6    0    0 -0.23388240133E+02 -0.87179803627E+02  0.10100317893E+02  0.90825901363E+02  0.00000000000E+00 0. -1.
        -14    1    6    6    0    0  0.44686120878E+02 -0.93859515458E+02 -0.35189774894E+02  0.10974870522E+03  0.00000000000E+00 0.  1.
</event>
<event>
12    1  0.1628146E-001  0.1875777E+03  0.7818608E-02  0.1161024E+00
         21   -1    0    0  503  502  0.00000000000E+00  0.00000000000E+00  0.43513301741E+02  0.43513301741E+02  0.00000000000E+00 0.  1.
         21   -1    0    0  501  503 -0.00000000000E+00 -0.00000000000E+00 -0.88155304021E+03  0.88155304021E+03  0.00000000000E+00 0.  1.
          6    2    1    2  501    0 -0.88750219418E+01 -0.72401465218E+02 -0.55646841435E+03  0.58673544944E+03  0.17111590599E+03 0.  0.
         24    2    3    3    0    0  0.56498200725E+02 -0.24070729940E+02 -0.37372834905E+03  0.38667161043E+03  0.77914111069E+02 0.  0.
         -6    2    1    2    0  502  0.88750219418E+01  0.72401465218E+02 -0.28157132412E+03  0.33833089251E+03  0.17281390014E+03 0.  0.
        -24    2    5    5    0    0  0.46506151476E+02 -0.12644464133E+02 -0.15245471174E+03  0.17913886506E+03  0.80781119377E+02 0.  0.
          5    1    3    3  501    0 -0.65373222667E+02 -0.48330735277E+02 -0.18274006530E+03  0.20006383901E+03  0.47000000000E+01 0. -1.
        -13    1    4    4    0    0  0.44819758109E+02 -0.23127450646E+02 -0.37129543603E+03  0.37470520480E+03  0.00000000000E+00 0.  1.
         14    1    4    4    0    0  0.11678442616E+02 -0.94327929398E+00 -0.24329130157E+01  0.11966405622E+02  0.00000000000E+00 0. -1.
         -5    1    5    5    0  502 -0.37631129534E+02  0.85045929350E+02 -0.12911661238E+03  0.15919202745E+03  0.47000000000E+01 0.  1.
         11    1    6    6    0    0  0.41816758211E+02 -0.18395626132E+02 -0.16127014236E+03  0.16761592748E+03  0.00000000000E+00 0. -1.
        -12    1    6    6    0    0  0.46893932648E+01  0.57511619991E+01  0.88154306231E+01  0.11522937586E+02  0.00000000000E+00 0.  1.
</event>
<event>
12    1  0.1628146E-001  0.1805030E+03  0.7818608E-02  0.1167919E+00
         21   -1    0    0  503  502  0.00000000000E+00  0.00000000000E+00  0.82331300206E+03  0.82331300206E+03  0.00000000000E+00 0.  1.
         21   -1    0    0  501  503 -0.00000000000E+00 -0.00000000000E+00 -0.53355546651E+02  0.53355546651E+02  0.00000000000E+00 0.  1.
          6    2    1    2  501    0  0.33474425009E+02  0.45828360291E+02  0.61403121644E+03  0.64001225338E+03  0.17134927477E+03 0.  0.
         24    2    3    3    0    0 -0.38971258906E+02  0.59608302482E+01  0.38688060012E+03  0.39823283000E+03  0.85781685834E+02 0.  0.
         -6    2    1    2    0  502 -0.33474425009E+02 -0.45828360291E+02  0.15592623896E+03  0.23665629533E+03  0.16873776811E+03 0.  0.
        -24    2    5    5    0    0 -0.97641822869E+00 -0.14846303480E+02  0.90551476818E+01  0.83003388616E+02  0.81155410803E+02 0.  0.
          5    1    3    3  501    0  0.72445683916E+02  0.39867530043E+02  0.22715061633E+03  0.24177942337E+03  0.47000000000E+01 0. -1.
        -11    1    4    4    0    0  0.47042197306E+01  0.49279212167E+01  0.30789381843E+03  0.30796918274E+03  0.00000000000E+00 0.  1.
         12    1    4    4    0    0 -0.43675478637E+02  0.10329090316E+01  0.78986781692E+02  0.90263647263E+02  0.00000000000E+00 0. -1.
         -5    1    5    5    0  502 -0.32498006781E+02 -0.30982056811E+02  0.14687109128E+03  0.15365290672E+03  0.47000000000E+01 0.  1.
         13    1    6    6    0    0  0.12717726536E+02 -0.26906086512E+02  0.38317950997E+02  0.48517454882E+02  0.00000000000E+00 0. -1.
        -14    1    6    6    0    0 -0.13694144764E+02  0.12059783032E+02 -0.29262803315E+02  0.34485933734E+02  0.00000000000E+00 0.  1.
</event>
<event>
12    1  0.1628146E-001  0.1909099E+03  0.7818608E-02  0.1158306E+00
         21   -1    0    0  503  502  0.00000000000E+00  0.00000000000E+00  0.83546747765E+03  0.83546747765E+03  0.00000000000E+00 0.  1.
         21   -1    0    0  501  503 -0.00000000000E+00 -0.00000000000E+00 -0.43751073767E+02  0.43751073767E+02  0.00000000000E+00 0.  1.
          6    2    1    2  501    0 -0.71322700153E+02  0.37367559116E+02  0.33963439965E+03  0.38961278064E+03  0.17309919519E+03 0.  0.
         24    2    3    3    0    0 -0.29951616905E+02 -0.39635809259E+02  0.23549805439E+03  0.25357031052E+03  0.79815236796E+02 0.  0.
         -6    2    1    2    0  502  0.71322700153E+02 -0.37367559116E+02  0.45208200423E+03  0.48960577078E+03  0.16985997234E+03 0.  0.
        -24    2    5    5    0    0  0.18907903451E+02  0.37285645686E+02  0.14784448344E+03  0.17195349083E+03  0.77215824408E+02 0.  0.
          5    1    3    3  501    0 -0.41371083247E+02  0.77003368375E+02  0.10413634526E+03  0.13604247011E+03  0.47000000000E+01 0. -1.
        -13    1    4    4    0    0 -0.29720837380E+02  0.32718659556E+01  0.25694146423E+02  0.39423627964E+02  0.00000000000E+00 0.  1.
         14    1    4    4    0    0 -0.23077952490E+00 -0.42907675214E+02  0.20980390797E+03  0.21414668256E+03  0.00000000000E+00 0. -1.
         -5    1    5    5    0  502  0.52414796702E+02 -0.74653204802E+02  0.30423752079E+03  0.31765227995E+03  0.47000000000E+01 0.  1.
         13    1    6    6    0    0  0.30764669436E+02  0.56993858633E+02  0.10679382667E+03  0.12489870384E+03  0.00000000000E+00 0. -1.
        -14    1    6    6    0    0 -0.11856765985E+02 -0.19708212948E+02  0.41050656770E+02  0.47054786988E+02  0.00000000000E+00 0.  1.
</event>
<event>
12    1  0.1628146E-001  0.1873773E+03  0.7818608E-02  0.1161681E+00
         21   -1    0    0  503  502  0.00000000000E+00  0.00000000000E+00  0.44031539045E+02  0.44031539045E+02  0.00000000000E+00 0.  1.
         21   -1    0    0  501  503 -0.00000000000E+00 -0.00000000000E+00 -0.10385503571E+04  0.10385503571E+04  0.00000000000E+00 0.  1.
          6    2    1    2  501    0  0.70284905779E+02  0.25818140853E+02 -0.76256381943E+03  0.78439846018E+03  0.16784165530E+03 0.  0.
         24    2    3    3    0    0  0.73797347754E+02  0.14378170865E+01 -0.74664099767E+03  0.75469385299E+03  0.81497953897E+02 0.  0.
         -6    2    1    2    0  502 -0.70284905779E+02 -0.25818140853E+02 -0.23195499866E+03  0.29818343600E+03  0.17176639870E+03 0.  0.
        -24    2    5    5    0    0 -0.10808541010E+03  0.13932824784E+01 -0.13815818728E+03  0.19335370972E+03  0.81323890931E+02 0.  0.
          5    1    3    3  501    0 -0.35124419759E+01  0.24380323767E+02 -0.15922821765E+02  0.29704607194E+02  0.47000000000E+01 0. -1.
        -13    1    4    4    0    0  0.72775693762E+02  0.31890427556E+02 -0.53188494649E+03  0.53778703710E+03  0.00000000000E+00 0.  1.
         14    1    4    4    0    0  0.10216539920E+01 -0.30452610470E+02 -0.21475605118E+03  0.21690681589E+03  0.00000000000E+00 0. -1.
         -5    1    5    5    0  502  0.37800504324E+02 -0.27211423332E+02 -0.93796811386E+02  0.10482972629E+03  0.47000000000E+01 0.  1.
         11    1    6    6    0    0 -0.65646987444E+01  0.26619659787E+02 -0.47889984160E+02  0.55182897166E+02  0.00000000000E+00 0. -1.
        -12    1    6    6    0    0 -0.10152071136E+03 -0.25226377308E+02 -0.90268203118E+02  0.13817081255E+03  0.00000000000E+00 0.  1.
</event>
<event>
12    1  0.1628146E-001  0.1741117E+03  0.7818608E-02  0.1173692E+00
         21   -1    0    0  503  502  0.00000000000E+00  0.00000000000E+00  0.15819979074E+04  0.15819979074E+04  0.00000000000E+00 0. -1.
         21   -1    0    0  501  503 -0.00000000000E+00 -0.00000000000E+00 -0.19135296334E+02  0.19135296334E+02  0.00000000000E+00 0. -1.
          6    2    1    2  501    0 -0.13098588419E+02 -0.12254596580E+02  0.77496282131E+03  0.79428096022E+03  0.17318522224E+03 0.  0.
         24    2    3    3    0    0  0.38977828935E+02  0.30241306796E+02  0.58773780302E+03  0.59530067848E+03  0.80705420601E+02 0.  0.
         -6    2    1    2    0  502  0.13098588419E+02  0.12254596580E+02  0.78789978973E+03  0.80685224349E+03  0.17292401801E+03 0.  0.
        -24    2    5    5    0    0  0.61629133483E+02  0.41737306393E+02  0.49783783366E+03  0.51124697909E+03  0.89391342770E+02 0.  0.
          5    1    3    3  501    0 -0.52076417354E+02 -0.42495903376E+02  0.18722501829E+03  0.19898028175E+03  0.47000000000E+01 0. -1.
        -13    1    4    4    0    0  0.43738108022E+01  0.52814777284E+02  0.30741670193E+03  0.31195121341E+03  0.00000000000E+00 0.  1.
         14    1    4    4    0    0  0.34604018133E+02 -0.22573470488E+02  0.28032110109E+03  0.28334946507E+03  0.00000000000E+00 0. -1.
         -5    1    5    5    0  502 -0.48530545064E+02 -0.29482709813E+02  0.29006195607E+03  0.29560526440E+03  0.47000000000E+01 0.  1.
         11    1    6    6    0    0 -0.13202026960E+02  0.15195417850E+02  0.25424749726E+03  0.25504310244E+03  0.00000000000E+00 0. -1.
        -12    1    6    6    0    0  0.74831160443E+02  0.26541888543E+02  0.24359033640E+03  0.25620387665E+03  0.00000000000E+00 0.  1.
</event>
<event>
12    1  0.1628146E-001  0.1780851E+03  0.7818608E-02  0.1169934E+00
         21   -1    0    0  501  502  0.00000000000E+00  0.00000000000E+00  0.40749944481E+02  0.40749944481E+02  0.00000000000E+00 0.  1.
         21   -1    0    0  502  503 -0.00000000000E+00 -0.00000000000E+00 -0.11523603223E+04  0.11523603223E+04  0.00000000000E+00 0.  1.
         -6    2    1    2    0  503  0.41322955152E+02  0.18150273644E+02 -0.89895971565E+03  0.91642941393E+03  0.17227095316E+03 0.  0.
        -24    2    3    3    0    0  0.53841366721E+01  0.56750398685E+02 -0.29667532019E+03  0.31182197820E+03  0.77247031015E+02 0.  0.
          6    2    1    2  501    0 -0.41322955152E+02 -0.18150273644E+02 -0.21265066217E+03  0.27668085285E+03  0.17115773765E+03 0.  0.
         24    2    5    5    0    0  0.81550062344E-02  0.39408565999E+02 -0.17477232019E+03  0.19619396274E+03  0.79960440051E+02 0.  0.
          5    1    5    5  501    0 -0.41331110158E+02 -0.57558839642E+02 -0.37878341986E+02  0.80486890110E+02  0.47000000000E+01 0. -1.
        -11    1    6    6    0    0 -0.14140897460E+02  0.11965300223E+02  0.19332900576E+00  0.18524868866E+02  0.00000000000E+00 0.  1.
         12    1    6    6    0    0  0.14149052466E+02  0.27443265776E+02 -0.17496564919E+03  0.17766909388E+03  0.00000000000E+00 0. -1.
         -5    1    3    3    0  503  0.35938818480E+02 -0.38600125041E+02 -0.60228439546E+03  0.60460743573E+03  0.47000000000E+01 0.  1.
         11    1    4    4    0    0  0.37816501461E+02  0.30921456056E+02 -0.21181475901E+03  0.21737459916E+03  0.00000000000E+00 0. -1.
        -12    1    4    4    0    0 -0.32432364789E+02  0.25828942629E+02 -0.84860561185E+02  0.94447379041E+02  0.00000000000E+00 0.  1.
</event>
<event>
12    1  0.1628146E-001  0.1949747E+03  0.7818608E-02  0.1154349E+00
         21   -1    0    0  503  502  0.00000000000E+00  0.00000000000E+00  0.23894741985E+03  0.23894741985E+03  0.00000000000E+00 0. -1.
         21   -1    0    0  501  503 -0.00000000000E+00 -0.00000000000E+00 -0.32819072232E+03  0.32819072232E+03  0.00000000000E+00 0.  1.
          6    2    1    2  501    0 -0.75106437044E+02 -0.50156767157E+02 -0.24891207600E+03  0.31618402820E+03  0.17279594882E+03 0.  0.
         24    2    3    3    0    0  0.20702896675E+02 -0.13233633823E+02 -0.63108629769E+02  0.10384524974E+03  0.78723552686E+02 0.  0.
         -6    2    1    2    0  502  0.75106437044E+02  0.50156767157E+02  0.15966877353E+03  0.25095411397E+03  0.17125177926E+03 0.  0.
        -24    2    5    5    0    0  0.91186943897E+02  0.13613150190E+02  0.16408102138E+03  0.21051185176E+03  0.94298894792E+02 0.  0.
          5    1    3    3  501    0 -0.95809333719E+02 -0.36923133334E+02 -0.18580344623E+03  0.21233877845E+03  0.47000000000E+01 0. -1.
        -11    1    4    4    0    0  0.36202441049E+02 -0.16287660568E+02 -0.74467545657E+02  0.84387913713E+02  0.00000000000E+00 0.  1.
         12    1    4    4    0    0 -0.15499544374E+02  0.30540267460E+01  0.11358915888E+02  0.19457336028E+02  0.00000000000E+00 0. -1.
         -5    1    5    5    0  502 -0.16080506853E+02  0.36543616967E+02 -0.44122478455E+01  0.40442262210E+02  0.47000000000E+01 0.  1.
         11    1    6    6    0    0  0.62577299025E+02 -0.17349735794E+02  0.33046683595E+02  0.72862987737E+02  0.00000000000E+00 0. -1.
        -12    1    6    6    0    0  0.28609644872E+02  0.30962885984E+02  0.13103433778E+03  0.13764886402E+03  0.00000000000E+00 0.  1.
</event>
<event>
12    1  0.1628146E-001  0.1791042E+03  0.7818608E-02  0.1170183E+00
         21   -1    0    0  501  502  0.00000000000E+00  0.00000000000E+00  0.31582706217E+04  0.31582706217E+04  0.00000000000E+00 0. -1.
         21   -1    0    0  502  503 -0.00000000000E+00 -0.00000000000E+00 -0.14697322556E+02  0.14697322556E+02  0.00000000000E+00 0. -1.
         -6    2    1    2    0  503  0.35925321804E+02  0.36166308101E+02  0.63930454865E+03  0.66230263609E+03  0.16533555349E+03 0.  0.
        -24    2    3    3    0    0  0.81289529802E+02  0.53922208693E+01  0.49391771703E+03  0.50685368427E+03  0.79428473204E+02 0.  0.
          6    2    1    2  501    0 -0.35925321804E+02 -0.36166308101E+02  0.25042687505E+04  0.25106653082E+04  0.17169648915E+03 0.  0.
         24    2    5    5    0    0 -0.16197068875E+02  0.21837248106E+02  0.48819220947E+03  0.49365258492E+03  0.67985518815E+02 0.  0.
          5    1    5    5  501    0 -0.19728252929E+02 -0.58003556208E+02  0.20160765410E+04  0.20170127232E+04  0.47000000000E+01 0. -1.
        -11    1    6    6    0    0 -0.36547408718E+02  0.29891581127E+02  0.40036850224E+03  0.40314284974E+03  0.00000000000E+00 0.  1.
         12    1    6    6    0    0  0.20350339843E+02 -0.80543330202E+01  0.87823707222E+02  0.90509735180E+02  0.00000000000E+00 0. -1.
         -5    1    3    3    0  503 -0.45364207998E+02  0.30774087232E+02  0.14538683162E+03  0.15544895182E+03  0.47000000000E+01 0.  1.
         11    1    4    4    0    0 -0.57650733052E+01 -0.42912008621E+01  0.23771020996E+01  0.75697483079E+01  0.00000000000E+00 0. -1.
        -12    1    4    4    0    0  0.87054603107E+02  0.96834217314E+01  0.49154061493E+03  0.49928393596E+03  0.00000000000E+00 0.  1.
</event>
<event>
12    1  0.1628146E-001  0.1909235E+03  0.7818608E-02  0.1158000E+00
         21   -1    0    0  501  502  0.00000000000E+00  0.00000000000E+00  0.71678154858E+02  0.71678154858E+02  0.00000000000E+00 0. -1.
         21   -1    0    0  502  503 -0.00000000000E+00 -0.00000000000E+00 -0.51402454547E+03  0.51402454547E+03  0.00000000000E+00 0. -1.
         -6    2    1    2    0  503 -0.78857281688E+02 -0.49730880673E+01 -0.18159862461E+03  0.26349544229E+03  0.17380617125E+03 0.  0.
        -24    2    3    3    0    0 -0.59110877118E+02  0.35859645675E+02 -0.37540982630E+02  0.11239307019E+03  0.80267470805E+02 0.  0.
          6    2    1    2  501    0  0.78857281688E+02  0.49730880673E+01 -0.26074776600E+03  0.32220725804E+03  0.17200266620E+03 0.  0.
         24    2    5    5    0    0 -0.39529902451E+01 -0.10099056381E+02 -0.73521526480E+02  0.11687712036E+03  0.90206592531E+02 0.  0.
          5    1    5    5  501    0  0.82810271933E+02  0.15072144448E+02 -0.18722623952E+03  0.20533013768E+03  0.47000000000E+01 0. -1.
        -11    1    6    6    0    0 -0.12996858867E+02 -0.11677449625E+02 -0.93379301638E+02  0.94999869182E+02  0.00000000000E+00 0.  1.
         12    1    6    6    0    0  0.90438686222E+01  0.15783932445E+01  0.19857775158E+02  0.21877251178E+02  0.00000000000E+00 0. -1.
         -5    1    3    3    0  503 -0.19746404570E+02 -0.40832733742E+02 -0.14405764198E+03  0.15110237209E+03  0.47000000000E+01 0.  1.
         11    1    4    4    0    0 -0.66594590460E+02  0.79339505940E+01 -0.47089070520E+02  0.81946126284E+02  0.00000000000E+00 0. -1.
        -12    1    4    4    0    0  0.74837133423E+01  0.27925695081E+02  0.95480878896E+01  0.30446943910E+02  0.00000000000E+00 0.  1.
</event>
<event>
12    1  0.1628146E-001  0.1969610E+03  0.7818608E-02  0.1152607E+00
         21   -1    0    0  503  502  0.00000000000E+00  0.00000000000E+00  0.45238309505E+03  0.45238309505E+03  0.00000000000E+00 0. -1.
         21   -1    0    0  501  503 -0.00000000000E+00 -0.00000000000E+00 -0.85507725975E+02  0.85507725975E+02  0.00000000000E+00 0. -1.
          6    2    1    2  501    0 -0.49012711564E+02 -0.81683483673E+02  0.16654016545E+03  0.25694985740E+03  0.17091859205E+03 0.  0.
         24    2    3    3    0    0 -0.97764047381E+00  0.78008801229E+00  0.24563918931E+02  0.85815543815E+02  0.82215309577E+02 0.  0.
         -6    2    1    2    0  502  0.49012711564E+02  0.81683483673E+02  0.20033520362E+03  0.28094096362E+03  0.17239255736E+03 0.  0.
        -24    2    5    5    0    0  0.95946626163E+02  0.72877440562E+02  0.11599353204E+03  0.18390516456E+03  0.76483551576E+02 0.  0.
          5    1    3    3  501    0 -0.48035071090E+02 -0.82463571685E+02  0.14197624652E+03  0.17113431358E+03  0.47000000000E+01 0. -1.
        -11    1    4    4    0    0  0.38511390833E+02  0.38359596847E+01  0.25235930104E+02  0.46202748607E+02  0.00000000000E+00 0.  1.
         12    1    4    4    0    0 -0.39489031307E+02 -0.30558716724E+01 -0.67201117286E+00  0.39612795208E+02  0.00000000000E+00 0. -1.
         -5    1    5    5    0  502 -0.46933914599E+02  0.88060431103E+01  0.84341671583E+02  0.97035799065E+02  0.47000000000E+01 0.  1.
         13    1    6    6    0    0  0.30674650536E+02  0.70529930994E+02  0.55138362437E+02  0.94634266330E+02  0.00000000000E+00 0. -1.
        -14    1    6    6    0    0  0.65271975627E+02  0.23475095685E+01  0.60855169599E+02  0.89270898228E+02  0.00000000000E+00 0.  1.
</event>
<event>
12    1  0.1628146E-001  0.1861393E+03  0.7818608E-02  0.1163527E+00
         21   -1    0    0  503  502  0.00000000000E+00  0.00000000000E+00  0.30892202138E+03  0.30892202138E+03  0.00000000000E+00 0.  1.
         21   -1    0    0  501  503 -0.00000000000E+00 -0.00000000000E+00 -0.12077112071E+03  0.12077112071E+03  0.00000000000E+00 0.  1.
          6    2    1    2  501    0 -0.22931319738E+02  0.46071168418E+02  0.26459173099E+02  0.18801045507E+03  0.17888388801E+03 0.  0.
         24    2    3    3    0    0  0.23177857751E+02 -0.12160908031E+02 -0.35285222546E+02  0.91307345658E+02  0.80043011356E+02 0.  0.
         -6    2    1    2    0  502  0.22931319738E+02 -0.46071168418E+02  0.16169172757E+03  0.24168268702E+03  0.17209854287E+03 0.  0.
        -24    2    5    5    0    0  0.68647096021E+02 -0.14109113736E+02  0.48845943716E+02  0.11571536557E+03  0.78055292762E+02 0.  0.
          5    1    3    3  501    0 -0.46109177488E+02  0.58232076449E+02  0.61744395645E+02  0.96703109411E+02  0.47000000000E+01 0. -1.
        -11    1    4    4    0    0  0.45184218149E+02 -0.11416997412E+02  0.34705235291E+01  0.46733349261E+02  0.00000000000E+00 0.  1.
         12    1    4    4    0    0 -0.22006360398E+02 -0.74391061883E+00 -0.38755746075E+02  0.44573996397E+02  0.00000000000E+00 0. -1.
         -5    1    5    5    0  502 -0.45715776283E+02 -0.31962054682E+02  0.11284578385E+03  0.12596732145E+03  0.47000000000E+01 0.  1.
         11    1    6    6    0    0  0.55144227456E+02 -0.36716679488E+02  0.57781722245E+02  0.87907495699E+02  0.00000000000E+00 0. -1.
        -12    1    6    6    0    0  0.13502868565E+02  0.22607565751E+02 -0.89357785295E+01  0.27807869868E+02  0.00000000000E+00 0.  1.
</event>
<event>
12    1  0.1628146E-001  0.2068712E+03  0.7818608E-02  0.1145575E+00
         21   -1    0    0  503  502  0.00000000000E+00  0.00000000000E+00  0.14319557125E+03  0.14319557125E+03  0.00000000000E+00 0. -1.
         21   -1    0    0  501  503 -0.00000000000E+00 -0.00000000000E+00 -0.30064324596E+03  0.30064324596E+03  0.00000000000E+00 0. -1.
          6    2    1    2  501    0 -0.11606339902E+02 -0.11371383103E+03 -0.12218551236E+03  0.23398380550E+03  0.16356521425E+03 0.  0.
         24    2    3    3    0    0 -0.12937403926E+02 -0.66935881533E+02 -0.17280400147E+01  0.10467007485E+03  0.79404343644E+02 0.  0.
         -6    2    1    2    0  502  0.11606339902E+02  0.11371383103E+03 -0.35262162349E+02  0.20985501170E+03  0.17242436994E+03 0.  0.
        -24    2    5    5    0    0 -0.25560707776E+02  0.34833479047E+01  0.90449528172E+01  0.85286318614E+02  0.80786517913E+02 0.  0.
          5    1    3    3  501    0  0.13310640236E+01 -0.46777949498E+02 -0.12045747235E+03  0.12931373065E+03  0.47000000000E+01 0. -1.
        -11    1    4    4    0    0  0.32120753669E+02 -0.38771559654E+02  0.69628547109E+01  0.50827728652E+02  0.00000000000E+00 0.  1.
         12    1    4    4    0    0 -0.45058157595E+02 -0.28164321879E+02 -0.86908947255E+01  0.53842346196E+02  0.00000000000E+00 0. -1.
         -5    1    5    5    0  502  0.37167047679E+02  0.11023048313E+03 -0.44307115166E+02  0.12456869309E+03  0.47000000000E+01 0.  1.
         11    1    6    6    0    0  0.15838194369E+02  0.24992380343E+02 -0.14587792415E+02  0.32988955176E+02  0.00000000000E+00 0. -1.
        -12    1    6    6    0    0 -0.41398902146E+02 -0.21509032438E+02  0.23632745232E+02  0.52297363437E+02  0.00000000000E+00 0.  1.
</event>
<event>
12    1  0.1628146E-001  0.1997314E+03  0.7818608E-02  0.1150080E+00
         21   -1    0    0  501  502  0.00000000000E+00  0.00000000000E+00  0.19476333405E+03  0.19476333405E+03  0.00000000000E+00 0. -1.
         21   -1    0    0  502  503 -0.00000000000E+00 -0.00000000000E+00 -0.23654679499E+03  0.23654679499E+03  0.00000000000E+00 0. -1.
         -6    2    1    2    0  503 -0.36992391088E+02 -0.94674698636E+02 -0.10052529076E+03  0.22311975336E+03  0.17130485895E+03 0.  0.
        -24    2    3    3    0    0 -0.82900520790E+02 -0.94092439788E+02 -0.95488247629E+02  0.17669392864E+03  0.79855215293E+02 0.  0.
          6    2    1    2  501    0  0.36992391088E+02  0.94674698636E+02  0.58741829816E+02  0.20819037567E+03  0.17193281942E+03 0.  0.
         24    2    5    5    0    0 -0.15564092067E+02  0.69782849375E+01 -0.14136027521E+02  0.82547560570E+02  0.79519400523E+02 0.  0.
          5    1    5    5  501    0  0.52556483155E+02  0.87696413698E+02  0.72877857337E+02  0.12564281510E+03  0.47000000000E+01 0. -1.
        -11    1    6    6    0    0  0.10692960056E+02 -0.29816365819E+02  0.73209126575E+01  0.32510780175E+02  0.00000000000E+00 0.  1.
         12    1    6    6    0    0 -0.26257052123E+02  0.36794650757E+02 -0.21456940178E+02  0.50036780395E+02  0.00000000000E+00 0. -1.
         -5    1    3    3    0  503  0.45908129702E+02 -0.58225884800E+00 -0.50370431272E+01  0.46425824727E+02  0.47000000000E+01 0.  1.
         11    1    4    4    0    0 -0.67901231446E+02 -0.40410129417E+02 -0.91378950532E+02  0.12080425651E+03  0.00000000000E+00 0. -1.
        -12    1    4    4    0    0 -0.14999289345E+02 -0.53682310370E+02 -0.41092970977E+01  0.55889672125E+02  0.00000000000E+00 0.  1.
</event>
<event>
12    1  0.1628146E-001  0.2071844E+03  0.7818608E-02  0.1144514E+00
         21   -1    0    0  501  502  0.00000000000E+00  0.00000000000E+00  0.47822241182E+02  0.47822241182E+02  0.00000000000E+00 0. -1.
         21   -1    0    0  502  503 -0.00000000000E+00 -0.00000000000E+00 -0.89717310254E+03  0.89717310254E+03  0.00000000000E+00 0. -1.
         -6    2    1    2    0  503 -0.55286988966E+02  0.99868318900E+02 -0.48103248399E+03  0.52240355192E+03  0.16876874158E+03 0.  0.
        -24    2    3    3    0    0 -0.99981440616E+02  0.48889145829E+02 -0.33119580324E+03  0.35787516229E+03  0.77443751550E+02 0.  0.
          6    2    1    2  501    0  0.55286988966E+02 -0.99868318900E+02 -0.36831837737E+03  0.42259179180E+03  0.17290188872E+03 0.  0.
         24    2    5    5    0    0  0.75945155722E+02 -0.53752945952E+01 -0.18409818946E+03  0.21446957019E+03  0.79426020329E+02 0.  0.
          5    1    5    5  501    0 -0.20658166756E+02 -0.94493024305E+02 -0.18422018791E+03  0.20812222162E+03  0.47000000000E+01 0. -1.
        -13    1    6    6    0    0  0.16913476422E+02  0.29948383627E+02 -0.29714834693E+02  0.45452643129E+02  0.00000000000E+00 0.  1.
         14    1    6    6    0    0  0.59031679300E+02 -0.35323678222E+02 -0.15438335476E+03  0.16901692706E+03  0.00000000000E+00 0. -1.
         -5    1    3    3    0  503  0.44694451650E+02  0.50979173072E+02 -0.14983668075E+03  0.16452838963E+03  0.47000000000E+01 0.  1.
         11    1    4    4    0    0  0.20216799646E+01  0.30021504608E+02 -0.52664230155E+02  0.60653928699E+02  0.00000000000E+00 0. -1.
        -12    1    4    4    0    0 -0.10200312058E+03  0.18867641221E+02 -0.27853157308E+03  0.29722123359E+03  0.00000000000E+00 0.  1.
</event>
<event>
12    1  0.1628146E-001  0.1844513E+03  0.7818608E-02  0.1163564E+00
         21   -1    0    0  501  502  0.00000000000E+00  0.00000000000E+00  0.45386235723E+03  0.45386235723E+03  0.00000000000E+00 0.  1.
         21   -1    0    0  502  503 -0.00000000000E+00 -0.00000000000E+00 -0.11931010667E+03  0.11931010667E+03  0.00000000000E+00 0.  1.
         -6    2    1    2    0  503  0.63214540749E+02  0.23860875724E+02 -0.74536835536E+01  0.18459771497E+03  0.17162557915E+03 0.  0.
        -24    2    3    3    0    0 -0.25750738334E+02  0.39328329900E+02 -0.86901175789E+01  0.94167179248E+02  0.81130274537E+02 0.  0.
          6    2    1    2  501    0 -0.63214540749E+02 -0.23860875724E+02  0.34200593411E+03  0.38857474893E+03  0.17163000026E+03 0.  0.
         24    2    5    5    0    0 -0.92288732863E+02 -0.58999842910E+02  0.25451121446E+03  0.28979483382E+03  0.84893437604E+02 0.  0.
          5    1    5    5  501    0  0.29074192114E+02  0.35138967187E+02  0.87494719652E+02  0.98779915109E+02  0.47000000000E+01 0. -1.
        -13    1    6    6    0    0 -0.73784160435E+02  0.67104809619E+00  0.11115055251E+03  0.13341288528E+03  0.00000000000E+00 0.  1.
         14    1    6    6    0    0 -0.18504572428E+02 -0.59670891007E+02  0.14336066195E+03  0.15638194854E+03  0.00000000000E+00 0. -1.
         -5    1    3    3    0  503  0.88965279083E+02 -0.15467454176E+02  0.12364340253E+01  0.90430535718E+02  0.47000000000E+01 0.  1.
         11    1    4    4    0    0  0.12915172761E+02  0.34036002560E+02  0.23709767367E+02  0.43444265747E+02  0.00000000000E+00 0. -1.
        -12    1    4    4    0    0 -0.38665911096E+02  0.52923273401E+01 -0.32399884945E+02  0.50722913501E+02  0.00000000000E+00 0.  1.
</event>
<event>
12    1  0.1628146E-001  0.2595402E+03  0.7818608E-02  0.1107522E+00
         21   -1    0    0  501  502  0.00000000000E+00  0.00000000000E+00  0.45195123354E+03  0.45195123354E+03  0.00000000000E+00 0. -1.
         21   -1    0    0  502  503 -0.00000000000E+00 -0.00000000000E+00 -0.19994509710E+03  0.19994509710E+03  0.00000000000E+00 0.  1.
         -6    2    1    2    0  503  0.19027205761E+03 -0.39121643610E+02 -0.38959010289E+02  0.26244790325E+03  0.17212535702E+03 0.  0.
        -24    2    3    3    0    0  0.53611943202E+02  0.45880522848E+02 -0.86818318048E+01  0.98618257850E+02  0.68344156642E+02 0.  0.
          6    2    1    2  501    0 -0.19027205761E+03  0.39121643610E+02  0.29096514673E+03  0.38944842740E+03  0.17110056132E+03 0.  0.
         24    2    5    5    0    0 -0.16022441804E+03  0.82478061989E+02  0.26528328674E+03  0.33059022838E+03  0.80250744760E+02 0.  0.
          5    1    5    5  501    0 -0.30047639575E+02 -0.43356418379E+02  0.25681859992E+02  0.58858199015E+02  0.47000000000E+01 0. -1.
        -13    1    6    6    0    0  0.20899618978E+00  0.22963167886E+02  0.15094559677E+02  0.27480838608E+02  0.00000000000E+00 0.  1.
         14    1    6    6    0    0 -0.16043341423E+03  0.59514894102E+02  0.25018872706E+03  0.30310938978E+03  0.00000000000E+00 0. -1.
         -5    1    3    3    0  503  0.13666011441E+03 -0.85002166459E+02 -0.30277178484E+02  0.16382964540E+03  0.47000000000E+01 0.  1.
         11    1    4    4    0    0  0.18435701345E+02  0.68657401834E+01  0.28234942393E+02  0.34412576833E+02  0.00000000000E+00 0. -1.
        -12    1    4    4    0    0  0.35176241857E+02  0.39014782665E+02 -0.36916774198E+02  0.64205681016E+02  0.00000000000E+00 0.  1.
</event>
<event>
12    1  0.1628146E-001  0.2163038E+03  0.7818608E-02  0.1136684E+00
         21   -1    0    0  503  502  0.00000000000E+00  0.00000000000E+00  0.43136890532E+03  0.43136890532E+03  0.00000000000E+00 0.  1.
         21   -1    0    0  501  503 -0.00000000000E+00 -0.00000000000E+00 -0.15127830481E+03  0.15127830481E+03  0.00000000000E+00 0.  1.
          6    2    1    2  501    0  0.75734415099E+02 -0.10749107065E+03 -0.14992972360E+02  0.21682284065E+03  0.17174784746E+03 0.  0.
         24    2    3    3    0    0 -0.21353222549E+02 -0.56235138337E+02  0.19274913715E+02  0.10171611627E+03  0.79726376518E+02 0.  0.
         -6    2    1    2    0  502 -0.75734415099E+02  0.10749107065E+03  0.29508357288E+03  0.36582436949E+03  0.17164825205E+03 0.  0.
        -24    2    5    5    0    0  0.19128360196E+02 -0.23647003270E+01  0.84221524762E+02  0.10979286774E+03  0.67747491477E+02 0.  0.
          5    1    3    3  501    0  0.97087637648E+02 -0.51255932310E+02 -0.34267886074E+02  0.11510672438E+03  0.47000000000E+01 0. -1.
        -11    1    4    4    0    0 -0.96777278050E+01 -0.26686403570E+01 -0.27735589399E+02  0.29496490912E+02  0.00000000000E+00 0.  1.
         12    1    4    4    0    0 -0.11675494744E+02 -0.53566497980E+02  0.47010503114E+02  0.72219625355E+02  0.00000000000E+00 0. -1.
         -5    1    5    5    0  502 -0.94862775295E+02  0.10985577097E+03  0.21086204811E+03  0.25603150175E+03  0.47000000000E+01 0.  1.
         11    1    6    6    0    0  0.34249539776E+02 -0.54452367539E+00  0.87715812445E+02  0.94166826610E+02  0.00000000000E+00 0. -1.
        -12    1    6    6    0    0 -0.15121179580E+02 -0.18201766517E+01 -0.34942876828E+01  0.15626041128E+02  0.00000000000E+00 0.  1.
</event>
<event>
12    1  0.1628146E-001  0.1809857E+03  0.7818608E-02  0.1167035E+00
         21   -1    0    0  503  502  0.00000000000E+00  0.00000000000E+00  0.25531557330E+03  0.25531557330E+03  0.00000000000E+00 0. -1.
         21   -1    0    0  501  503 -0.00000000000E+00 -0.00000000000E+00 -0.19751411465E+03  0.19751411465E+03  0.00000000000E+00 0. -1.
          6    2    1    2  501    0 -0.55192981013E+02  0.14283432452E+02 -0.10569319148E+03  0.20893150877E+03  0.17097088359E+03 0.  0.
         24    2    3    3    0    0 -0.43986575586E+02  0.37551515593E+02 -0.13589100024E+03  0.16891919980E+03  0.81990224775E+02 0.  0.
         -6    2    1    2    0  502  0.55192981013E+02 -0.14283432452E+02  0.16349465013E+03  0.24389817918E+03  0.17177176599E+03 0.  0.
        -24    2    5    5    0    0 -0.48373003732E+01 -0.47901377445E+02  0.39104744996E+02  0.10167040620E+03  0.80558978269E+02 0.  0.
          5    1    3    3  501    0 -0.11206405428E+02 -0.23268083141E+02  0.30197808760E+02  0.40012308976E+02  0.47000000000E+01 0. -1.
        -11    1    4    4    0    0 -0.39559035921E+02 -0.77155813764E+00 -0.15493202774E+02  0.42491786938E+02  0.00000000000E+00 0.  1.
         12    1    4    4    0    0 -0.44275396643E+01  0.38323073731E+02 -0.12039779746E+03  0.12642741286E+03  0.00000000000E+00 0. -1.
         -5    1    5    5    0  502  0.60030281387E+02  0.33617944992E+02  0.12438990513E+03  0.14222777298E+03  0.47000000000E+01 0.  1.
         11    1    6    6    0    0  0.31362724631E+02 -0.83132436571E+01  0.35218395086E+02  0.47885967348E+02  0.00000000000E+00 0. -1.
        -12    1    6    6    0    0 -0.36200025004E+02 -0.39588133788E+02  0.38863499101E+01  0.53784438853E+02  0.00000000000E+00 0.  1.
</event>
<event>
12    1  0.1628146E-001  0.2469976E+03  0.7818608E-02  0.1116026E+00
         21   -1    0    0  501  502  0.00000000000E+00  0.00000000000E+00  0.65943807845E+03  0.65943807845E+03  0.00000000000E+00 0. -1.
         21   -1    0    0  502  503 -0.00000000000E+00 -0.00000000000E+00 -0.11003866554E+03  0.11003866554E+03  0.00000000000E+00 0. -1.
         -6    2    1    2    0  503 -0.12052329415E+03 -0.12983001249E+03  0.11092484045E+03  0.26621960829E+03  0.16488439293E+03 0.  0.
        -24    2    3    3    0    0 -0.78256952116E+02 -0.11552812570E+03  0.13894664268E+03  0.21332065712E+03  0.82028256473E+02 0.  0.
          6    2    1    2  501    0  0.12052329415E+03  0.12983001249E+03  0.43847457246E+03  0.50325713569E+03  0.17212233254E+03 0.  0.
         24    2    5    5    0    0  0.93729841525E+02  0.14227797888E+02  0.27571640040E+03  0.30177742531E+03  0.77861206969E+02 0.  0.
          5    1    5    5  501    0  0.26793452628E+02  0.11560221461E+03  0.16275817205E+03  0.20147971038E+03  0.47000000000E+01 0. -1.
        -11    1    6    6    0    0 -0.11438789632E+02 -0.59904878507E+01  0.54397251310E+02  0.55908790033E+02  0.00000000000E+00 0.  1.
         12    1    6    6    0    0  0.10516863116E+03  0.20218285738E+02  0.22131914909E+03  0.24586863528E+03  0.00000000000E+00 0. -1.
         -5    1    3    3    0  503 -0.42266342036E+02 -0.14301886799E+02 -0.28021802229E+02  0.52898951174E+02  0.47000000000E+01 0.  1.
         13    1    4    4    0    0 -0.91353555723E+01 -0.65763561308E+01 -0.10837192550E+02  0.15625233559E+02  0.00000000000E+00 0. -1.
        -14    1    4    4    0    0 -0.69121596544E+02 -0.10895176956E+03  0.14978383523E+03  0.19769542356E+03  0.00000000000E+00 0.  1.
</event>
<event>
12    1  0.1628146E-001  0.3190313E+03  0.7818608E-02  0.1076105E+00
         21   -1    0    0  501  502  0.00000000000E+00  0.00000000000E+00  0.43107212260E+03  0.43107212260E+03  0.00000000000E+00 0.  1.
         21   -1    0    0  502  503 -0.00000000000E+00 -0.00000000000E+00 -0.28430424202E+03  0.28430424202E+03  0.00000000000E+00 0. -1.
         -6    2    1    2    0  503  0.25292979890E+03 -0.90822361893E+02 -0.73960693028E+02  0.32749218614E+03  0.17192662178E+03 0.  0.
        -24    2    3    3    0    0  0.19018543678E+03 -0.24685616265E+01 -0.71159632415E+02  0.21898787775E+03  0.81947563442E+02 0.  0.
          6    2    1    2  501    0 -0.25292979890E+03  0.90822361893E+02  0.22072857360E+03  0.38788417848E+03  0.17178721757E+03 0.  0.
         24    2    5    5    0    0 -0.17484306809E+03  0.12611308127E+03  0.11592783460E+03  0.25242843922E+03  0.61694783956E+02 0.  0.
          5    1    5    5  501    0 -0.78086730806E+02 -0.35290719373E+02  0.10480073900E+03  0.13545573926E+03  0.47000000000E+01 0. -1.
        -13    1    6    6    0    0 -0.67278405331E+02  0.23210271605E+02  0.61079007326E+02  0.93785636788E+02  0.00000000000E+00 0.  1.
         14    1    6    6    0    0 -0.10756466276E+03  0.10290280966E+03  0.54848827274E+02  0.15864280243E+03  0.00000000000E+00 0. -1.
         -5    1    3    3    0  503  0.62744362115E+02 -0.88353800267E+02 -0.28010606125E+01  0.10850430839E+03  0.47000000000E+01 0.  1.
         13    1    4    4    0    0  0.11069722329E+03 -0.35914900331E+02 -0.63075059801E+02  0.13237151687E+03  0.00000000000E+00 0. -1.
        -14    1    4    4    0    0  0.79488213495E+02  0.33446338705E+02 -0.80845726146E+01  0.86616360878E+02  0.00000000000E+00 0.  1.
</event>
<event>
12    1  0.1628146E-001  0.2473080E+03  0.7818608E-02  0.1115093E+00
         21   -1    0    0  501  502  0.00000000000E+00  0.00000000000E+00  0.15241116092E+03  0.15241116092E+03  0.00000000000E+00 0.  1.
         21   -1    0    0  502  503 -0.00000000000E+00 -0.00000000000E+00 -0.46733161683E+03  0.46733161683E+03  0.00000000000E+00 0.  1.
         -6    2    1    2    0  503  0.16583232491E+03 -0.62961740340E+02 -0.40435455791E+02  0.25059180215E+03  0.17232725986E+03 0.  0.
        -24    2    3    3    0    0  0.31393617295E+02 -0.72471139654E+02 -0.10334570833E+02  0.11241673908E+03  0.79329027355E+02 0.  0.
          6    2    1    2  501    0 -0.16583232491E+03  0.62961740340E+02 -0.27448500011E+03  0.36915097560E+03  0.17165630418E+03 0.  0.
         24    2    5    5    0    0 -0.93570678641E+02  0.10539928863E+03 -0.16807490518E+03  0.23362278912E+03  0.80411142875E+02 0.  0.
          5    1    5    5  501    0 -0.72261646267E+02 -0.42437548294E+02 -0.10641009493E+03  0.13552818648E+03  0.47000000000E+01 0. -1.
        -11    1    6    6    0    0 -0.10364559379E+03  0.10404697155E+03 -0.16841195255E+03  0.22345193479E+03  0.00000000000E+00 0.  1.
         12    1    6    6    0    0  0.10074915150E+02  0.13523170838E+01  0.33704736991E+00  0.10170854326E+02  0.00000000000E+00 0. -1.
         -5    1    3    3    0  503  0.13443870761E+03  0.95093993143E+01 -0.30100884958E+02  0.13817506307E+03  0.47000000000E+01 0.  1.
         11    1    4    4    0    0 -0.21391306305E+02 -0.19126496908E+02 -0.22405358368E+02  0.36406193882E+02  0.00000000000E+00 0. -1.
        -12    1    4    4    0    0  0.52784923601E+02 -0.53344642747E+02  0.12070787535E+02  0.76010545196E+02  0.00000000000E+00 0.  1.
</event>
<event>
12    1  0.1628146E-001  0.1839752E+03  0.7818608E-02  0.1164229E+00
         21   -1    0    0  503  502  0.00000000000E+00  0.00000000000E+00  0.31248380467E+03  0.31248380467E+03  0.00000000000E+00 0. -1.
         21   -1    0    0  501  503 -0.00000000000E+00 -0.00000000000E+00 -0.16640834525E+03  0.16640834525E+03  0.00000000000E+00 0. -1.
          6    2    1    2  501    0  0.63813021359E+02 -0.20484399973E+02 -0.69217667570E+02  0.19569962147E+03  0.17033949631E+03 0.  0.
         24    2    3    3    0    0 -0.58036562390E+01 -0.16591006345E+02 -0.91264235767E+02  0.12242082861E+03  0.79679072723E+02 0.  0.
         -6    2    1    2    0  502 -0.63813021359E+02  0.20484399973E+02  0.21529312698E+03  0.28319252845E+03  0.17133349150E+03 0.  0.
        -24    2    5    5    0    0 -0.91099520482E+02  0.20150265739E+02  0.82109416610E+02  0.14716071089E+03  0.78798240416E+02 0.  0.
          5    1    3    3  501    0  0.69616677598E+02 -0.38933936277E+01  0.22046568197E+02  0.73278792860E+02  0.47000000000E+01 0. -1.
        -13    1    4    4    0    0  0.87618596071E+01  0.29208420792E+02 -0.52340710335E+02  0.60576001744E+02  0.00000000000E+00 0.  1.
         14    1    4    4    0    0 -0.14565515846E+02 -0.45799427137E+02 -0.38923525432E+02  0.61844826865E+02  0.00000000000E+00 0. -1.
         -5    1    5    5    0  502  0.27286499123E+02  0.33413423469E+00  0.13318371037E+03  0.13603181756E+03  0.47000000000E+01 0.  1.
         13    1    6    6    0    0 -0.70740653827E+02  0.11704088950E+02  0.96953469961E+02  0.12058690285E+03  0.00000000000E+00 0. -1.
        -14    1    6    6    0    0 -0.20358866656E+02  0.84461767881E+01 -0.14844053351E+02  0.26573808040E+02  0.00000000000E+00 0.  1.
</event>
<event>
12    1  0.1628146E-001  0.2927107E+03  0.7818608E-02  0.1089387E+00
         21   -1    0    0  501  502  0.00000000000E+00  0.00000000000E+00  0.56745566325E+03  0.56745566325E+03  0.00000000000E+00 0.  1.
         21   -1    0    0  502  503 -0.00000000000E+00 -0.00000000000E+00 -0.41045984073E+03  0.41045984073E+03  0.00000000000E+00 0. -1.
         -6    2    1    2    0  503 -0.17289955882E+03  0.16198352023E+03 -0.31174417810E+03  0.42528836318E+03  0.16599048471E+03 0.  0.
        -24    2    3    3    0    0 -0.67561433835E+02  0.78108282055E+02 -0.24201512856E+03  0.27358006907E+03  0.74895131143E+02 0.  0.
          6    2    1    2  501    0  0.17289955882E+03 -0.16198352023E+03  0.46874000062E+03  0.55262714080E+03  0.17189139101E+03 0.  0.
         24    2    5    5    0    0  0.84785756529E+02 -0.16817696356E+03  0.34321276218E+03  0.39906419447E+03  0.77363528895E+02 0.  0.
          5    1    5    5  501    0  0.88113802293E+02  0.61934433341E+01  0.12552723844E+03  0.15356294633E+03  0.47000000000E+01 0. -1.
        -13    1    6    6    0    0  0.50889672666E+01 -0.60235408813E+02  0.16685465536E+03  0.17746740004E+03  0.00000000000E+00 0.  1.
         14    1    6    6    0    0  0.79696789262E+02 -0.10794155475E+03  0.17635810683E+03  0.22159679443E+03  0.00000000000E+00 0. -1.
         -5    1    3    3    0  503 -0.10533812499E+03  0.83875238171E+02 -0.69729049531E+02  0.15170829411E+03  0.47000000000E+01 0.  1.
         11    1    4    4    0    0 -0.19744329753E+02  0.75583275001E+02 -0.12855551801E+03  0.15043002103E+03  0.00000000000E+00 0. -1.
        -12    1    4    4    0    0 -0.47817104081E+02  0.25250070537E+01 -0.11345961055E+03  0.12315004803E+03  0.00000000000E+00 0.  1.
</event>
<event>
12    1  0.1628146E-001  0.2144650E+03  0.7818608E-02  0.1138362E+00
         21   -1    0    0  503  502  0.00000000000E+00  0.00000000000E+00  0.53410553376E+03  0.53410553376E+03  0.00000000000E+00 0. -1.
         21   -1    0    0  501  503 -0.00000000000E+00 -0.00000000000E+00 -0.85990883281E+02  0.85990883281E+02  0.00000000000E+00 0. -1.
          6    2    1    2  501    0 -0.87117739030E+02 -0.90993064228E+02  0.20052250876E+03  0.29253408077E+03  0.17174886812E+03 0.  0.
         24    2    3    3    0    0 -0.79765041329E+02 -0.44036440001E+02  0.40903889021E+02  0.12592321530E+03  0.76693273170E+02 0.  0.
         -6    2    1    2    0  502  0.87117739030E+02  0.90993064228E+02  0.24759214172E+03  0.32756233628E+03  0.17356836496E+03 0.  0.
        -24    2    5    5    0    0  0.99498552963E+02  0.10910446154E+03  0.14499100740E+03  0.22253667261E+03  0.81831735023E+02 0.  0.
          5    1    3    3  501    0 -0.73526977011E+01 -0.46956624227E+02  0.15961861974E+03  0.16661086546E+03  0.47000000000E+01 0. -1.
        -13    1    4    4    0    0  0.15309466693E+02 -0.42781912572E+01  0.76255973181E+01  0.17630440304E+02  0.00000000000E+00 0.  1.
         14    1    4    4    0    0 -0.95074508022E+02 -0.39758248744E+02  0.33278291702E+02  0.10829277500E+03  0.00000000000E+00 0. -1.
         -5    1    5    5    0  502 -0.12380813933E+02 -0.18111397312E+02  0.10260113432E+03  0.10502566367E+03  0.47000000000E+01 0.  1.
         11    1    6    6    0    0  0.10312458711E+03  0.83804498377E+02  0.14540027629E+03  0.19697490896E+03  0.00000000000E+00 0. -1.
        -12    1    6    6    0    0 -0.36260341505E+01  0.25299963163E+02 -0.40926888146E+00  0.25561763647E+02  0.00000000000E+00 0.  1.
</event>
<event>
12    1  0.1628146E-001  0.2090288E+03  0.7818608E-02  0.1143104E+00
         21   -1    0    0  501  502  0.00000000000E+00  0.00000000000E+00  0.50905859281E+02  0.50905859281E+02  0.00000000000E+00 0. -1.
         21   -1    0    0  502  503 -0.00000000000E+00 -0.00000000000E+00 -0.10000462298E+04  0.10000462298E+04  0.00000000000E+00 0. -1.
         -6    2    1    2    0  503  0.17739831520E+02  0.11738361238E+03 -0.67929847478E+03  0.70961987659E+03  0.16739276369E+03 0.  0.
        -24    2    3    3    0    0 -0.50163428891E+02  0.91323510535E+02 -0.39966620985E+03  0.42064535303E+03  0.79706213986E+02 0.  0.
          6    2    1    2  501    0 -0.17739831520E+02 -0.11738361238E+03 -0.26984189579E+03  0.34133221254E+03  0.17204480961E+03 0.  0.
         24    2    5    5    0    0 -0.80415466539E+02 -0.64891514607E+02 -0.17294978353E+03  0.21447076461E+03  0.73542676864E+02 0.  0.
          5    1    5    5  501    0  0.62675635018E+02 -0.52492097777E+02 -0.96892112258E+02  0.12686144793E+03  0.47000000000E+01 0. -1.
        -13    1    6    6    0    0 -0.15180860987E+02  0.15728459275E+02 -0.42764559131E+02  0.48027601326E+02  0.00000000000E+00 0.  1.
         14    1    6    6    0    0 -0.65234605552E+02 -0.80619973882E+02 -0.13018522440E+03  0.16644316328E+03  0.00000000000E+00 0. -1.
         -5    1    3    3    0  503  0.67903260412E+02  0.26060101848E+02 -0.27963226492E+03  0.28897452356E+03  0.47000000000E+01 0.  1.
         11    1    4    4    0    0 -0.29079998991E+02  0.10153858454E+03 -0.35246077858E+03  0.36794609786E+03  0.00000000000E+00 0. -1.
        -12    1    4    4    0    0 -0.21083429900E+02 -0.10215074008E+02 -0.47205431276E+02  0.52699255169E+02  0.00000000000E+00 0.  1.
</event>
<event>
12    1  0.1628146E-001  0.1761584E+03  0.7818608E-02  0.1172343E+00
         21   -1    0    0  501  502  0.00000000000E+00  0.00000000000E+00  0.82454266014E+03  0.82454266014E+03  0.00000000000E+00 0. -1.
         21   -1    0    0  502  503 -0.00000000000E+00 -0.00000000000E+00 -0.60228256004E+02  0.60228256004E+02  0.00000000000E+00 0.  1.
         -6    2    1    2    0  503  0.36583755155E+02  0.13506257867E+01  0.10528096279E+03  0.20260021052E+03  0.16918205829E+03 0.  0.
        -24    2    3    3    0    0  0.63023418292E+01 -0.48362609056E+02  0.10950683400E+03  0.14404837281E+03  0.79871932179E+02 0.  0.
          6    2    1    2  501    0 -0.36583755155E+02 -0.13506257867E+01  0.65903344135E+03  0.68217070562E+03  0.17231250525E+03 0.  0.
         24    2    5    5    0    0  0.18838806313E+02 -0.67084634998E+01  0.57828227474E+03  0.58397087033E+03  0.78814237296E+02 0.  0.
          5    1    5    5  501    0 -0.55422561468E+02  0.53578377131E+01  0.80751166601E+02  0.98199835295E+02  0.47000000000E+01 0. -1.
        -11    1    6    6    0    0 -0.15868265843E+02  0.11320496044E+01  0.25573017091E+02  0.30117479980E+02  0.00000000000E+00 0.  1.
         12    1    6    6    0    0  0.34707072156E+02 -0.78405131042E+01  0.55270925765E+03  0.55385339035E+03  0.00000000000E+00 0. -1.
         -5    1    3    3    0  503  0.30281413326E+02  0.49713234842E+02 -0.42258712106E+01  0.58551837708E+02  0.47000000000E+01 0.  1.
         13    1    4    4    0    0  0.16875178536E+02 -0.20616496942E+02  0.11116188443E+03  0.11431000020E+03  0.00000000000E+00 0. -1.
        -14    1    4    4    0    0 -0.10572836707E+02 -0.27746112114E+02 -0.16550504294E+01  0.29738372608E+02  0.00000000000E+00 0.  1.
</event>
<event>
12    1  0.1628146E-001  0.2023238E+03  0.7818608E-02  0.1148113E+00
         21   -1    0    0  503  502  0.00000000000E+00  0.00000000000E+00  0.97571424268E+02  0.97571424268E+02  0.00000000000E+00 0. -1.
         21   -1    0    0  501  503 -0.00000000000E+00 -0.00000000000E+00 -0.41678998507E+03  0.41678998507E+03  0.00000000000E+00 0. -1.
          6    2    1    2  501    0  0.61055810034E+01  0.10833899120E+03 -0.15197784348E+03  0.25304579735E+03  0.17076385892E+03 0.  0.
         24    2    3    3    0    0 -0.35051159188E+02  0.14585037435E+02 -0.30962924904E+02  0.94457078872E+02  0.80759705008E+02 0.  0.
         -6    2    1    2    0  502 -0.61055810034E+01 -0.10833899120E+03 -0.16724071732E+03  0.26131561199E+03  0.16894311588E+03 0.  0.
        -24    2    5    5    0    0  0.55281848658E+02 -0.68597659810E+02 -0.63547249771E+02  0.13434232679E+03  0.79043570845E+02 0.  0.
          5    1    3    3  501    0  0.41156740191E+02  0.93753953768E+02 -0.12101491858E+03  0.15858871848E+03  0.47000000000E+01 0. -1.
        -11    1    4    4    0    0  0.25107745779E+02  0.11154603464E+02 -0.18506186933E+01  0.27536319037E+02  0.00000000000E+00 0.  1.
         12    1    4    4    0    0 -0.60158904967E+02  0.34304339714E+01 -0.29112306211E+02  0.66920759835E+02  0.00000000000E+00 0. -1.
         -5    1    5    5    0  502 -0.61387429661E+02 -0.39741331393E+02 -0.10369346755E+03  0.12697328520E+03  0.47000000000E+01 0.  1.
         11    1    6    6    0    0  0.38744869141E+02 -0.75755189985E+02 -0.74636516711E+02  0.11318402414E+03  0.00000000000E+00 0. -1.
        -12    1    6    6    0    0  0.16536979517E+02  0.71575301747E+01  0.11089266939E+02  0.21158302649E+02  0.00000000000E+00 0.  1.
</event>
<event>
12    1  0.1628146E-001  0.1796644E+03  0.7818608E-02  0.1168174E+00
         21   -1    0    0  503  502  0.00000000000E+00  0.00000000000E+00  0.28943640348E+03  0.28943640348E+03  0.00000000000E+00 0. -1.
         21   -1    0    0  501  503 -0.00000000000E+00 -0.00000000000E+00 -0.20278885592E+03  0.20278885592E+03  0.00000000000E+00 0. -1.
          6    2    1    2  501    0 -0.66924665712E+01  0.53032282054E+02 -0.12187587674E+03  0.21710137856E+03  0.17152861917E+03 0.  0.
         24    2    3    3    0    0  0.51065253885E+02  0.18260298773E+01 -0.99853030794E+02  0.13669534472E+03  0.78128067756E+02 0.  0.
         -6    2    1    2    0  502  0.66924665712E+01 -0.53032282054E+02  0.20852342430E+03  0.27512388084E+03  0.17132985517E+03 0.  0.
        -24    2    5    5    0    0 -0.16402992255E+02 -0.64086084364E+02  0.22219924095E+03  0.24571801875E+03  0.81417183040E+02 0.  0.
          5    1    3    3  501    0 -0.57757720457E+02  0.51206252176E+02 -0.22022845946E+02  0.80406033840E+02  0.47000000000E+01 0. -1.
        -13    1    4    4    0    0  0.92072407103E+01 -0.35781628077E+02 -0.36001099024E+02  0.51586600201E+02  0.00000000000E+00 0.  1.
         14    1    4    4    0    0  0.41858013175E+02  0.37607657954E+02 -0.63851931770E+02  0.85108744524E+02  0.00000000000E+00 0. -1.
         -5    1    5    5    0  502  0.23095458827E+02  0.11053802310E+02 -0.13675816650E+02  0.29405862085E+02  0.47000000000E+01 0.  1.
         13    1    6    6    0    0  0.29450107779E+02 -0.47967877103E+02  0.12119682004E+03  0.13362969456E+03  0.00000000000E+00 0. -1.
        -14    1    6    6    0    0 -0.45853100034E+02 -0.16118207261E+02  0.10100242092E+03  0.11208832419E+03  0.00000000000E+00 0.  1.
</event>
<event>
12    1  0.1628146E-001  0.2371902E+03  0.7818608E-02  0.1121712E+00
         21   -1    0    0  501  502  0.00000000000E+00  0.00000000000E+00  0.14572917057E+04  0.14572917057E+04  0.00000000000E+00 0.  1.
         21   -1    0    0  502  503 -0.00000000000E+00 -0.00000000000E+00 -0.15456055134E+03  0.15456055134E+03  0.00000000000E+00 0. -1.
         -6    2    1    2    0  503  0.62821833185E+02 -0.15137035755E+03 -0.46720125093E+02  0.24174774926E+03  0.17146322146E+03 0.  0.
        -24    2    3    3    0    0  0.62638752555E+02 -0.13628912787E+03  0.21807600978E+02  0.17142267373E+03  0.80073852869E+02 0.  0.
          6    2    1    2  501    0 -0.62821833185E+02  0.15137035755E+03  0.13494512794E+04  0.13701045078E+04  0.17119590753E+03 0.  0.
         24    2    5    5    0    0 -0.10843087367E+02  0.12542150477E+03  0.12049022764E+04  0.12142467609E+04  0.82204466411E+02 0.  0.
          5    1    5    5  501    0 -0.51978745818E+02  0.25948852778E+02  0.14454900307E+03  0.15585774689E+03  0.47000000000E+01 0. -1.
        -11    1    6    6    0    0 -0.38559080023E+02  0.24895172930E+02  0.39597243324E+03  0.39862355697E+03  0.00000000000E+00 0.  1.
         12    1    6    6    0    0  0.27715992656E+02  0.10052633184E+03  0.80892984312E+03  0.81562320390E+03  0.00000000000E+00 0. -1.
         -5    1    3    3    0  503  0.18308062926E+00 -0.15081229684E+02 -0.68527726071E+02  0.70325075526E+02  0.47000000000E+01 0.  1.
         13    1    4    4    0    0 -0.63771741745E+01 -0.25696936000E+01 -0.15005478874E+02  0.16505637579E+02  0.00000000000E+00 0. -1.
        -14    1    4    4    0    0  0.69015926730E+02 -0.13371943427E+03  0.36813079851E+02  0.15491703615E+03  0.00000000000E+00 0.  1.
</event>
<event>
12    1  0.1628146E-001  0.1777110E+03  0.7818608E-02  0.1170489E+00
         21   -1    0    0  503  502  0.00000000000E+00  0.00000000000E+00  0.52950336440E+02  0.52950336440E+02  0.00000000000E+00 0. -1.
         21   -1    0    0  501  503 -0.00000000000E+00 -0.00000000000E+00 -0.77993247645E+03  0.77993247645E+03  0.00000000000E+00 0. -1.
          6    2    1    2  501    0 -0.45110725760E+02  0.60056431715E+01 -0.56740449546E+03  0.59403926772E+03  0.16989333357E+03 0.  0.
         24    2    3    3    0    0  0.28618089948E+02  0.18583734046E+02 -0.18359932438E+03  0.20298601561E+03  0.79562933436E+02 0.  0.
         -6    2    1    2    0  502  0.45110725760E+02 -0.60056431715E+01 -0.15957764455E+03  0.23884354517E+03  0.17178524122E+03 0.  0.
        -24    2    5    5    0    0 -0.66947130058E+01  0.79683177792E+01 -0.21560137789E+02  0.90688230578E+02  0.87471151550E+02 0.  0.
          5    1    3    3  501    0 -0.73728815707E+02 -0.12578090875E+02 -0.38380517108E+03  0.39105325211E+03  0.47000000000E+01 0. -1.
        -13    1    4    4    0    0  0.43585467810E+02  0.31131149963E+02 -0.17227536731E+03  0.18040965519E+03  0.00000000000E+00 0.  1.
         14    1    4    4    0    0 -0.14967377862E+02 -0.12547415917E+02 -0.11323957069E+02  0.22576360423E+02  0.00000000000E+00 0. -1.
         -5    1    5    5    0  502  0.51805438765E+02 -0.13973960951E+02 -0.13801750676E+03  0.14815531459E+03  0.47000000000E+01 0.  1.
         13    1    6    6    0    0  0.37412937792E+02  0.55022290577E+01 -0.26587445858E+02  0.46226558557E+02  0.00000000000E+00 0. -1.
        -14    1    6    6    0    0 -0.44107650797E+02  0.24660887215E+01  0.50273080693E+01  0.44461672021E+02  0.00000000000E+00 0.  1.
</event>
<event>
12    1  0.1628146E-001  0.1819382E+03  0.7818608E-02  0.1166235E+00
         21   -1    0    0  501  502  0.00000000000E+00  0.00000000000E+00  0.31005699101E+02  0.31005699101E+02  0.00000000000E+00 0.  1.
         21   -1    0    0  502  503 -0.00000000000E+00 -0.00000000000E+00 -0.13141912068E+04  0.13141912068E+04  0.00000000000E+00 0. -1.
         -6    2    1    2    0  503  0.58262819717E+02 -0.69238520107E+00 -0.93541366980E+03  0.95270900386E+03  0.17105752488E+03 0.  0.
        -24    2    3    3    0    0 -0.79094191641E+01  0.15696784681E+02 -0.23925455048E+03  0.25320419365E+03  0.80997998710E+02 0.  0.
          6    2    1    2  501    0 -0.58262819717E+02  0.69238520107E+00 -0.34777183785E+03  0.39248790200E+03  0.17235563946E+03 0.  0.
         24    2    5    5    0    0 -0.28585473469E+02 -0.60224681819E+02 -0.13741627840E+03  0.17143771465E+03  0.77868574161E+02 0.  0.
          5    1    5    5  501    0 -0.29677346248E+02  0.60917067020E+02 -0.21035555945E+03  0.22105018735E+03  0.47000000000E+01 0. -1.
        -13    1    6    6    0    0  0.23327167068E+02 -0.20160002925E+01 -0.43107480024E+02  0.49055843838E+02  0.00000000000E+00 0.  1.
         14    1    6    6    0    0 -0.51912640538E+02 -0.58208681527E+02 -0.94308798374E+02  0.12238187081E+03  0.00000000000E+00 0. -1.
         -5    1    3    3    0  503  0.66172238881E+02 -0.16389169882E+02 -0.69615911932E+03  0.69950481021E+03  0.47000000000E+01 0.  1.
         13    1    4    4    0    0  0.89033657696E+01  0.11865836536E+02 -0.23496779207E+03  0.23543562030E+03  0.00000000000E+00 0. -1.
        -14    1    4    4    0    0 -0.16812784934E+02  0.38309481449E+01 -0.42867584082E+01  0.17768573341E+02  0.00000000000E+00 0.  1.
</event>
<event>
12    1  0.1628146E-001  0.1938790E+03  0.7818608E-02  0.1155233E+00
         21   -1    0    0  501  502  0.00000000000E+00  0.00000000000E+00  0.78554862280E+03  0.78554862280E+03  0.00000000000E+00 0.  1.
         21   -1    0    0  502  503 -0.00000000000E+00 -0.00000000000E+00 -0.17715946139E+03  0.17715946139E+03  0.00000000000E+00 0.  1.
         -6    2    1    2    0  503 -0.70841114433E+02 -0.51121408888E+02 -0.10766043298E+03  0.22087515147E+03  0.17193952938E+03 0.  0.
        -24    2    3    3    0    0 -0.39539041923E+02 -0.59702767482E+02 -0.36110512454E+01  0.11177967356E+03  0.85754880035E+02 0.  0.
          6    2    1    2  501    0  0.70841114433E+02  0.51121408888E+02  0.71604959439E+03  0.74183293273E+03  0.17308153140E+03 0.  0.
         24    2    5    5    0    0  0.18094988136E+02 -0.26565467416E+02  0.20902920612E+03  0.22616911907E+03  0.80163013647E+02 0.  0.
          5    1    5    5  501    0  0.52746126296E+02  0.77686876304E+02  0.50702038827E+03  0.51566381366E+03  0.47000000000E+01 0. -1.
        -11    1    6    6    0    0  0.39365601627E+02 -0.71585696754E+01  0.18310219168E+03  0.18742280627E+03  0.00000000000E+00 0.  1.
         12    1    6    6    0    0 -0.21270613491E+02 -0.19406897741E+02  0.25927014434E+02  0.38746312801E+02  0.00000000000E+00 0. -1.
         -5    1    3    3    0  503 -0.31302072510E+02  0.85813585947E+01 -0.10404938174E+03  0.10909547790E+03  0.47000000000E+01 0.  1.
         11    1    4    4    0    0 -0.65533661214E+01 -0.42326322994E+02 -0.40776382414E+02  0.59136939289E+02  0.00000000000E+00 0. -1.
        -12    1    4    4    0    0 -0.32985675802E+02 -0.17376444488E+02  0.37165331168E+02  0.52642734275E+02  0.00000000000E+00 0.  1.
</event>
<event>
12    1  0.1628146E-001  0.1941476E+03  0.7818608E-02  0.1154778E+00
         21   -1    0    0  501  502  0.00000000000E+00  0.00000000000E+00  0.35833790870E+03  0.35833790870E+03  0.00000000000E+00 0.  1.
         21   -1    0    0  502  503 -0.00000000000E+00 -0.00000000000E+00 -0.11328499533E+03  0.11328499533E+03  0.00000000000E+00 0.  1.
         -6    2    1    2    0  503  0.89665084667E+02  0.11073943965E+02  0.59429193179E+02  0.20301636480E+03  0.17181779807E+03 0.  0.
        -24    2    3    3    0    0  0.12072604463E+03  0.25290165978E+01  0.13068352138E+02  0.14636641688E+03  0.81677245215E+02 0.  0.
          6    2    1    2  501    0 -0.89665084667E+02 -0.11073943965E+02  0.18562372020E+03  0.26860653923E+03  0.17184541824E+03 0.  0.
         24    2    5    5    0    0  0.14823755423E+02  0.68653432504E+00  0.11716634735E+03  0.14304886941E+03  0.80714379344E+02 0.  0.
          5    1    5    5  501    0 -0.10448884009E+03 -0.11760478290E+02  0.68457372846E+02  0.12555766982E+03  0.47000000000E+01 0. -1.
        -11    1    6    6    0    0 -0.33547364998E+02  0.22774988514E+01  0.50382036773E+02  0.60571959922E+02  0.00000000000E+00 0.  1.
         12    1    6    6    0    0  0.48371120421E+02 -0.15909645264E+01  0.66784310581E+02  0.82476909488E+02  0.00000000000E+00 0. -1.
         -5    1    3    3    0  503 -0.31060959965E+02  0.85449273671E+01  0.46360841041E+02  0.56649947923E+02  0.47000000000E+01 0.  1.
         13    1    4    4    0    0  0.57959801072E+01 -0.13177471983E+02 -0.21007341856E+02  0.25466597046E+02  0.00000000000E+00 0. -1.
        -14    1    4    4    0    0  0.11493006452E+03  0.15706488581E+02  0.34075693994E+02  0.12089981984E+03  0.00000000000E+00 0.  1.
</event>
<event>
12    1  0.1628146E-001  0.1814466E+03  0.7818608E-02  0.1166950E+00
         21   -1    0    0  503  502  0.00000000000E+00  0.00000000000E+00  0.19311532289E+02  0.19311532289E+02  0.00000000000E+00 0.  1.
         21   -1    0    0  501  503 -0.00000000000E+00 -0.00000000000E+00 -0.18899832471E+04  0.18899832471E+04  0.00000000000E+00 0.  1.
          6    2    1    2  501    0 -0.42076347571E+02 -0.36302710849E+02 -0.12454264951E+04  0.12582537213E+04  0.17037302201E+03 0.  0.
         24    2    3    3    0    0 -0.40276154201E+02 -0.83699508776E+02 -0.68661112981E+03  0.69740935819E+03  0.79480770908E+02 0.  0.
         -6    2    1    2    0  502  0.42076347571E+02  0.36302710849E+02 -0.62524521969E+03  0.65104105807E+03  0.17272686156E+03 0.  0.
        -24    2    5    5    0    0 -0.26068049698E+02 -0.27365991423E+02 -0.30854288621E+03  0.32085956168E+03  0.79521726506E+02 0.  0.
          5    1    3    3  501    0 -0.18001933697E+01  0.47396797927E+02 -0.55881536526E+03  0.56084436308E+03  0.47000000000E+01 0. -1.
        -11    1    4    4    0    0 -0.14497675849E+02 -0.13738379658E+02 -0.42260848337E+03  0.42308020032E+03  0.00000000000E+00 0.  1.
         12    1    4    4    0    0 -0.25778478352E+02 -0.69961129118E+02 -0.26400264644E+03  0.27432915788E+03  0.00000000000E+00 0. -1.
         -5    1    5    5    0  502  0.68144397269E+02  0.63668702273E+02 -0.31670233348E+03  0.33018149639E+03  0.47000000000E+01 0.  1.
         11    1    6    6    0    0 -0.32963741490E+02  0.19058691452E+02 -0.18083733275E+03  0.18480255109E+03  0.00000000000E+00 0. -1.
        -12    1    6    6    0    0  0.68956917918E+01 -0.46424682875E+02 -0.12770555346E+03  0.13605701059E+03  0.00000000000E+00 0.  1.
</event>
<event>
12    1  0.1628146E-001  0.2111282E+03  0.7818608E-02  0.1141510E+00
         21   -1    0    0  503  502  0.00000000000E+00  0.00000000000E+00  0.20464373681E+04  0.20464373681E+04  0.00000000000E+00 0.  1.
         21   -1    0    0  501  503 -0.00000000000E+00 -0.00000000000E+00 -0.38003595045E+02  0.38003595045E+02  0.00000000000E+00 0. -1.
          6    2    1    2  501    0  0.77616714631E+02  0.82976655710E+02  0.30866143728E+03  0.37160673454E+03  0.17294566346E+03 0.  0.
         24    2    3    3    0    0  0.12179194476E+01  0.95101438429E+02  0.14568833693E+03  0.19114591415E+03  0.79157451053E+02 0.  0.
         -6    2    1    2    0  502 -0.77616714631E+02 -0.82976655710E+02  0.16997723358E+04  0.17128342286E+04  0.17794836730E+03 0.  0.
        -24    2    5    5    0    0  0.35118876211E+00 -0.99574151126E+02  0.88643140744E+03  0.89558272110E+03  0.79953957551E+02 0.  0.
          5    1    3    3  501    0  0.76398795184E+02 -0.12124782719E+02  0.16297310034E+03  0.18046082039E+03  0.47000000000E+01 0. -1.
        -11    1    4    4    0    0 -0.17165074289E+02  0.99119096762E+02  0.13810748043E+03  0.17085933182E+03  0.00000000000E+00 0.  1.
         12    1    4    4    0    0  0.18382993737E+02 -0.40176583330E+01  0.75808565010E+01  0.20286582327E+02  0.00000000000E+00 0. -1.
         -5    1    5    5    0  502 -0.77967903393E+02  0.16597495415E+02  0.81334092836E+03  0.81725150753E+03  0.47000000000E+01 0.  1.
         13    1    6    6    0    0  0.28601671227E+02 -0.17836695922E+02  0.13303201481E+03  0.13723600213E+03  0.00000000000E+00 0. -1.
        -14    1    6    6    0    0 -0.28250482465E+02 -0.81737455204E+02  0.75339939264E+03  0.75834671897E+03  0.00000000000E+00 0.  1.
</event>
<event>
12    1  0.1628146E-001  0.2247032E+03  0.7818608E-02  0.1130433E+00
         21   -1    0    0  501  502  0.00000000000E+00  0.00000000000E+00  0.75593382814E+02  0.75593382814E+02  0.00000000000E+00 0.  1.
         21   -1    0    0  502  503 -0.00000000000E+00 -0.00000000000E+00 -0.72710550392E+03  0.72710550392E+03  0.00000000000E+00 0. -1.
         -6    2    1    2    0  503 -0.12371378236E+03  0.74591861110E+02 -0.44035230015E+03  0.49434841956E+03  0.17204989388E+03 0.  0.
        -24    2    3    3    0    0 -0.13900378365E+03  0.91244737210E+02 -0.30205480599E+03  0.35413647530E+03  0.80795317800E+02 0.  0.
          6    2    1    2  501    0  0.12371378236E+03 -0.74591861110E+02 -0.21115982095E+03  0.30835046717E+03  0.17211186749E+03 0.  0.
         24    2    5    5    0    0  0.58070945669E+00 -0.43227833980E+02 -0.12740210456E+03  0.15609114596E+03  0.79146489165E+02 0.  0.
          5    1    5    5  501    0  0.12313307290E+03 -0.31364027130E+02 -0.83757716397E+02  0.15225932121E+03  0.47000000000E+01 0. -1.
        -13    1    6    6    0    0 -0.10860018805E+02 -0.30415144715E+02 -0.52289865871E+01  0.32716407767E+02  0.00000000000E+00 0.  1.
         14    1    6    6    0    0  0.11440728261E+02 -0.12812689266E+02 -0.12217311797E+03  0.12337473819E+03  0.00000000000E+00 0. -1.
         -5    1    3    3    0  503  0.15290001297E+02 -0.16652876100E+02 -0.13829749416E+03  0.14021194426E+03  0.47000000000E+01 0.  1.
         13    1    4    4    0    0 -0.93529261329E+02  0.86403573808E+02 -0.26929785172E+03  0.29788359007E+03  0.00000000000E+00 0. -1.
        -14    1    4    4    0    0 -0.45474522326E+02  0.48411634024E+01 -0.32756954268E+02  0.56252885231E+02  0.00000000000E+00 0.  1.
</event>
<event>
12    1  0.1628146E-001  0.1836691E+03  0.7818608E-02  0.1164862E+00
         21   -1    0    0  501  502  0.00000000000E+00  0.00000000000E+00  0.66697560432E+03  0.66697560432E+03  0.00000000000E+00 0. -1.
         21   -1    0    0  502  503 -0.00000000000E+00 -0.00000000000E+00 -0.69117367096E+02  0.69117367096E+02  0.00000000000E+00 0. -1.
         -6    2    1    2    0  503 -0.47062166484E+02  0.33707666654E+02  0.49145749875E+03  0.52383025417E+03  0.17180398075E+03 0.  0.
        -24    2    3    3    0    0 -0.24274830178E+02  0.58362100151E+02  0.47572880040E+03  0.48645933314E+03  0.79557458176E+02 0.  0.
          6    2    1    2  501    0  0.47062166484E+02 -0.33707666654E+02  0.10640073847E+03  0.21226271724E+03  0.17430803102E+03 0.  0.
         24    2    5    5    0    0 -0.19677394852E+02 -0.31806600458E+02  0.11392220607E+03  0.14490957645E+03  0.81373562110E+02 0.  0.
          5    1    5    5  501    0  0.66739561336E+02 -0.19010661968E+01 -0.75214675969E+01  0.67353140794E+02  0.47000000000E+01 0. -1.
        -13    1    6    6    0    0 -0.48078155791E+02 -0.21289193024E+02  0.43467768344E+02  0.68221592540E+02  0.00000000000E+00 0.  1.
         14    1    6    6    0    0  0.28400760939E+02 -0.10517407433E+02  0.70454437726E+02  0.76687983911E+02  0.00000000000E+00 0. -1.
         -5    1    3    3    0  503 -0.22787336306E+02 -0.24654433497E+02  0.15728698347E+02  0.37370921030E+02  0.47000000000E+01 0.  1.
         11    1    4    4    0    0  0.23850172741E+02  0.24547126092E+02  0.90299876198E+02  0.96568420203E+02  0.00000000000E+00 0. -1.
        -12    1    4    4    0    0 -0.48125002919E+02  0.33814974059E+02  0.38542892420E+03  0.38989091293E+03  0.00000000000E+00 0.  1.
</event>
<event>
12    1  0.1628146E-001  0.2125053E+03  0.7818608E-02  0.1139887E+00
         21   -1    0    0  503  502  0.00000000000E+00  0.00000000000E+00  0.17139226257E+03  0.17139226257E+03  0.00000000000E+00 0.  1.
         21   -1    0    0  501  503 -0.00000000000E+00 -0.00000000000E+00 -0.28116287907E+03  0.28116287907E+03  0.00000000000E+00 0. -1.
          6    2    1    2  501    0 -0.10488526633E+02 -0.12334160886E+03 -0.11432236679E+03  0.24000110188E+03  0.17090279017E+03 0.  0.
         24    2    3    3    0    0  0.51351078707E+02 -0.10516876188E+03 -0.10110124180E+03  0.17403688960E+03  0.79812129950E+02 0.  0.
         -6    2    1    2    0  502  0.10488526633E+02  0.12334160886E+03  0.45517502856E+01  0.21255403976E+03  0.17272909344E+03 0.  0.
        -24    2    5    5    0    0  0.40770669583E+02  0.46414922429E+02 -0.50868785383E+02  0.11291344040E+03  0.79656884036E+02 0.  0.
          5    1    3    3  501    0 -0.61839605340E+02 -0.18172846982E+02 -0.13221124986E+02  0.65964212282E+02  0.47000000000E+01 0. -1.
        -11    1    4    4    0    0  0.40729957118E+02 -0.70989067440E+02 -0.18348030175E+02  0.83875069682E+02  0.00000000000E+00 0.  1.
         12    1    4    4    0    0  0.10621121589E+02 -0.34179694441E+02 -0.82753211629E+02  0.90161819917E+02  0.00000000000E+00 0. -1.
         -5    1    5    5    0  502 -0.30282142950E+02  0.76926686433E+02  0.55420535668E+02  0.99640599361E+02  0.47000000000E+01 0.  1.
         13    1    6    6    0    0  0.61295192591E+02  0.35894528306E+02 -0.18917754383E+02  0.73507817461E+02  0.00000000000E+00 0. -1.
        -14    1    6    6    0    0 -0.20524523008E+02  0.10520394123E+02 -0.31951031000E+02  0.39405622938E+02  0.00000000000E+00 0.  1.
</event>
<event>
12    1  0.1628146E-001  0.1804273E+03  0.7818608E-02  0.1167958E+00
         21   -1    0    0  501  502  0.00000000000E+00  0.00000000000E+00  0.43508873487E+03  0.43508873487E+03  0.00000000000E+00 0.  1.
         21   -1    0    0  502  503 -0.00000000000E+00 -0.00000000000E+00 -0.23760321673E+03  0.23760321673E+03  0.00000000000E+00 0.  1.
         -6    2    1    2    0  503  0.93435845295E+01 -0.53945870990E+02 -0.18027623629E+03  0.25505591918E+03  0.17192015870E+03 0.  0.
        -24    2    3    3    0    0 -0.29605854388E+02 -0.73338498052E+02 -0.62882334611E+02  0.12977004237E+03  0.81431160988E+02 0.  0.
          6    2    1    2  501    0 -0.93435845295E+01  0.53945870990E+02  0.37776175443E+03  0.41763603241E+03  0.16946519669E+03 0.  0.
         24    2    5    5    0    0  0.19320722216E+02  0.88300699510E+02  0.19858356922E+03  0.23289619161E+03  0.81454884827E+02 0.  0.
          5    1    5    5  501    0 -0.28664306745E+02 -0.34354828520E+02  0.17917818522E+03  0.18473984081E+03  0.47000000000E+01 0. -1.
        -11    1    6    6    0    0 -0.76679630792E+01  0.64875968458E+02  0.18224841283E+03  0.19360313251E+03  0.00000000000E+00 0.  1.
         12    1    6    6    0    0  0.26988685295E+02  0.23424731051E+02  0.16335156390E+02  0.39293059095E+02  0.00000000000E+00 0. -1.
         -5    1    3    3    0  503  0.38949438918E+02  0.19392627063E+02 -0.11739390168E+03  0.12528587681E+03  0.47000000000E+01 0.  1.
         11    1    4    4    0    0 -0.13148826608E+02  0.17109586172E+02 -0.11462303616E+02  0.24433869614E+02  0.00000000000E+00 0. -1.
        -12    1    4    4    0    0 -0.16457027781E+02 -0.90448084224E+02 -0.51420030994E+02  0.10533617276E+03  0.00000000000E+00 0.  1.
</event>
<event>
12    1  0.1628146E-001  0.1861632E+03  0.7818608E-02  0.1162349E+00
         21   -1    0    0  503  502  0.00000000000E+00  0.00000000000E+00  0.35868303177E+03  0.35868303177E+03  0.00000000000E+00 0. -1.
         21   -1    0    0  501  503 -0.00000000000E+00 -0.00000000000E+00 -0.16924459590E+03  0.16924459590E+03  0.00000000000E+00 0.  1.
          6    2    1    2  501    0 -0.46641753879E+02 -0.50076484217E+02 -0.78960853323E+02  0.20221659153E+03  0.17312892900E+03 0.  0.
         24    2    3    3    0    0 -0.42947992033E+02  0.18778942255E+02 -0.93238613634E+02  0.13164281403E+03  0.80244705251E+02 0.  0.
         -6    2    1    2    0  502  0.46641753879E+02  0.50076484217E+02  0.26839928920E+03  0.32571103614E+03  0.17136625440E+03 0.  0.
        -24    2    5    5    0    0 -0.12047836604E+02 -0.23977284653E+02  0.10786313460E+03  0.13937162633E+03  0.84082898823E+02 0.  0.
          5    1    3    3  501    0 -0.36937618463E+01 -0.68855426472E+02  0.14277760311E+02  0.70573777501E+02  0.47000000000E+01 0. -1.
        -13    1    4    4    0    0 -0.57817984655E+02  0.41731511593E+01 -0.94388362025E+02  0.11076776348E+03  0.00000000000E+00 0.  1.
         14    1    4    4    0    0  0.14869992622E+02  0.14605791096E+02  0.11497483903E+01  0.20875050550E+02  0.00000000000E+00 0. -1.
         -5    1    5    5    0  502  0.58689590483E+02  0.74053768869E+02  0.16053615460E+03  0.18633940981E+03  0.47000000000E+01 0.  1.
         13    1    6    6    0    0  0.18817997477E+02 -0.67632929224E+01  0.10151351735E+03  0.10346426129E+03  0.00000000000E+00 0. -1.
        -14    1    6    6    0    0 -0.30865834081E+02 -0.17213991730E+02  0.63496172495E+01  0.35907365039E+02  0.00000000000E+00 0.  1.
</event>
<event>
12    1  0.1628146E-001  0.1867248E+03  0.7818608E-02  0.1161650E+00
         21   -1    0    0  503  502  0.00000000000E+00  0.00000000000E+00  0.15963659487E+03  0.15963659487E+03  0.00000000000E+00 0.  1.
         21   -1    0    0  501  503 -0.00000000000E+00 -0.00000000000E+00 -0.38356312993E+03  0.38356312993E+03  0.00000000000E+00 0. -1.
          6    2    1    2  501    0  0.11780840913E+02 -0.73657156614E+02 -0.29087788019E+03  0.34565313825E+03  0.17117822836E+03 0.  0.
         24    2    3    3    0    0  0.19800602028E+02 -0.98063071142E+01 -0.50357363317E+02  0.96628126275E+02  0.79453780573E+02 0.  0.
         -6    2    1    2    0  502 -0.11780840913E+02  0.73657156614E+02  0.66951345138E+02  0.19754658655E+03  0.17022927571E+03 0.  0.
        -24    2    5    5    0    0 -0.32393682807E+02  0.30188282305E+02 -0.21410156536E+02  0.96827783629E+02  0.83405885915E+02 0.  0.
          5    1    3    3  501    0 -0.80197611146E+01 -0.63850849499E+02 -0.24052051688E+03  0.24902501197E+03  0.47000000000E+01 0. -1.
        -11    1    4    4    0    0 -0.21619565924E+02 -0.21313996310E+02  0.75530754163E-01  0.30359475858E+02  0.00000000000E+00 0.  1.
         12    1    4    4    0    0  0.41420167952E+02  0.11507689196E+02 -0.50432894071E+02  0.66268650418E+02  0.00000000000E+00 0. -1.
         -5    1    5    5    0  502  0.20612841893E+02  0.43468874309E+02  0.88361501673E+02  0.10071880292E+03  0.47000000000E+01 0.  1.
         13    1    6    6    0    0  0.27039512227E+02  0.21049386000E+02 -0.65512812546E+01  0.34887406876E+02  0.00000000000E+00 0. -1.
        -14    1    6    6    0    0 -0.59433195034E+02  0.91388963048E+01 -0.14858875281E+02  0.61940376753E+02  0.00000000000E+00 0.  1.
</event>
<event>
12    1  0.1628146E-001  0.1953148E+03  0.7818608E-02  0.1153785E+00
         21   -1    0    0  503  502  0.00000000000E+00  0.00000000000E+00  0.14702443171E+04  0.14702443171E+04  0.00000000000E+00 0. -1.
         21   -1    0    0  501  503 -0.00000000000E+00 -0.00000000000E+00 -0.48269205662E+02  0.48269205662E+02  0.00000000000E+00 0. -1.
          6    2    1    2  501    0 -0.52331935556E+02 -0.77231195369E+02  0.19457824339E+03  0.27569651812E+03  0.17159425480E+03 0.  0.
         24    2    3    3    0    0 -0.58374542261E+01 -0.59290276099E+01  0.17469885990E+03  0.18815786488E+03  0.69386318741E+02 0.  0.
         -6    2    1    2    0  502  0.52331935556E+02  0.77231195369E+02  0.12273968680E+04  0.12428170046E+04  0.17142854586E+03 0.  0.
        -24    2    5    5    0    0 -0.28959911535E+02  0.48771900941E+01  0.44539109944E+03  0.45326106703E+03  0.78802918548E+02 0.  0.
          5    1    3    3  501    0 -0.46494481330E+02 -0.71302167759E+02  0.19879383497E+02  0.87538653231E+02  0.47000000000E+01 0. -1.
        -11    1    4    4    0    0 -0.45662407015E+01 -0.29242160115E+02  0.15442691683E+03  0.15723748638E+03  0.00000000000E+00 0.  1.
         12    1    4    4    0    0 -0.12712135247E+01  0.23313132506E+02  0.20271943069E+02  0.30920378504E+02  0.00000000000E+00 0. -1.
         -5    1    5    5    0  502  0.81291847092E+02  0.72354005275E+02  0.78200576858E+03  0.78955593758E+03  0.47000000000E+01 0.  1.
         13    1    6    6    0    0  0.11045200413E+01 -0.31084700867E+02  0.26734044567E+03  0.26914381375E+03  0.00000000000E+00 0. -1.
        -14    1    6    6    0    0 -0.30064431577E+02  0.35961890961E+02  0.17805065377E+03  0.18411725328E+03  0.00000000000E+00 0.  1.
</event>
<event>
12    1  0.1628146E-001  0.2534483E+03  0.7818608E-02  0.1111412E+00
         21   -1    0    0  503  502  0.00000000000E+00  0.00000000000E+00  0.18489705306E+03  0.18489705306E+03  0.00000000000E+00 0. -1.
         21   -1    0    0  501  503 -0.00000000000E+00 -0.00000000000E+00 -0.34694384184E+03  0.34694384184E+03  0.00000000000E+00 0.  1.
          6    2    1    2  501    0 -0.18519182293E+03 -0.11307508531E+02 -0.61725146780E+02  0.26085638023E+03  0.17266205817E+03 0.  0.
         24    2    3    3    0    0 -0.17811337378E+03  0.17034215440E+02 -0.82030480932E+01  0.19970032732E+03  0.88308506488E+02 0.  0.
         -6    2    1    2    0  502  0.18519182293E+03  0.11307508531E+02 -0.10032164200E+03  0.27098451468E+03  0.17013025689E+03 0.  0.
        -24    2    5    5    0    0  0.15970719693E+03 -0.41279328641E+02 -0.10773404363E+03  0.21189242295E+03  0.77983350941E+02 0.  0.
          5    1    3    3  501    0 -0.70784491585E+01 -0.28341723971E+02 -0.53522098687E+02  0.61156052914E+02  0.47000000000E+01 0. -1.
        -11    1    4    4    0    0 -0.82693525894E+02  0.45206193334E+01  0.40107974551E+02  0.92017959370E+02  0.00000000000E+00 0.  1.
         12    1    4    4    0    0 -0.95419847882E+02  0.12513596107E+02 -0.48311022644E+02  0.10768236795E+03  0.00000000000E+00 0. -1.
         -5    1    5    5    0  502  0.25484626005E+02  0.52586837172E+02  0.74124016327E+01  0.59092091724E+02  0.47000000000E+01 0.  1.
         13    1    6    6    0    0  0.13859344405E+03 -0.28763442114E+01 -0.80787103846E+02  0.16044616617E+03  0.00000000000E+00 0. -1.
        -14    1    6    6    0    0  0.21113752881E+02 -0.38402984429E+02 -0.26946939785E+02  0.51446256789E+02  0.00000000000E+00 0.  1.
</event>
<event>
12    1  0.1628146E-001  0.2388213E+03  0.7818608E-02  0.1120671E+00
         21   -1    0    0  501  502  0.00000000000E+00  0.00000000000E+00  0.15989646332E+03  0.15989646332E+03  0.00000000000E+00 0. -1.
         21   -1    0    0  502  503 -0.00000000000E+00 -0.00000000000E+00 -0.44349704752E+03  0.44349704752E+03  0.00000000000E+00 0. -1.
         -6    2    1    2    0  503  0.42815910685E+01 -0.16474483028E+03 -0.27575271507E+03  0.36444327572E+03  0.17210505577E+03 0.  0.
        -24    2    3    3    0    0  0.62200682919E+02 -0.14300093696E+03 -0.22041991757E+03  0.28130948850E+03  0.78942354500E+02 0.  0.
          6    2    1    2  501    0 -0.42815910685E+01  0.16474483028E+03 -0.78478691339E+01  0.23895023512E+03  0.17284801037E+03 0.  0.
         24    2    5    5    0    0  0.62563536262E+02  0.12114237756E+03 -0.16233109399E+02  0.15856461959E+03  0.79306702324E+02 0.  0.
          5    1    5    5  501    0 -0.66845127331E+02  0.43602452718E+02  0.83852402656E+01  0.80385615536E+02  0.47000000000E+01 0. -1.
        -13    1    6    6    0    0  0.44998914748E+02  0.13386921498E+02  0.54222105762E+01  0.47260050393E+02  0.00000000000E+00 0.  1.
         14    1    6    6    0    0  0.17564621515E+02  0.10775545606E+03 -0.21655319976E+02  0.11130456919E+03  0.00000000000E+00 0. -1.
         -5    1    3    3    0  503 -0.57919091851E+02 -0.21743893321E+02 -0.55332797500E+02  0.83133787215E+02  0.47000000000E+01 0.  1.
         13    1    4    4    0    0  0.46426593187E+02 -0.86741569293E+02 -0.72334487901E+02  0.12211390805E+03  0.00000000000E+00 0. -1.
        -14    1    4    4    0    0  0.15774089732E+02 -0.56259367664E+02 -0.14808542967E+03  0.15919558046E+03  0.00000000000E+00 0.  1.
</event>
<event>
12    1  0.1628146E-001  0.1908944E+03  0.7818608E-02  0.1158074E+00
         21   -1    0    0  503  502  0.00000000000E+00  0.00000000000E+00  0.15262845055E+03  0.15262845055E+03  0.00000000000E+00 0. -1.
         21   -1    0    0  501  503 -0.00000000000E+00 -0.00000000000E+00 -0.55842517994E+03  0.55842517994E+03  0.00000000000E+00 0. -1.
          6    2    1    2  501    0 -0.38459541527E+02 -0.70417540982E+02 -0.47327849882E+03  0.51032655913E+03  0.17321343220E+03 0.  0.
         24    2    3    3    0    0  0.22578089622E+01 -0.10344902257E+02 -0.39781969271E+03  0.40552796193E+03  0.77976312429E+02 0.  0.
         -6    2    1    2    0  502  0.38459541527E+02  0.70417540982E+02  0.67481769424E+02  0.20072707137E+03  0.17117184805E+03 0.  0.
        -24    2    5    5    0    0  0.84889899529E+02  0.17969344201E+02  0.39523576457E+02  0.12516026620E+03  0.81078892239E+02 0.  0.
          5    1    3    3  501    0 -0.40717350489E+02 -0.60072638725E+02 -0.75458806110E+02  0.10479859719E+03  0.47000000000E+01 0. -1.
        -13    1    4    4    0    0 -0.32819815770E+02 -0.23534885821E+02 -0.23554741831E+03  0.23898455479E+03  0.00000000000E+00 0.  1.
         14    1    4    4    0    0  0.35077624733E+02  0.13189983565E+02 -0.16227227440E+03  0.16654340714E+03  0.00000000000E+00 0. -1.
         -5    1    5    5    0  502 -0.46430358002E+02  0.52448196781E+02  0.27958192967E+02  0.75566805171E+02  0.47000000000E+01 0.  1.
         11    1    6    6    0    0  0.66092327943E+01  0.29038220278E+02  0.35022959529E+02  0.45972903859E+02  0.00000000000E+00 0. -1.
        -12    1    6    6    0    0  0.78280666735E+02 -0.11068876077E+02  0.45006169282E+01  0.79187362343E+02  0.00000000000E+00 0.  1.
</event>
<event>
12    1  0.1628146E-001  0.2195731E+03  0.7818608E-02  0.1134524E+00
         21   -1    0    0  501  502  0.00000000000E+00  0.00000000000E+00  0.38576696610E+02  0.38576696610E+02  0.00000000000E+00 0.  1.
         21   -1    0    0  502  503 -0.00000000000E+00 -0.00000000000E+00 -0.13636026661E+04  0.13636026661E+04  0.00000000000E+00 0.  1.
         -6    2    1    2    0  503  0.47872817095E+02  0.12469165974E+03 -0.45381728544E+03  0.50414528266E+03  0.17427713802E+03 0.  0.
        -24    2    3    3    0    0  0.88569220385E+02  0.13128376123E+03 -0.37777612718E+03  0.41751964678E+03  0.80795546988E+02 0.  0.
          6    2    1    2  501    0 -0.47872817095E+02 -0.12469165974E+03 -0.87120868403E+03  0.89803408003E+03  0.17210700492E+03 0.  0.
         24    2    5    5    0    0 -0.68073431063E+02 -0.72292717277E+02 -0.32680529299E+03  0.35072168647E+03  0.79647805005E+02 0.  0.
          5    1    5    5  501    0  0.20200613968E+02 -0.52398942466E+02 -0.54440339104E+03  0.54731239356E+03  0.47000000000E+01 0. -1.
        -13    1    6    6    0    0 -0.58064914393E+01 -0.46743078779E+02 -0.64183258302E+02  0.79612319416E+02  0.00000000000E+00 0.  1.
         14    1    6    6    0    0 -0.62266939624E+02 -0.25549638498E+02 -0.26262203469E+03  0.27110936705E+03  0.00000000000E+00 0. -1.
         -5    1    3    3    0  503 -0.40696403290E+02 -0.65921014882E+01 -0.76041158257E+02  0.86625635881E+02  0.47000000000E+01 0.  1.
         11    1    4    4    0    0  0.38493033560E+02  0.44944818436E+02 -0.59321596789E+02  0.83790227249E+02  0.00000000000E+00 0. -1.
        -12    1    4    4    0    0  0.50076186825E+02  0.86338942795E+02 -0.31845453040E+03  0.33372941953E+03  0.00000000000E+00 0.  1.
</event>
<event>
12    1  0.1628146E-001  0.1772224E+03  0.7818608E-02  0.1170726E+00
         21   -1    0    0  503  502  0.00000000000E+00  0.00000000000E+00  0.12664027209E+03  0.12664027209E+03  0.00000000000E+00 0.  1.
         21   -1    0    0  501  503 -0.00000000000E+00 -0.00000000000E+00 -0.24895083064E+03  0.24895083064E+03  0.00000000000E+00 0. -1.
          6    2    1    2  501    0  0.25965321697E+02 -0.36130841281E+02 -0.78312650570E+02  0.19298884114E+03  0.17068153369E+03 0.  0.
         24    2    3    3    0    0  0.53870297487E+02 -0.78369160486E+02 -0.54232607685E+02  0.13673315922E+03  0.81920979158E+02 0.  0.
         -6    2    1    2    0  502 -0.25965321697E+02  0.36130841281E+02 -0.43997907985E+02  0.18260226160E+03  0.17154630398E+03 0.  0.
        -24    2    5    5    0    0  0.33885397369E+02 -0.25413798588E+02 -0.15550805406E+02  0.92041900982E+02  0.80223454638E+02 0.  0.
          5    1    3    3  501    0 -0.27904975790E+02  0.42238319205E+02 -0.24080042885E+02  0.56255681922E+02  0.47000000000E+01 0. -1.
        -13    1    4    4    0    0  0.75547312925E+02 -0.64507593303E+02 -0.47631616243E+02  0.11016985500E+03  0.00000000000E+00 0.  1.
         14    1    4    4    0    0 -0.21677015438E+02 -0.13861567183E+02 -0.66009914415E+01  0.26563304220E+02  0.00000000000E+00 0. -1.
         -5    1    5    5    0  502 -0.59850719066E+02  0.61544639869E+02 -0.28447102578E+02  0.90560360613E+02  0.47000000000E+01 0.  1.
         11    1    6    6    0    0 -0.21365609551E+02  0.49894668856E+01 -0.18801730456E+02  0.28894447899E+02  0.00000000000E+00 0. -1.
        -12    1    6    6    0    0  0.55251006920E+02 -0.30403265474E+02  0.32509250497E+01  0.63147453083E+02  0.00000000000E+00 0.  1.
</event>
<event>
12    1  0.1628146E-001  0.1748916E+03  0.7818608E-02  0.1173363E+00
         21   -1    0    0  503  502  0.00000000000E+00  0.00000000000E+00  0.21435433730E+03  0.21435433730E+03  0.00000000000E+00 0. -1.
         21   -1    0    0  501  503 -0.00000000000E+00 -0.00000000000E+00 -0.15006053535E+03  0.15006053535E+03  0.00000000000E+00 0. -1.
          6    2    1    2  501    0  0.17502827431E+02  0.23561747539E+02 -0.12769532985E+02  0.17329758555E+03  0.17031584563E+03 0.  0.
         24    2    3    3    0    0 -0.39437071992E+02  0.24490739461E+02  0.34937393431E+02  0.98859315825E+02  0.79984147798E+02 0.  0.
         -6    2    1    2    0  502 -0.17502827431E+02 -0.23561747539E+02  0.77063334933E+02  0.19111728709E+03  0.17241100579E+03 0.  0.
        -24    2    5    5    0    0  0.29618972353E+02  0.19864898333E+02 -0.58779789642E+01  0.86199752152E+02  0.78255663855E+02 0.  0.
          5    1    3    3  501    0  0.56939899423E+02 -0.92899192165E+00 -0.47706926416E+02  0.74438269730E+02  0.47000000000E+01 0. -1.
        -13    1    4    4    0    0  0.23549355593E+02  0.13868407297E+02  0.31480576515E+01  0.27510273296E+02  0.00000000000E+00 0.  1.
         14    1    4    4    0    0 -0.62986427585E+02  0.10622332163E+02  0.31789335779E+02  0.71349042529E+02  0.00000000000E+00 0. -1.
         -5    1    5    5    0  502 -0.47121799784E+02 -0.43426645872E+02  0.82941313897E+02  0.10491753494E+03  0.47000000000E+01 0.  1.
         13    1    6    6    0    0  0.43397721646E+02  0.73190361400E+00  0.22836882745E+02  0.49045092929E+02  0.00000000000E+00 0. -1.
        -14    1    6    6    0    0 -0.13778749293E+02  0.19132994719E+02 -0.28714861709E+02  0.37154659223E+02  0.00000000000E+00 0.  1.
</event>
<event>
12    1  0.1628146E-001  0.1784886E+03  0.7818608E-02  0.1169670E+00
         21   -1    0    0  501  502  0.00000000000E+00  0.00000000000E+00  0.23580132262E+02  0.23580132262E+02  0.00000000000E+00 0.  1.
         21   -1    0    0  502  503 -0.00000000000E+00 -0.00000000000E+00 -0.17607437913E+04  0.17607437913E+04  0.00000000000E+00 0.  1.
         -6    2    1    2    0  503  0.64890570876E+01 -0.43163202431E+02 -0.13022750951E+04  0.13142321962E+04  0.17140791194E+03 0.  0.
        -24    2    3    3    0    0  0.47131541703E+02 -0.74070615014E+02 -0.70633636847E+03  0.71609163110E+03  0.78538655932E+02 0.  0.
          6    2    1    2  501    0 -0.64890570876E+01  0.43163202431E+02 -0.43488856393E+03  0.47009172737E+03  0.17306934793E+03 0.  0.
         24    2    5    5    0    0 -0.58292913583E+02  0.42563761629E+02 -0.37458847556E+03  0.39045386241E+03  0.83234338294E+02 0.  0.
          5    1    5    5  501    0  0.51803856495E+02  0.59944080112E+00 -0.60300088372E+02  0.79637864956E+02  0.47000000000E+01 0. -1.
        -11    1    6    6    0    0  0.16558633392E+02  0.54326516593E+01 -0.21820065960E+02  0.27925209441E+02  0.00000000000E+00 0.  1.
         12    1    6    6    0    0 -0.74851546975E+02  0.37131109970E+02 -0.35276840960E+03  0.36252865297E+03  0.00000000000E+00 0. -1.
         -5    1    3    3    0  503 -0.40642484615E+02  0.30907412583E+02 -0.59593872667E+03  0.59814056513E+03  0.47000000000E+01 0.  1.
         13    1    4    4    0    0  0.46375910318E+02 -0.32755435158E+01 -0.31305996444E+03  0.31649327888E+03  0.00000000000E+00 0. -1.
        -14    1    4    4    0    0  0.75563138538E+00 -0.70795071498E+02 -0.39327640404E+03  0.39959835222E+03  0.00000000000E+00 0.  1.
</event>
<event>
12    1  0.1628146E-001  0.2135107E+03  0.7818608E-02  0.1140654E+00
         21   -1    0    0  503  502  0.00000000000E+00  0.00000000000E+00  0.13521485496E+03  0.13521485496E+03  0.00000000000E+00 0.  1.
         21   -1    0    0  501  503 -0.00000000000E+00 -0.00000000000E+00 -0.37297411554E+03  0.37297411554E+03  0.00000000000E+00 0.  1.
          6    2    1    2  501    0 -0.86824601000E+02  0.67967160658E+02 -0.23301870146E+02  0.20556911037E+03  0.17192334257E+03 0.  0.
         24    2    3    3    0    0  0.14486700952E+02  0.10414246853E+02  0.15775647440E+02  0.82583500761E+02  0.79074917033E+02 0.  0.
         -6    2    1    2    0  502  0.86824601000E+02 -0.67967160658E+02 -0.21445739043E+03  0.30261986013E+03  0.18283533895E+03 0.  0.
        -24    2    5    5    0    0  0.12514674965E+02 -0.10102985170E+03 -0.15209927435E+03  0.20002487347E+03  0.80697662450E+02 0.  0.
          5    1    3    3  501    0 -0.10131130195E+03  0.57552913806E+02 -0.39077517586E+02  0.12298560961E+03  0.47000000000E+01 0. -1.
        -11    1    4    4    0    0 -0.31190015609E+02 -0.24644365565E+01  0.15965970715E+02  0.35125528353E+02  0.00000000000E+00 0.  1.
         12    1    4    4    0    0  0.45676716561E+02  0.12878683409E+02 -0.19032327444E+00  0.47457972408E+02  0.00000000000E+00 0. -1.
         -5    1    5    5    0  502  0.74309926034E+02  0.33062691042E+02 -0.62358116074E+02  0.10259498665E+03  0.47000000000E+01 0.  1.
         11    1    6    6    0    0  0.20125143796E+02 -0.94554399021E+02 -0.75194262879E+02  0.12247339694E+03  0.00000000000E+00 0. -1.
        -12    1    6    6    0    0 -0.76104688308E+01 -0.64754526792E+01 -0.76905011474E+02  0.77551476537E+02  0.00000000000E+00 0.  1.
</event>
<event>
12    1  0.1628146E-001  0.2071806E+03  0.7818608E-02  0.1145280E+00
         21   -1    0    0  501  502  0.00000000000E+00  0.00000000000E+00  0.88234088055E+02  0.88234088055E+02  0.00000000000E+00 0. -1.
         21   -1    0    0  502  503 -0.00000000000E+00 -0.00000000000E+00 -0.87626222381E+03  0.87626222381E+03  0.00000000000E+00 0.  1.
         -6    2    1    2    0  503 -0.10279689093E+03 -0.27424783865E+02 -0.72608681816E+03  0.75506680329E+03  0.17777651803E+03 0.  0.
        -24    2    3    3    0    0  0.16548737578E+02 -0.12419816512E+02 -0.22555241479E+03  0.24026071645E+03  0.80144915574E+02 0.  0.
          6    2    1    2  501    0  0.10279689093E+03  0.27424783865E+02 -0.61941317592E+02  0.20942950857E+03  0.16942453388E+03 0.  0.
         24    2    5    5    0    0  0.95264796778E+02  0.56011711150E+02 -0.94669154947E+02  0.16507698675E+03  0.77945297269E+02 0.  0.
          5    1    5    5  501    0  0.75320941561E+01 -0.28586927285E+02  0.32727837355E+02  0.44352521821E+02  0.47000000000E+01 0. -1.
        -11    1    6    6    0    0  0.28150001288E+02  0.34702557735E+02 -0.82206756641E+02  0.93566238159E+02  0.00000000000E+00 0.  1.
         12    1    6    6    0    0  0.67114795491E+02  0.21309153415E+02 -0.12462398305E+02  0.71510748595E+02  0.00000000000E+00 0. -1.
         -5    1    3    3    0  503 -0.11934562851E+03 -0.15004967354E+02 -0.50053440337E+03  0.51480608684E+03  0.47000000000E+01 0.  1.
         11    1    4    4    0    0 -0.81295596899E+01 -0.14072068777E+01  0.39678649193E+01  0.91549944820E+01  0.00000000000E+00 0. -1.
        -12    1    4    4    0    0  0.24678297268E+02 -0.11012609634E+02 -0.22952027971E+03  0.23110572197E+03  0.00000000000E+00 0.  1.
</event>
<event>
12    1  0.1628146E-001  0.1731961E+03  0.7818608E-02  0.1174899E+00
         21   -1    0    0  503  502  0.00000000000E+00  0.00000000000E+00  0.25641022440E+02  0.25641022440E+02  0.00000000000E+00 0.  1.
         21   -1    0    0  501  503 -0.00000000000E+00 -0.00000000000E+00 -0.14164524467E+04  0.14164524467E+04  0.00000000000E+00 0.  1.
          6    2    1    2  501    0  0.12047708572E+02  0.43601462449E+01 -0.10039545023E+04  0.10187843413E+04  0.17272154842E+03 0.  0.
         24    2    3    3    0    0 -0.50684521104E+02  0.25022797102E+02 -0.42958798931E+03  0.44061372721E+03  0.79997218676E+02 0.  0.
         -6    2    1    2    0  502 -0.12047708572E+02 -0.43601462449E+01 -0.38685692198E+03  0.42330912783E+03  0.17137147214E+03 0.  0.
        -24    2    5    5    0    0  0.32143771117E+02 -0.56676246588E+02 -0.21173040044E+03  0.23521008536E+03  0.79048104565E+02 0.  0.
          5    1    3    3  501    0  0.62732229676E+02 -0.20662650857E+02 -0.57436651295E+03  0.57817061407E+03  0.47000000000E+01 0. -1.
        -13    1    4    4    0    0 -0.25571629147E+02 -0.27322363249E+02 -0.21876807610E+03  0.22194569352E+03  0.00000000000E+00 0.  1.
         14    1    4    4    0    0 -0.25112891957E+02  0.52345160351E+02 -0.21081991320E+03  0.21866803369E+03  0.00000000000E+00 0. -1.
         -5    1    5    5    0  502 -0.44191479688E+02  0.52316100343E+02 -0.17512652154E+03  0.18809904247E+03  0.47000000000E+01 0.  1.
         11    1    6    6    0    0 -0.22307897528E+02 -0.15840803143E-01 -0.65610867818E+02  0.69299556412E+02  0.00000000000E+00 0. -1.
        -12    1    6    6    0    0  0.54451668645E+02 -0.56660405785E+02 -0.14611953262E+03  0.16591052895E+03  0.00000000000E+00 0.  1.
</event>
<event>
12    1  0.1628146E-001  0.2086222E+03  0.7818608E-02  0.1142952E+00
         21   -1    0    0  503  502  0.00000000000E+00  0.00000000000E+00  0.10386949524E+03  0.10386949524E+03  0.00000000000E+00 0. -1.
         21   -1    0    0  501  503 -0.00000000000E+00 -0.00000000000E+00 -0.66722624024E+03  0.66722624024E+03  0.00000000000E+00 0.  1.
          6    2    1    2  501    0 -0.38295383405E+02  0.10971541963E+03 -0.51758931201E+03  0.55751230119E+03  0.17151460687E+03 0.  0.
         24    2    3    3    0    0  0.22438337459E+02  0.27761376580E+02 -0.35558929346E+03  0.36601518363E+03  0.79051856438E+02 0.  0.
         -6    2    1    2    0  502  0.38295383405E+02 -0.10971541963E+03 -0.45767432982E+02  0.21358343429E+03  0.17326054308E+03 0.  0.
        -24    2    5    5    0    0  0.70044810926E+02 -0.82720210820E+02  0.17263073923E+02  0.13787542780E+03  0.83442861014E+02 0.  0.
          5    1    3    3  501    0 -0.60733720865E+02  0.81954043049E+02 -0.16200001855E+03  0.19149711756E+03  0.47000000000E+01 0. -1.
        -13    1    4    4    0    0  0.32439823267E+01  0.45153846233E+02 -0.31233241636E+03  0.31559615264E+03  0.00000000000E+00 0.  1.
         14    1    4    4    0    0  0.19194355132E+02 -0.17392469653E+02 -0.43256877100E+02  0.50419030991E+02  0.00000000000E+00 0. -1.
         -5    1    5    5    0  502 -0.31749427520E+02 -0.26995208809E+02 -0.63030506904E+02  0.75708006493E+02  0.47000000000E+01 0.  1.
         13    1    6    6    0    0  0.15786040170E+01  0.59962048137E+01  0.24795564791E+02  0.25559078545E+02  0.00000000000E+00 0. -1.
        -14    1    6    6    0    0  0.68466206909E+02 -0.88716415634E+02 -0.75324908679E+01  0.11231634926E+03  0.00000000000E+00 0.  1.
</event>
<event>
12    1  0.1628146E-001  0.2022451E+03  0.7818608E-02  0.1147911E+00
         21   -1    0    0  503  502  0.00000000000E+00  0.00000000000E+00  0.47373860649E+03  0.47373860649E+03  0.00000000000E+00 0.  1.
         21   -1    0    0  501  503 -0.00000000000E+00 -0.00000000000E+00 -0.92485560074E+02  0.92485560074E+02  0.00000000000E+00 0.  1.
          6    2    1    2  501    0 -0.10009611067E+03  0.35352608307E+02  0.11689941748E+03  0.23337895029E+03  0.17184650809E+03 0.  0.
         24    2    3    3    0    0 -0.13457479829E+03  0.19869447792E+02  0.11527186799E+03  0.19525747239E+03  0.79578299078E+02 0.  0.
         -6    2    1    2    0  502  0.10009611067E+03 -0.35352608307E+02  0.26435362893E+03  0.33284521627E+03  0.17214545762E+03 0.  0.
        -24    2    5    5    0    0  0.18653448776E+02  0.62971013778E+00  0.21019064088E+03  0.22852190300E+03  0.87714348612E+02 0.  0.
          5    1    3    3  501    0  0.34478687620E+02  0.15483160516E+02  0.16275494903E+01  0.38121477895E+02  0.47000000000E+01 0. -1.
        -13    1    4    4    0    0 -0.97038007911E+02 -0.22471130745E+02  0.60690557890E+02  0.11663906084E+03  0.00000000000E+00 0.  1.
         14    1    4    4    0    0 -0.37536790381E+02  0.42340578537E+02  0.54581310101E+02  0.78618411554E+02  0.00000000000E+00 0. -1.
         -5    1    5    5    0  502  0.81442661896E+02 -0.35982318445E+02  0.54162988057E+02  0.10432331327E+03  0.47000000000E+01 0.  1.
         13    1    6    6    0    0 -0.29765663782E+02 -0.20541484611E+02  0.72024538853E+02  0.80594550234E+02  0.00000000000E+00 0. -1.
        -14    1    6    6    0    0  0.48419112558E+02  0.21171194748E+02  0.13816610202E+03  0.14792735276E+03  0.00000000000E+00 0.  1.
</event>
<event>
12    1  0.1628146E-001  0.2417090E+03  0.7818608E-02  0.1118837E+00
         21   -1    0    0  503  502  0.00000000000E+00  0.00000000000E+00  0.94136522706E+02  0.94136522706E+02  0.00000000000E+00 0. -1.
         21   -1    0    0  501  503 -0.00000000000E+00 -0.00000000000E+00 -0.99064804947E+03  0.99064804947E+03  0.00000000000E+00 0. -1.
          6    2    1    2  501    0 -0.85267998535E+02 -0.14686830445E+03 -0.78035301038E+03  0.81661291798E+03  0.17048432945E+03 0.  0.
         24    2    3    3    0    0 -0.82771024933E+02 -0.93598683674E+02 -0.72430965326E+03  0.73910914226E+03  0.77756634502E+02 0.  0.
         -6    2    1    2    0  502  0.85267998535E+02  0.14686830445E+03 -0.11615851639E+03  0.26817165419E+03  0.17199507190E+03 0.  0.
        -24    2    5    5    0    0  0.12588716520E+03  0.12884547251E+03 -0.10309544799E+03  0.22161552755E+03  0.77691933349E+02 0.  0.
          5    1    3    3  501    0 -0.24969736020E+01 -0.53269620776E+02 -0.56043357115E+02  0.77503775724E+02  0.47000000000E+01 0. -1.
        -13    1    4    4    0    0 -0.44221574689E+02  0.14631694015E+01 -0.24196470935E+03  0.24597684669E+03  0.00000000000E+00 0.  1.
         14    1    4    4    0    0 -0.38549450244E+02 -0.95061853076E+02 -0.48234494391E+03  0.49313229557E+03  0.00000000000E+00 0. -1.
         -5    1    5    5    0  502 -0.40619166668E+02  0.18022831943E+02 -0.13063068401E+02  0.46556126644E+02  0.47000000000E+01 0.  1.
         11    1    6    6    0    0  0.60089587742E+02  0.62139541941E+02 -0.93647820748E+02  0.12744408797E+03  0.00000000000E+00 0. -1.
        -12    1    6    6    0    0  0.65797577461E+02  0.66705930566E+02 -0.94476272408E+01  0.94171439581E+02  0.00000000000E+00 0.  1.
</event>
<event>
12    1  0.1628146E-001  0.1817976E+03  0.7818608E-02  0.1166574E+00
         21   -1    0    0  503  502  0.00000000000E+00  0.00000000000E+00  0.42731195168E+02  0.42731195168E+02  0.00000000000E+00 0. -1.
         21   -1    0    0  501  503 -0.00000000000E+00 -0.00000000000E+00 -0.76910635824E+03  0.76910635824E+03  0.00000000000E+00 0.  1.
          6    2    1    2  501    0 -0.28826504037E+02  0.49021667500E+02 -0.33429807625E+03  0.38053326688E+03  0.17267388975E+03 0.  0.
         24    2    3    3    0    0  0.17410938663E+02  0.67613663650E+02 -0.30337341237E+03  0.32169460388E+03  0.81100200573E+02 0.  0.
         -6    2    1    2    0  502  0.28826504037E+02 -0.49021667500E+02 -0.39207708682E+03  0.43130428652E+03  0.17048417623E+03 0.  0.
        -24    2    5    5    0    0 -0.48820722166E+02 -0.26760913806E+02 -0.17296978024E+03  0.19773473652E+03  0.77979944407E+02 0.  0.
          5    1    3    3  501    0 -0.46237442700E+02 -0.18591996150E+02 -0.30924663878E+02  0.58838663005E+02  0.47000000000E+01 0. -1.
        -11    1    4    4    0    0  0.61094513390E+01  0.40282660540E+02 -0.41503153064E+02  0.58159520717E+02  0.00000000000E+00 0.  1.
         12    1    4    4    0    0  0.11301487324E+02  0.27331003110E+02 -0.26187025931E+03  0.26353508316E+03  0.00000000000E+00 0. -1.
         -5    1    5    5    0  502  0.77647226203E+02 -0.22260753694E+02 -0.21910730658E+03  0.23356955000E+03  0.47000000000E+01 0.  1.
         13    1    6    6    0    0  0.98842272926E+01 -0.34842948070E+02 -0.57703203051E+02  0.68127737536E+02  0.00000000000E+00 0. -1.
        -14    1    6    6    0    0 -0.58704949458E+02  0.80820342642E+01 -0.11526657719E+03  0.12960699898E+03  0.00000000000E+00 0.  1.
</event>
<event>
12    1  0.1628146E-001  0.2010961E+03  0.7818608E-02  0.1150282E+00
         21   -1    0    0  503  502  0.00000000000E+00  0.00000000000E+00  0.30331313472E+03  0.30331313472E+03  0.00000000000E+00 0.  1.
         21   -1    0    0  501  503 -0.00000000000E+00 -0.00000000000E+00 -0.15079691228E+03  0.15079691228E+03  0.00000000000E+00 0.  1.
          6    2    1    2  501    0  0.19804329833E+02  0.86329903721E+02 -0.92887482414E+01  0.20131050121E+03  0.18053967236E+03 0.  0.
         24    2    3    3    0    0  0.93456556232E+01  0.85678868860E+01  0.56649890696E+02  0.98712697950E+02  0.79838816725E+02 0.  0.
         -6    2    1    2    0  502 -0.19804329833E+02 -0.86329903721E+02  0.16180497068E+03  0.25279954579E+03  0.17286323512E+03 0.  0.
        -24    2    5    5    0    0  0.26338248175E+02 -0.10142192781E+03  0.15595807051E+03  0.20367538739E+03  0.78617001440E+02 0.  0.
          5    1    3    3  501    0  0.10458674210E+02  0.77762016835E+02 -0.65938638937E+02  0.10259780326E+03  0.47000000000E+01 0. -1.
        -13    1    4    4    0    0 -0.48225154194E+01 -0.14412546145E+02 -0.15481558812E+02  0.21694626169E+02  0.00000000000E+00 0.  1.
         14    1    4    4    0    0  0.14168171043E+02  0.22980433031E+02  0.72131449507E+02  0.77018071782E+02  0.00000000000E+00 0. -1.
         -5    1    5    5    0  502 -0.46142578009E+02  0.15092024085E+02  0.58469001650E+01  0.49124158393E+02  0.47000000000E+01 0.  1.
         13    1    6    6    0    0 -0.25248306869E+02 -0.16065625393E+02  0.49138002227E+02  0.57533682151E+02  0.00000000000E+00 0. -1.
        -14    1    6    6    0    0  0.51586555044E+02 -0.85356302414E+02  0.10682006828E+03  0.14614170524E+03  0.00000000000E+00 0.  1.
</event>
<event>
12    1  0.1628146E-001  0.2117007E+03  0.7818608E-02  0.1141386E+00
         21   -1    0    0  501  502  0.00000000000E+00  0.00000000000E+00  0.46604395860E+03  0.46604395860E+03  0.00000000000E+00 0.  1.
         21   -1    0    0  502  503 -0.00000000000E+00 -0.00000000000E+00 -0.69452806647E+03  0.69452806647E+03  0.00000000000E+00 0.  1.
         -6    2    1    2    0  503  0.12222332873E+03 -0.13413351228E+02 -0.65424923047E+03  0.68764761833E+03  0.17233319863E+03 0.  0.
        -24    2    3    3    0    0  0.10095810190E+02  0.83540625114E+01 -0.41431288726E+03  0.42186962920E+03  0.78403442181E+02 0.  0.
          6    2    1    2  501    0 -0.12222332873E+03  0.13413351228E+02  0.42576512260E+03  0.47292440673E+03  0.16511539839E+03 0.  0.
         24    2    5    5    0    0 -0.92812044114E+02  0.63977325123E+02  0.35545676355E+03  0.38134332533E+03  0.79787513787E+02 0.  0.
          5    1    5    5  501    0 -0.29411284620E+02 -0.50563973895E+02  0.70308359047E+02  0.91581081403E+02  0.47000000000E+01 0. -1.
        -11    1    6    6    0    0 -0.23041074715E+02 -0.32126191099E+01  0.17494385790E+03  0.17648389576E+03  0.00000000000E+00 0.  1.
         12    1    6    6    0    0 -0.69770969399E+02  0.67189944233E+02  0.18051290565E+03  0.20485942957E+03  0.00000000000E+00 0. -1.
         -5    1    3    3    0  503  0.11212751854E+03 -0.21767413740E+02 -0.23993634321E+03  0.26577798913E+03  0.47000000000E+01 0.  1.
         11    1    4    4    0    0  0.35158608688E+02  0.30104015505E+02 -0.24604184019E+03  0.25035767741E+03  0.00000000000E+00 0. -1.
        -12    1    4    4    0    0 -0.25062798498E+02 -0.21749952993E+02 -0.16827104707E+03  0.17151195179E+03  0.00000000000E+00 0.  1.
</event>
<event>
12    1  0.1628146E-001  0.2025309E+03  0.7818608E-02  0.1148007E+00
         21   -1    0    0  501  502  0.00000000000E+00  0.00000000000E+00  0.21266231955E+03  0.21266231955E+03  0.00000000000E+00 0. -1.
         21   -1    0    0  502  503 -0.00000000000E+00 -0.00000000000E+00 -0.21067783395E+03  0.21067783395E+03  0.00000000000E+00 0. -1.
         -6    2    1    2    0  503  0.40344239565E+02  0.98083785515E+02  0.65471883447E+02  0.21109168323E+03  0.17036738115E+03 0.  0.
        -24    2    3    3    0    0  0.21828851890E+02  0.13370446639E+03  0.34139772299E+02  0.15995027461E+03  0.77879285989E+02 0.  0.
          6    2    1    2  501    0 -0.40344239565E+02 -0.98083785515E+02 -0.63487397852E+02  0.21224847026E+03  0.17254181173E+03 0.  0.
         24    2    5    5    0    0 -0.29663268297E+02  0.16077034259E+02 -0.15299796956E+02  0.87785982748E+02  0.79585893621E+02 0.  0.
          5    1    5    5  501    0 -0.10680971268E+02 -0.11416081977E+03 -0.48187600896E+02  0.12446248752E+03  0.47000000000E+01 0. -1.
        -11    1    6    6    0    0 -0.46637705458E+02 -0.16512393895E+02 -0.56588192113E+01  0.49797158125E+02  0.00000000000E+00 0.  1.
         12    1    6    6    0    0  0.16974437161E+02  0.32589428154E+02 -0.96409777452E+01  0.37988824622E+02  0.00000000000E+00 0. -1.
         -5    1    3    3    0  503  0.18515387674E+02 -0.35620680879E+02  0.31332111148E+02  0.51141408623E+02  0.47000000000E+01 0.  1.
         11    1    4    4    0    0 -0.19168059908E+02  0.51860262075E+01  0.12125987652E+02  0.23266907078E+02  0.00000000000E+00 0. -1.
        -12    1    4    4    0    0  0.40996911798E+02  0.12851844019E+03  0.22013784648E+02  0.13668336753E+03  0.00000000000E+00 0.  1.
</event>
<event>
12    1  0.1628146E-001  0.2484263E+03  0.7818608E-02  0.1114393E+00
         21   -1    0    0  503  502  0.00000000000E+00  0.00000000000E+00  0.13274139992E+03  0.13274139992E+03  0.00000000000E+00 0. -1.
         21   -1    0    0  501  503 -0.00000000000E+00 -0.00000000000E+00 -0.65144337647E+03  0.65144337647E+03  0.00000000000E+00 0.  1.
          6    2    1    2  501    0 -0.13989263784E+03 -0.11109154904E+03 -0.46953147175E+03  0.53093911385E+03  0.17182915138E+03 0.  0.
         24    2    3    3    0    0 -0.16381512447E+03 -0.97574433232E+02 -0.33571472945E+03  0.39424965447E+03  0.79826345619E+02 0.  0.
         -6    2    1    2    0  502  0.13989263784E+03  0.11109154904E+03 -0.49170504803E+02  0.25324566253E+03  0.17263934853E+03 0.  0.
        -24    2    5    5    0    0  0.13979419516E+03  0.11559485147E+03 -0.41081812561E+01  0.20771553594E+03  0.10111518202E+03 0.  0.
          5    1    3    3  501    0  0.23922486630E+02 -0.13517115804E+02 -0.13381674230E+03  0.13668945938E+03  0.47000000000E+01 0. -1.
        -11    1    4    4    0    0 -0.75069368844E+01  0.13091504038E+02 -0.27841753279E+02  0.31668672296E+02  0.00000000000E+00 0.  1.
         12    1    4    4    0    0 -0.15630818758E+03 -0.11066593727E+03 -0.30787297617E+03  0.36258098217E+03  0.00000000000E+00 0. -1.
         -5    1    5    5    0  502  0.98442681681E-01 -0.45033024292E+01 -0.45062323547E+02  0.45530126589E+02  0.47000000000E+01 0.  1.
         13    1    6    6    0    0  0.99015407674E+02  0.18289509025E+02  0.10366161489E+02  0.10122259827E+03  0.00000000000E+00 0. -1.
        -14    1    6    6    0    0  0.40778787484E+02  0.97305342440E+02 -0.14474342745E+02  0.10649293767E+03  0.00000000000E+00 0.  1.
</event>
<event>
12    1  0.1628146E-001  0.1787822E+03  0.7818608E-02  0.1169932E+00
         21   -1    0    0  501  502  0.00000000000E+00  0.00000000000E+00  0.56791885750E+03  0.56791885750E+03  0.00000000000E+00 0.  1.
         21   -1    0    0  502  503 -0.00000000000E+00 -0.00000000000E+00 -0.15343602833E+03  0.15343602833E+03  0.00000000000E+00 0.  1.
         -6    2    1    2    0  503  0.23651050068E+02 -0.14138091223E+02 -0.80716139469E+02  0.19615851844E+03  0.17664600588E+03 0.  0.
        -24    2    3    3    0    0 -0.36248255344E+02 -0.25002080477E+02 -0.93317634985E+02  0.13381398587E+03  0.85199540917E+02 0.  0.
          6    2    1    2  501    0 -0.23651050068E+02  0.14138091223E+02  0.49519896864E+03  0.52519636740E+03  0.17277137492E+03 0.  0.
         24    2    5    5    0    0 -0.39383465417E+02  0.51863001906E+01  0.49818719432E+03  0.50625796863E+03  0.80800341327E+02 0.  0.
          5    1    5    5  501    0  0.15732415349E+02  0.89517910326E+01 -0.29882256745E+01  0.18938398773E+02  0.47000000000E+01 0. -1.
        -13    1    6    6    0    0 -0.47305454266E+02 -0.28460222146E+02  0.32486878606E+03  0.32952620291E+03  0.00000000000E+00 0.  1.
         14    1    6    6    0    0  0.79219888490E+01  0.33646522337E+02  0.17331840825E+03  0.17673176571E+03  0.00000000000E+00 0. -1.
         -5    1    3    3    0  503  0.59899305412E+02  0.10863989254E+02  0.12601495516E+02  0.62344532564E+02  0.47000000000E+01 0.  1.
         11    1    4    4    0    0 -0.29937357452E+02 -0.49735904093E+02 -0.29575569601E+02  0.65150747075E+02  0.00000000000E+00 0. -1.
        -12    1    4    4    0    0 -0.63108978918E+01  0.24733823616E+02 -0.63742065384E+02  0.68663238799E+02  0.00000000000E+00 0.  1.
</event>
<event>
12    1  0.1628146E-001  0.1818317E+03  0.7818608E-02  0.1166281E+00
         21   -1    0    0  501  502  0.00000000000E+00  0.00000000000E+00  0.36834008059E+03  0.36834008059E+03  0.00000000000E+00 0.  1.
         21   -1    0    0  502  503 -0.00000000000E+00 -0.00000000000E+00 -0.11403925071E+03  0.11403925071E+03  0.00000000000E+00 0.  1.
         -6    2    1    2    0  503  0.56736263025E+02 -0.46447622302E+01  0.14468862723E+02  0.18141067606E+03  0.17163888849E+03 0.  0.
        -24    2    3    3    0    0 -0.33311533812E+02 -0.20540645178E+02 -0.12166095909E+02  0.86054523503E+02  0.75668954905E+02 0.  0.
          6    2    1    2  501    0 -0.56736263025E+02  0.46447622302E+01  0.23983196716E+03  0.30096865524E+03  0.17269100037E+03 0.  0.
         24    2    5    5    0    0  0.27213604308E+02  0.34041698920E+02  0.14083499082E+03  0.16779864571E+03  0.80140335290E+02 0.  0.
          5    1    5    5  501    0 -0.83949867333E+02 -0.29396936690E+02  0.98996976340E+02  0.13317000952E+03  0.47000000000E+01 0. -1.
        -11    1    6    6    0    0  0.45519647164E+01  0.57489470889E+02  0.77973822142E+02  0.96982867484E+02  0.00000000000E+00 0.  1.
         12    1    6    6    0    0  0.22661639592E+02 -0.23447771969E+02  0.62861168674E+02  0.70815778230E+02  0.00000000000E+00 0. -1.
         -5    1    3    3    0  503  0.90047796837E+02  0.15895882948E+02  0.26634958632E+02  0.95356152561E+02  0.47000000000E+01 0.  1.
         11    1    4    4    0    0  0.20754229333E+02  0.89968205062E+01  0.24014484523E+01  0.22747478302E+02  0.00000000000E+00 0. -1.
        -12    1    4    4    0    0 -0.54065763144E+02 -0.29537465684E+02 -0.14567544362E+02  0.63307045202E+02  0.00000000000E+00 0.  1.
</event>
<event>
12    1  0.1628146E-001  0.1945150E+03  0.7818608E-02  0.1154545E+00
         21   -1    0    0  501  502  0.00000000000E+00  0.00000000000E+00  0.12030752362E+03  0.12030752362E+03  0.00000000000E+00 0.  1.
         21   -1    0    0  502  503 -0.00000000000E+00 -0.00000000000E+00 -0.32614646985E+03  0.32614646985E+03  0.00000000000E+00 0.  1.
         -6    2    1    2    0  503  0.84209836884E+01  0.90678409756E+02 -0.59600080578E+02  0.20344103679E+03  0.17187960578E+03 0.  0.
        -24    2    3    3    0    0 -0.42487444497E+02  0.96147071212E+02 -0.74529469409E+02  0.14990085590E+03  0.76591008268E+02 0.  0.
          6    2    1    2  501    0 -0.84209836884E+01 -0.90678409756E+02 -0.14623886566E+03  0.24301295668E+03  0.17139429490E+03 0.  0.
         24    2    5    5    0    0 -0.25131676561E+01 -0.19558358727E+02 -0.28830076673E+01  0.82806976863E+02  0.80373119115E+02 0.  0.
          5    1    5    5  501    0 -0.59078160324E+01 -0.71120051028E+02 -0.14335585799E+03  0.16020597982E+03  0.47000000000E+01 0. -1.
        -13    1    6    6    0    0 -0.22281828673E+02 -0.66445375144E+01 -0.35562632170E+02  0.42489181854E+02  0.00000000000E+00 0.  1.
         14    1    6    6    0    0  0.19768661017E+02 -0.12913821213E+02  0.32679624503E+02  0.40317795009E+02  0.00000000000E+00 0. -1.
         -5    1    3    3    0  503  0.50908428186E+02 -0.54686614562E+01  0.14929388831E+02  0.53540180886E+02  0.47000000000E+01 0.  1.
         11    1    4    4    0    0 -0.21271918265E+02 -0.10974139729E+01 -0.38591785362E+02  0.44079754100E+02  0.00000000000E+00 0. -1.
        -12    1    4    4    0    0 -0.21215526233E+02  0.97244485185E+02 -0.35937684047E+02  0.10582110180E+03  0.00000000000E+00 0.  1.
</event>
<event>
12    1  0.1628146E-001  0.1852377E+03  0.7818608E-02  0.1163657E+00
         21   -1    0    0  501  502  0.00000000000E+00  0.00000000000E+00  0.55712558672E+02  0.55712558672E+02  0.00000000000E+00 0.  1.
         21   -1    0    0  502  503 -0.00000000000E+00 -0.00000000000E+00 -0.68585498196E+03  0.68585498196E+03  0.00000000000E+00 0.  1.
         -6    2    1    2    0  503  0.26564694376E+02  0.64927671317E+02 -0.44030254997E+03  0.47632768938E+03  0.16763187846E+03 0.  0.
        -24    2    3    3    0    0 -0.15203086701E+02  0.97736436961E+02 -0.28933665644E+03  0.31622224398E+03  0.80605594552E+02 0.  0.
          6    2    1    2  501    0 -0.26564694376E+02 -0.64927671317E+02 -0.18983987333E+03  0.26523985125E+03  0.17144012278E+03 0.  0.
         24    2    5    5    0    0 -0.69411810395E+02 -0.41133209896E+02 -0.65843928784E+02  0.13182644860E+03  0.80826042916E+02 0.  0.
          5    1    5    5  501    0  0.42847116019E+02 -0.23794461421E+02 -0.12399594454E+03  0.13341340266E+03  0.47000000000E+01 0. -1.
        -11    1    6    6    0    0 -0.33204354636E+02 -0.63483957598E+02 -0.40403814164E+02  0.82250898099E+02  0.00000000000E+00 0.  1.
         12    1    6    6    0    0 -0.36207455758E+02  0.22350747702E+02 -0.25440114620E+02  0.49575550498E+02  0.00000000000E+00 0. -1.
         -5    1    3    3    0  503  0.41767781077E+02 -0.32808765643E+02 -0.15096589353E+03  0.16010544540E+03  0.47000000000E+01 0.  1.
         11    1    4    4    0    0 -0.37692595609E+01 -0.14344953742E+02 -0.37879252875E+02  0.40679513442E+02  0.00000000000E+00 0. -1.
        -12    1    4    4    0    0 -0.11433827140E+02  0.11208139070E+03 -0.25145740357E+03  0.27554273054E+03  0.00000000000E+00 0.  1.
</event>
<event>
12    1  0.1628146E-001  0.3613181E+03  0.7818608E-02  0.1058067E+00
         21   -1    0    0  501  502  0.00000000000E+00  0.00000000000E+00  0.76324448165E+02  0.76324448165E+02  0.00000000000E+00 0.  1.
         21   -1    0    0  502  503 -0.00000000000E+00 -0.00000000000E+00 -0.17120767587E+04  0.17120767587E+04  0.00000000000E+00 0. -1.
         -6    2    1    2    0  503  0.18851170612E+03 -0.25579438685E+03 -0.78912189433E+03  0.86790791391E+03  0.17199811404E+03 0.  0.
        -24    2    3    3    0    0  0.71495185310E+02 -0.20282434382E+03 -0.56468003080E+03  0.60926736855E+03  0.78063520448E+02 0.  0.
          6    2    1    2  501    0 -0.18851170612E+03  0.25579438685E+03 -0.84663041616E+03  0.92049329291E+03  0.17192268330E+03 0.  0.
         24    2    5    5    0    0 -0.19506403399E+03  0.16576795732E+03 -0.67790781860E+03  0.72908510097E+03  0.80480313798E+02 0.  0.
          5    1    5    5  501    0  0.65523278638E+01  0.90026429523E+02 -0.16872259756E+03  0.19140819194E+03  0.47000000000E+01 0. -1.
        -13    1    6    6    0    0 -0.16891276142E+03  0.11750179451E+03 -0.45245045792E+03  0.49704085301E+03  0.00000000000E+00 0.  1.
         14    1    6    6    0    0 -0.26151272567E+02  0.48266162808E+02 -0.22545736068E+03  0.23204424796E+03  0.00000000000E+00 0. -1.
         -5    1    3    3    0  503  0.11701652081E+03 -0.52970043021E+02 -0.22444186353E+03  0.25864054536E+03  0.47000000000E+01 0.  1.
         13    1    4    4    0    0  0.88028704853E+02 -0.15824830859E+03 -0.45622948190E+03  0.49085325730E+03  0.00000000000E+00 0. -1.
        -14    1    4    4    0    0 -0.16533519543E+02 -0.44576035240E+02 -0.10845054890E+03  0.11841411125E+03  0.00000000000E+00 0.  1.
</event>
<event>
12    1  0.1628146E-001  0.3236271E+03  0.7818608E-02  0.1074013E+00
         21   -1    0    0  501  502  0.00000000000E+00  0.00000000000E+00  0.85044504622E+02  0.85044504622E+02  0.00000000000E+00 0. -1.
         21   -1    0    0  502  503 -0.00000000000E+00 -0.00000000000E+00 -0.13294736422E+04  0.13294736422E+04  0.00000000000E+00 0. -1.
         -6    2    1    2    0  503  0.26296564555E+03  0.76388927511E+02 -0.81504056689E+03  0.87694105197E+03  0.17247690854E+03 0.  0.
        -24    2    3    3    0    0  0.16259417188E+03  0.95442017028E+02 -0.39924741656E+03  0.44875477615E+03  0.80226592490E+02 0.  0.
          6    2    1    2  501    0 -0.26296564555E+03 -0.76388927511E+02 -0.42938857070E+03  0.53757709486E+03  0.17212899024E+03 0.  0.
         24    2    5    5    0    0 -0.21483860777E+03 -0.60442779900E+02 -0.22395575766E+03  0.32592827709E+03  0.79146088885E+02 0.  0.
          5    1    5    5  501    0 -0.48127037778E+02 -0.15946147611E+02 -0.20543281304E+03  0.21164881777E+03  0.47000000000E+01 0. -1.
        -13    1    6    6    0    0 -0.15739116946E+03 -0.25512853179E+02 -0.11031123714E+03  0.19388515916E+03  0.00000000000E+00 0.  1.
         14    1    6    6    0    0 -0.57447438308E+02 -0.34929926721E+02 -0.11364452052E+03  0.13204311793E+03  0.00000000000E+00 0. -1.
         -5    1    3    3    0  503  0.10037147367E+03 -0.19053089517E+02 -0.41579315033E+03  0.42818627583E+03  0.47000000000E+01 0.  1.
         11    1    4    4    0    0  0.14729225364E+03  0.69652071729E+02 -0.37909372305E+03  0.41262388434E+03  0.00000000000E+00 0. -1.
        -12    1    4    4    0    0  0.15301918238E+02  0.25789945299E+02 -0.20153693515E+02  0.36130891804E+02  0.00000000000E+00 0.  1.
</event>
<event>
12    1  0.1628146E-001  0.3011722E+03  0.7818608E-02  0.1084741E+00
         21   -1    0    0  501  502  0.00000000000E+00  0.00000000000E+00  0.16245944740E+03  0.16245944740E+03  0.00000000000E+00 0. -1.
         21   -1    0    0  502  503 -0.00000000000E+00 -0.00000000000E+00 -0.55996107844E+03  0.55996107844E+03  0.00000000000E+00 0. -1.
         -6    2    1    2    0  503 -0.80790963863E+02 -0.23346969989E+03 -0.22497051860E+03  0.37592077864E+03  0.17224812616E+03 0.  0.
        -24    2    3    3    0    0  0.12310099984E+02 -0.17017654795E+03 -0.13230229680E+03  0.23003273765E+03  0.79369809243E+02 0.  0.
          6    2    1    2  501    0  0.80790963863E+02  0.23346969989E+03 -0.17253111244E+03  0.34649974719E+03  0.17105498950E+03 0.  0.
         24    2    5    5    0    0  0.27129002272E+02  0.20123699045E+03 -0.75618832362E+02  0.23103272285E+03  0.80159853618E+02 0.  0.
          5    1    5    5  501    0  0.53661961591E+02  0.32232709447E+02 -0.96912280079E+02  0.11546702434E+03  0.47000000000E+01 0. -1.
        -13    1    6    6    0    0 -0.26285561712E+02  0.84417123978E+02 -0.17900452993E+02  0.90208690227E+02  0.00000000000E+00 0.  1.
         14    1    6    6    0    0  0.53414563985E+02  0.11681986647E+03 -0.57718379369E+02  0.14082403262E+03  0.00000000000E+00 0. -1.
         -5    1    3    3    0  503 -0.93101063847E+02 -0.63293151941E+02 -0.92668221799E+02  0.14588804099E+03  0.47000000000E+01 0.  1.
         11    1    4    4    0    0 -0.26023073437E+02 -0.50717657198E+02 -0.16613332151E+02  0.59375785535E+02  0.00000000000E+00 0. -1.
        -12    1    4    4    0    0  0.38333173421E+02 -0.11945889075E+03 -0.11568896465E+03  0.17065695212E+03  0.00000000000E+00 0.  1.
</event>
<event>
12    1  0.1628146E-001  0.2383087E+03  0.7818608E-02  0.1121124E+00
         21   -1    0    0  501  502  0.00000000000E+00  0.00000000000E+00  0.20954002569E+02  0.20954002569E+02  0.00000000000E+00 0.  1.
         21   -1    0    0  502  503 -0.00000000000E+00 -0.00000000000E+00 -0.27066667562E+04  0.27066667562E+04  0.00000000000E+00 0. -1.
         -6    2    1    2    0  503  0.98249337933E+02 -0.13233559681E+03 -0.12638782343E+04  0.12861489989E+04  0.17212034628E+03 0.  0.
        -24    2    3    3    0    0  0.82229040508E+02 -0.14941599016E+03 -0.12325283827E+04  0.12467371610E+04  0.78361861762E+02 0.  0.
          6    2    1    2  501    0 -0.98249337933E+02  0.13233559681E+03 -0.14218345193E+04  0.14414717599E+04  0.17047519351E+03 0.  0.
         24    2    5    5    0    0 -0.49938898516E+02  0.15077229596E+03 -0.91338156590E+03  0.93037460055E+03  0.78133434616E+02 0.  0.
          5    1    5    5  501    0 -0.48310439416E+02 -0.18436699147E+02 -0.50845295344E+03  0.51109715934E+03  0.47000000000E+01 0. -1.
        -11    1    6    6    0    0 -0.65645520651E+02  0.75765784696E+02 -0.50034672745E+03  0.51029073692E+03  0.00000000000E+00 0.  1.
         12    1    6    6    0    0  0.15706622134E+02  0.75006511260E+02 -0.41303483845E+03  0.42008386363E+03  0.00000000000E+00 0. -1.
         -5    1    3    3    0  503  0.16020297425E+02  0.17080393353E+02 -0.31349851673E+02  0.39411837899E+02  0.47000000000E+01 0.  1.
         13    1    4    4    0    0  0.31555559007E+02 -0.32685392928E+02 -0.14929845979E+03  0.15605806071E+03  0.00000000000E+00 0. -1.
        -14    1    4    4    0    0  0.50673481501E+02 -0.11673059723E+03 -0.10832299229E+04  0.10906791003E+04  0.00000000000E+00 0.  1.
</event>
<event>
12    1  0.1628146E-001  0.1802863E+03  0.7818608E-02  0.1167961E+00
         21   -1    0    0  503  502  0.00000000000E+00  0.00000000000E+00  0.12764535695E+03  0.12764535695E+03  0.00000000000E+00 0.  1.
         21   -1    0    0  501  503 -0.00000000000E+00 -0.00000000000E+00 -0.33350401253E+03  0.33350401253E+03  0.00000000000E+00 0.  1.
          6    2    1    2  501    0 -0.54442051356E+02 -0.12526570530E+02 -0.21644678047E+03  0.28055242548E+03  0.16952758697E+03 0.  0.
         24    2    3    3    0    0 -0.46241302211E+02  0.15502945950E+02 -0.22990277134E+03  0.24805535221E+03  0.79357256309E+02 0.  0.
         -6    2    1    2    0  502  0.54442051356E+02  0.12526570530E+02  0.10588124886E+02  0.18059694400E+03  0.17141264792E+03 0.  0.
        -24    2    5    5    0    0 -0.30562910028E+02  0.31741526161E+02 -0.86418601708E+01  0.91227260631E+02  0.79411053277E+02 0.  0.
          5    1    3    3  501    0 -0.82007491452E+01 -0.28029516480E+02  0.13455990872E+02  0.32497073268E+02  0.47000000000E+01 0. -1.
        -13    1    4    4    0    0 -0.59080164599E+02  0.32841183048E+02 -0.13814614650E+03  0.15379651149E+03  0.00000000000E+00 0.  1.
         14    1    4    4    0    0  0.12838862388E+02 -0.17338237098E+02 -0.91756624835E+02  0.94258840721E+02  0.00000000000E+00 0. -1.
         -5    1    5    5    0  502  0.85004961383E+02 -0.19214955630E+02  0.19229985057E+02  0.89369683366E+02  0.47000000000E+01 0.  1.
         11    1    6    6    0    0 -0.53824880416E+02  0.18566386074E+02 -0.22370797420E+02  0.61174185902E+02  0.00000000000E+00 0. -1.
        -12    1    6    6    0    0  0.23261970388E+02  0.13175140087E+02  0.13728937249E+02  0.30053074729E+02  0.00000000000E+00 0.  1.
</event>
<event>
12    1  0.1628146E-001  0.1740534E+03  0.7818608E-02  0.1173857E+00
         21   -1    0    0  501  502  0.00000000000E+00  0.00000000000E+00  0.72199185634E+03  0.72199185634E+03  0.00000000000E+00 0.  1.
         21   -1    0    0  502  503 -0.00000000000E+00 -0.00000000000E+00 -0.10091935891E+03  0.10091935891E+03  0.00000000000E+00 0.  1.
         -6    2    1    2    0  503  0.74259176607E+01  0.21111718385E+02 -0.41419611591E+01  0.17410264657E+03  0.17260859421E+03 0.  0.
        -24    2    3    3    0    0 -0.48700471516E+02  0.19632414587E+02  0.39102035723E+02  0.10307805106E+03  0.79617509279E+02 0.  0.
          6    2    1    2  501    0 -0.74259176607E+01 -0.21111718385E+02  0.62521445859E+03  0.64880856868E+03  0.17192611975E+03 0.  0.
         24    2    5    5    0    0 -0.12778986492E+02 -0.50798679626E+02  0.60784421084E+03  0.61368327123E+03  0.66247750085E+02 0.  0.
          5    1    5    5  501    0  0.53530688316E+01  0.29686961241E+02  0.17370247751E+02  0.35125297445E+02  0.47000000000E+01 0. -1.
        -13    1    6    6    0    0  0.14848967088E+02 -0.91756684350E+01  0.38115500286E+03  0.38155447962E+03  0.00000000000E+00 0.  1.
         14    1    6    6    0    0 -0.27627953580E+02 -0.41623011191E+02  0.22668920798E+03  0.23212879161E+03  0.00000000000E+00 0. -1.
         -5    1    3    3    0  503  0.56126389177E+02  0.14793037974E+01 -0.43243996882E+02  0.71024595515E+02  0.47000000000E+01 0.  1.
         11    1    4    4    0    0 -0.14871019389E+02  0.44712569364E+02  0.38680803986E+02  0.60963642229E+02  0.00000000000E+00 0. -1.
        -12    1    4    4    0    0 -0.33829452127E+02 -0.25080154777E+02  0.42123173701E+00  0.42114408829E+02  0.00000000000E+00 0.  1.
</event>
<event>
12    1  0.1628146E-001  0.1932274E+03  0.7818608E-02  0.1156467E+00
         21   -1    0    0  503  502  0.00000000000E+00  0.00000000000E+00  0.23115500384E+03  0.23115500384E+03  0.00000000000E+00 0. -1.
         21   -1    0    0  501  503 -0.00000000000E+00 -0.00000000000E+00 -0.31973775058E+03  0.31973775058E+03  0.00000000000E+00 0. -1.
          6    2    1    2  501    0 -0.15672413286E+02  0.79811898719E+02 -0.24028229109E+03  0.30833813931E+03  0.17527482712E+03 0.  0.
         24    2    3    3    0    0  0.19263628559E+02  0.98317258413E+01 -0.20696981839E+03  0.22319377688E+03  0.80692044797E+02 0.  0.
         -6    2    1    2    0  502  0.15672413286E+02 -0.79811898719E+02  0.15169954436E+03  0.24255461511E+03  0.17089302455E+03 0.  0.
        -24    2    5    5    0    0  0.41308578107E+02  0.13655033127E+02  0.71451802930E+02  0.11663769687E+03  0.81278125190E+02 0.  0.
          5    1    3    3  501    0 -0.34936041845E+02  0.69980172878E+02 -0.33312472698E+02  0.85144362427E+02  0.47000000000E+01 0. -1.
        -11    1    4    4    0    0 -0.21799416275E+02 -0.22037932615E+02 -0.65153417739E+02  0.72151596427E+02  0.00000000000E+00 0.  1.
         12    1    4    4    0    0  0.41063044834E+02  0.31869658456E+02 -0.14181640066E+03  0.15104218045E+03  0.00000000000E+00 0. -1.
         -5    1    5    5    0  502 -0.25636164821E+02 -0.93466931845E+02  0.80247741431E+02  0.12591691824E+03  0.47000000000E+01 0.  1.
         11    1    6    6    0    0  0.41954967842E+02 -0.28041097443E+02  0.37748160053E+02  0.63019410183E+02  0.00000000000E+00 0. -1.
        -12    1    6    6    0    0 -0.64638973540E+00  0.41696130569E+02  0.33703642877E+02  0.53618286688E+02  0.00000000000E+00 0.  1.
</event>
<event>
12    1  0.1628146E-001  0.2509560E+03  0.7818608E-02  0.1112797E+00
         21   -1    0    0  503  502  0.00000000000E+00  0.00000000000E+00  0.18928845333E+04  0.18928845333E+04  0.00000000000E+00 0.  1.
         21   -1    0    0  501  503 -0.00000000000E+00 -0.00000000000E+00 -0.44313939878E+02  0.44313939878E+02  0.00000000000E+00 0.  1.
          6    2    1    2  501    0  0.92651260839E+02 -0.15668911705E+03  0.14103843626E+04  0.14325372471E+04  0.17275178319E+03 0.  0.
         24    2    3    3    0    0  0.79960620740E+02 -0.86486425501E+02  0.50905647728E+03  0.52837823616E+03  0.78558645133E+02 0.  0.
         -6    2    1    2    0  502 -0.92651260839E+02  0.15668911705E+03  0.43818623081E+03  0.50466122604E+03  0.17187217536E+03 0.  0.
        -24    2    5    5    0    0 -0.11807280741E+03  0.16231202744E+03  0.33821844265E+03  0.40125174475E+03  0.79529023717E+02 0.  0.
          5    1    3    3  501    0  0.12690640099E+02 -0.70202691545E+02  0.90132788530E+03  0.90415901094E+03  0.47000000000E+01 0. -1.
        -11    1    4    4    0    0  0.67631787571E+02 -0.64608298668E+02  0.48381227141E+03  0.49277033689E+03  0.00000000000E+00 0.  1.
         12    1    4    4    0    0  0.12328833169E+02 -0.21878126833E+02  0.25244205871E+02  0.35607899279E+02  0.00000000000E+00 0. -1.
         -5    1    5    5    0  502  0.25421546574E+02 -0.56229103952E+01  0.99967788155E+02  0.10340948129E+03  0.47000000000E+01 0.  1.
         11    1    6    6    0    0 -0.30866275708E+02  0.64934781892E+02  0.59211373745E+02  0.93140966584E+02  0.00000000000E+00 0. -1.
        -12    1    6    6    0    0 -0.87206531705E+02  0.97377245550E+02  0.27900706891E+03  0.30811077817E+03  0.00000000000E+00 0.  1.
</event>
<event>
12    1  0.1628146E-001  0.2188008E+03  0.7818608E-02  0.1135097E+00
         21   -1    0    0  501  502  0.00000000000E+00  0.00000000000E+00  0.21625006299E+03  0.21625006299E+03  0.00000000000E+00 0.  1.
         21   -1    0    0  502  503 -0.00000000000E+00 -0.00000000000E+00 -0.39430724502E+03  0.39430724502E+03  0.00000000000E+00 0.  1.
         -6    2    1    2    0  503  0.11561222408E+03  0.64802353333E+02 -0.29237458700E+03  0.36518033635E+03  0.17409264080E+03 0.  0.
        -24    2    3    3    0    0  0.83563243486E+02  0.18595007132E+02 -0.72816926984E+02  0.13848690444E+03  0.80918031947E+02 0.  0.
          6    2    1    2  501    0 -0.11561222408E+03 -0.64802353333E+02  0.11431740497E+03  0.24537697166E+03  0.17197632915E+03 0.  0.
         24    2    5    5    0    0 -0.74016201542E+02 -0.89827373909E+02  0.18461681949E+02  0.13782749290E+03  0.71471874917E+02 0.  0.
          5    1    5    5  501    0 -0.41596022541E+02  0.25025020576E+02  0.95855723019E+02  0.10754947876E+03  0.47000000000E+01 0. -1.
        -11    1    6    6    0    0 -0.88335579430E+02 -0.74116856244E+02  0.16396627358E+02  0.11647030678E+03  0.00000000000E+00 0.  1.
         12    1    6    6    0    0  0.14319377888E+02 -0.15710517665E+02  0.20650545913E+01  0.21357186118E+02  0.00000000000E+00 0. -1.
         -5    1    3    3    0  503  0.32048980597E+02  0.46207346201E+02 -0.21955766001E+03  0.22669343191E+03  0.47000000000E+01 0.  1.
         13    1    4    4    0    0  0.31638722710E+02  0.22974674322E+02  0.10256250233E+02  0.40423200068E+02  0.00000000000E+00 0. -1.
        -14    1    4    4    0    0  0.51924520777E+02 -0.43796671899E+01 -0.83073177216E+02  0.98063704373E+02  0.00000000000E+00 0.  1.
</event>
<event>
12    1  0.1628146E-001  0.3913633E+03  0.7818608E-02  0.1046874E+00
         21   -1    0    0  501  502  0.00000000000E+00  0.00000000000E+00  0.30795128055E+03  0.30795128055E+03  0.00000000000E+00 0.  1.
         21   -1    0    0  502  503 -0.00000000000E+00 -0.00000000000E+00 -0.51079331188E+03  0.51079331188E+03  0.00000000000E+00 0. -1.
         -6    2    1    2    0  503  0.26010263351E+03 -0.23620568389E+03 -0.16986645326E+03  0.42599450371E+03  0.17079285754E+03 0.  0.
        -24    2    3    3    0    0  0.16153824099E+03 -0.66131957025E+02 -0.64251940511E+02  0.20279834033E+03  0.80813463858E+02 0.  0.
          6    2    1    2  501    0 -0.26010263351E+03  0.23620568389E+03 -0.32975578072E+02  0.39275008872E+03  0.17239123637E+03 0.  0.
         24    2    5    5    0    0 -0.26796750034E+03  0.24945909605E+03 -0.27911090353E+02  0.37586079922E+03  0.80348550617E+02 0.  0.
          5    1    5    5  501    0  0.78648668286E+01 -0.13253412155E+02 -0.50644877191E+01  0.16889289501E+02  0.47000000000E+01 0. -1.
        -11    1    6    6    0    0 -0.13768351081E+03  0.13305889445E+03  0.25519842250E+02  0.19316490595E+03  0.00000000000E+00 0.  1.
         12    1    6    6    0    0 -0.13028398953E+03  0.11640020159E+03 -0.53430932603E+02  0.18269589327E+03  0.00000000000E+00 0. -1.
         -5    1    3    3    0  503  0.98564392517E+02 -0.17007372687E+03 -0.10561451274E+03  0.22319616337E+03  0.47000000000E+01 0.  1.
         11    1    4    4    0    0  0.41397094119E+02  0.37325972759E+01 -0.47017051889E+02  0.62755516509E+02  0.00000000000E+00 0. -1.
        -12    1    4    4    0    0  0.12014114687E+03 -0.69864554301E+02 -0.17234888622E+02  0.14004282383E+03  0.00000000000E+00 0.  1.
</event>
<event>
12    1  0.1628146E-001  0.2163100E+03  0.7818608E-02  0.1136782E+00
         21   -1    0    0  503  502  0.00000000000E+00  0.00000000000E+00  0.98003353264E+03  0.98003353264E+03  0.00000000000E+00 0. -1.
         21   -1    0    0  501  503 -0.00000000000E+00 -0.00000000000E+00 -0.57099476961E+02  0.57099476961E+02  0.00000000000E+00 0. -1.
          6    2    1    2  501    0  0.80116413802E+02  0.10232786570E+03  0.67234747840E+03  0.70609878699E+03  0.17214741768E+03 0.  0.
         24    2    3    3    0    0  0.10078576579E+03  0.61681194509E+02  0.31022072770E+03  0.34108200989E+03  0.78343456855E+02 0.  0.
         -6    2    1    2    0  502 -0.80116413802E+02 -0.10232786570E+03  0.25058657727E+03  0.33103422261E+03  0.17291729807E+03 0.  0.
        -24    2    5    5    0    0 -0.96189961309E+02 -0.12283821442E+03  0.16511598451E+03  0.24155603777E+03  0.82123659601E+02 0.  0.
          5    1    3    3  501    0 -0.20669351992E+02  0.40646671186E+02  0.36212675071E+03  0.36501677711E+03  0.47000000000E+01 0. -1.
        -13    1    4    4    0    0  0.44802254755E+02  0.85527137116E+01  0.20830358866E+03  0.21323877694E+03  0.00000000000E+00 0.  1.
         14    1    4    4    0    0  0.55983511039E+02  0.53128480797E+02  0.10191713904E+03  0.12784323295E+03  0.00000000000E+00 0. -1.
         -5    1    5    5    0  502  0.16073547507E+02  0.20510348722E+02  0.85470592765E+02  0.89478184837E+02  0.47000000000E+01 0.  1.
         13    1    6    6    0    0 -0.10028230575E+03 -0.68244160432E+02  0.11979994912E+03  0.17048704962E+03  0.00000000000E+00 0. -1.
        -14    1    6    6    0    0  0.40923444396E+01 -0.54594053985E+02  0.45316035390E+02  0.71068988153E+02  0.00000000000E+00 0.  1.
</event>
<event>
12    1  0.1628146E-001  0.1749643E+03  0.7818608E-02  0.1173102E+00
         21   -1    0    0  501  502  0.00000000000E+00  0.00000000000E+00  0.32098163952E+03  0.32098163952E+03  0.00000000000E+00 0. -1.
         21   -1    0    0  502  503 -0.00000000000E+00 -0.00000000000E+00 -0.11574845362E+03  0.11574845362E+03  0.00000000000E+00 0. -1.
         -6    2    1    2    0  503 -0.23431725576E+02 -0.22951504389E+02  0.19552443824E+03  0.26149659915E+03  0.17051348363E+03 0.  0.
        -24    2    3    3    0    0 -0.36209804795E+02  0.12642249648E+02  0.33340034967E+02  0.94895082651E+02  0.80140765783E+02 0.  0.
          6    2    1    2  501    0  0.23431725576E+02  0.22951504389E+02  0.97087476593E+01  0.17523349398E+03  0.17186244591E+03 0.  0.
         24    2    5    5    0    0 -0.41624086538E+02  0.24738434197E+02  0.43153440109E+02  0.10191167417E+03  0.78607984528E+02 0.  0.
          5    1    5    5  501    0  0.65055812114E+02 -0.17869298074E+01 -0.33444692450E+02  0.73321819815E+02  0.47000000000E+01 0. -1.
        -11    1    6    6    0    0 -0.17577232264E+02  0.30435296738E+02 -0.15388415835E+02  0.38367560823E+02  0.00000000000E+00 0.  1.
         12    1    6    6    0    0 -0.24046854274E+02 -0.56968625411E+01  0.58541855944E+02  0.63544113344E+02  0.00000000000E+00 0. -1.
         -5    1    3    3    0  503  0.12778079219E+02 -0.35593754037E+02  0.16218440327E+03  0.16660151650E+03  0.47000000000E+01 0.  1.
         13    1    4    4    0    0 -0.41137834644E+02 -0.48307952384E-01  0.55381280090E+02  0.68988476989E+02  0.00000000000E+00 0. -1.
        -14    1    4    4    0    0  0.49280298493E+01  0.12690557600E+02 -0.22041245122E+02  0.25906605662E+02  0.00000000000E+00 0.  1.
</event>
<event>
12    1  0.1628146E-001  0.2436513E+03  0.7818608E-02  0.1117463E+00
         21   -1    0    0  501  502  0.00000000000E+00  0.00000000000E+00  0.46067496318E+02  0.46067496318E+02  0.00000000000E+00 0.  1.
         21   -1    0    0  502  503 -0.00000000000E+00 -0.00000000000E+00 -0.13076147375E+04  0.13076147375E+04  0.00000000000E+00 0.  1.
         -6    2    1    2    0  503  0.63193708767E+02  0.15980055018E+03 -0.54338663014E+03  0.59531516251E+03  0.17205072576E+03 0.  0.
        -24    2    3    3    0    0  0.59845750765E+02  0.92672175372E+02 -0.17893476773E+03  0.22468775184E+03  0.79355458229E+02 0.  0.
          6    2    1    2  501    0 -0.63193708767E+02 -0.15980055018E+03 -0.71816061102E+03  0.75836707129E+03  0.17273184688E+03 0.  0.
         24    2    5    5    0    0 -0.75759287778E+02 -0.36999043096E+02 -0.27871430168E+03  0.30188787931E+03  0.79663233914E+02 0.  0.
          5    1    5    5  501    0  0.12565579011E+02 -0.12280150708E+03 -0.43944630934E+03  0.45647919198E+03  0.47000000000E+01 0. -1.
        -11    1    6    6    0    0 -0.19879537309E+02 -0.53932141574E+02 -0.13123848145E+03  0.14327390171E+03  0.00000000000E+00 0.  1.
         12    1    6    6    0    0 -0.55879750469E+02  0.16933098478E+02 -0.14747582023E+03  0.15861397759E+03  0.00000000000E+00 0. -1.
         -5    1    3    3    0  503  0.33479580021E+01  0.67128374805E+02 -0.36445186241E+03  0.37062741067E+03  0.47000000000E+01 0.  1.
         11    1    4    4    0    0 -0.88899053163E+01  0.38245604086E+02 -0.97168702544E+02  0.10480225857E+03  0.00000000000E+00 0. -1.
        -12    1    4    4    0    0  0.68735656081E+02  0.54426571286E+02 -0.81766065186E+02  0.11988549326E+03  0.00000000000E+00 0.  1.
</event>
<event>
12    1  0.1628146E-001  0.1778905E+03  0.7818608E-02  0.1170148E+00
         21   -1    0    0  503  502  0.00000000000E+00  0.00000000000E+00  0.80442659733E+02  0.80442659733E+02  0.00000000000E+00 0.  1.
         21   -1    0    0  501  503 -0.00000000000E+00 -0.00000000000E+00 -0.39186863484E+03  0.39186863484E+03  0.00000000000E+00 0.  1.
          6    2    1    2  501    0 -0.40779005302E+02  0.88699104416E+01 -0.14396044107E+03  0.22884411648E+03  0.17292604913E+03 0.  0.
         24    2    3    3    0    0 -0.26180274692E+02  0.31668817297E+02 -0.60345913753E+01  0.88207908111E+02  0.77819650400E+02 0.  0.
         -6    2    1    2    0  502  0.40779005302E+02 -0.88699104416E+01 -0.16746553404E+03  0.24346717810E+03  0.17172640780E+03 0.  0.
        -24    2    5    5    0    0 -0.25624230059E+02 -0.46420481018E+02 -0.64373261527E+02  0.11513346597E+03  0.79374655669E+02 0.  0.
          5    1    3    3  501    0 -0.14598730609E+02 -0.22798906856E+02 -0.13792584970E+03  0.14063620837E+03  0.47000000000E+01 0. -1.
        -11    1    4    4    0    0 -0.50931158214E+02  0.36105330520E+02 -0.82124255390E+01  0.62968418292E+02  0.00000000000E+00 0.  1.
         12    1    4    4    0    0  0.24750883522E+02 -0.44365132225E+01  0.21778341637E+01  0.25239489819E+02  0.00000000000E+00 0. -1.
         -5    1    5    5    0  502  0.66403235361E+02  0.37550570576E+02 -0.10309227251E+03  0.12833371213E+03  0.47000000000E+01 0.  1.
         11    1    6    6    0    0 -0.26449995318E+02 -0.36508830193E+02 -0.82752145943E+02  0.94235951699E+02  0.00000000000E+00 0. -1.
        -12    1    6    6    0    0  0.82576525877E+00 -0.99116508245E+01  0.18378884416E+02  0.20897514271E+02  0.00000000000E+00 0.  1.
</event>
<event>
12    1  0.1628146E-001  0.2006325E+03  0.7818608E-02  0.1149220E+00
         21   -1    0    0  503  502  0.00000000000E+00  0.00000000000E+00  0.36789315177E+04  0.36789315177E+04  0.00000000000E+00 0.  1.
         21   -1    0    0  501  503 -0.00000000000E+00 -0.00000000000E+00 -0.11318718272E+02  0.11318718272E+02  0.00000000000E+00 0.  1.
          6    2    1    2  501    0  0.10322450670E+03 -0.83399397697E+01  0.21724268326E+04  0.21816717783E+04  0.17183873714E+03 0.  0.
         24    2    3    3    0    0  0.74567027490E+02 -0.71012861143E+02  0.12399799895E+04  0.12466699860E+04  0.77669889410E+02 0.  0.
         -6    2    1    2    0  502 -0.10322450670E+03  0.83399397697E+01  0.14951859668E+04  0.15085784577E+04  0.17176447351E+03 0.  0.
        -24    2    5    5    0    0 -0.22787522671E+02  0.14654197596E+02  0.11859595296E+04  0.11889645379E+04  0.80016560226E+02 0.  0.
          5    1    3    3  501    0  0.28657479211E+02  0.62672921373E+02  0.93244684312E+03  0.93500179221E+03  0.47000000000E+01 0. -1.
        -13    1    4    4    0    0  0.33922063730E+02 -0.48626977570E+02  0.10262345729E+04  0.10279458585E+04  0.00000000000E+00 0.  1.
         14    1    4    4    0    0  0.40644963760E+02 -0.22385883573E+02  0.21374541655E+03  0.21872412752E+03  0.00000000000E+00 0. -1.
         -5    1    5    5    0  502 -0.80436984030E+02 -0.63142578266E+01  0.30922643723E+03  0.31961391981E+03  0.47000000000E+01 0.  1.
         11    1    6    6    0    0 -0.18423207137E+02 -0.15243555767E+02  0.10197950135E+04  0.10200753159E+04  0.00000000000E+00 0. -1.
        -12    1    6    6    0    0 -0.43643155335E+01  0.29897753363E+02  0.16616451604E+03  0.16888922197E+03  0.00000000000E+00 0.  1.
</event>
<event>
12    1  0.1628146E-001  0.1881648E+03  0.7818608E-02  0.1160198E+00
         21   -1    0    0  503  502  0.00000000000E+00  0.00000000000E+00  0.92715833066E+03  0.92715833066E+03  0.00000000000E+00 0. -1.
         21   -1    0    0  501  503 -0.00000000000E+00 -0.00000000000E+00 -0.26600434003E+03  0.26600434003E+03  0.00000000000E+00 0. -1.
          6    2    1    2  501    0  0.75536769191E+02  0.85718476414E+01 -0.22163898684E+03  0.29053904050E+03  0.17178420618E+03 0.  0.
         24    2    3    3    0    0  0.77684424012E+02  0.12760998815E+02 -0.24345445179E+03  0.26773189425E+03  0.78819948493E+02 0.  0.
         -6    2    1    2    0  502 -0.75536769191E+02 -0.85718476414E+01  0.88279297747E+03  0.90262363019E+03  0.17212407339E+03 0.  0.
        -24    2    5    5    0    0 -0.93299215630E+02 -0.45014791111E+02  0.46971475410E+03  0.48753412026E+03  0.79539255372E+02 0.  0.
          5    1    3    3  501    0 -0.21476548206E+01 -0.41891511736E+01  0.21815464947E+02  0.22807146241E+02  0.47000000000E+01 0. -1.
        -11    1    4    4    0    0  0.25275833240E+00 -0.18800501160E+02 -0.99446784327E+02  0.10120862435E+03  0.00000000000E+00 0.  1.
         12    1    4    4    0    0  0.77431665679E+02  0.31561499975E+02 -0.14400766746E+03  0.16652326990E+03  0.00000000000E+00 0. -1.
         -5    1    5    5    0  502  0.17762446439E+02  0.36442943469E+02  0.41307822337E+03  0.41508950993E+03  0.47000000000E+01 0.  1.
         13    1    6    6    0    0 -0.28527621810E+02 -0.47380332119E+02  0.31456991111E+03  0.31939466191E+03  0.00000000000E+00 0. -1.
        -14    1    6    6    0    0 -0.64771593820E+02  0.23655410086E+01  0.15514484299E+03  0.16813945836E+03  0.00000000000E+00 0.  1.
</event>
<event>
12    1  0.1628146E-001  0.2451484E+03  0.7818608E-02  0.1116664E+00
         21   -1    0    0  503  502  0.00000000000E+00  0.00000000000E+00  0.13476895193E+04  0.13476895193E+04  0.00000000000E+00 0. -1.
         21   -1    0    0  501  503 -0.00000000000E+00 -0.00000000000E+00 -0.44743385753E+02  0.44743385753E+02  0.00000000000E+00 0. -1.
          6    2    1    2  501    0 -0.15764686615E+03 -0.73193402049E+02  0.71799081426E+03  0.75818494628E+03  0.17065695088E+03 0.  0.
         24    2    3    3    0    0 -0.92188640318E+02  0.11212665044E+02  0.25476366238E+03  0.28277917461E+03  0.80218879723E+02 0.  0.
         -6    2    1    2    0  502  0.15764686615E+03  0.73193402049E+02  0.58495531926E+03  0.63424795875E+03  0.17288128626E+03 0.  0.
        -24    2    5    5    0    0  0.11589212976E+03  0.67828493606E+02  0.56741128058E+03  0.58839903786E+03  0.78906122326E+02 0.  0.
          5    1    3    3  501    0 -0.65458225835E+02 -0.84406067092E+02  0.46322715188E+03  0.47540577166E+03  0.47000000000E+01 0. -1.
        -11    1    4    4    0    0 -0.33292916303E+02 -0.16890320592E+02  0.27596752292E+02  0.46425014192E+02  0.00000000000E+00 0.  1.
         12    1    4    4    0    0 -0.58895724015E+02  0.28102985636E+02  0.22716691009E+03  0.23635416042E+03  0.00000000000E+00 0. -1.
         -5    1    5    5    0  502  0.41754736390E+02  0.53649084430E+01  0.17544038679E+02  0.45848920890E+02  0.47000000000E+01 0.  1.
         13    1    6    6    0    0  0.26355352786E+02  0.53050764405E+00  0.32303303311E+02  0.41693997933E+02  0.00000000000E+00 0. -1.
        -14    1    6    6    0    0  0.89536776978E+02  0.67297985962E+02  0.53510797727E+03  0.54670503993E+03  0.00000000000E+00 0.  1.
</event>
<event>
12    1  0.1628146E-001  0.2132861E+03  0.7818608E-02  0.1139272E+00
         21   -1    0    0  501  502  0.00000000000E+00  0.00000000000E+00  0.19711877636E+03  0.19711877636E+03  0.00000000000E+00 0. -1.
         21   -1    0    0  502  503 -0.00000000000E+00 -0.00000000000E+00 -0.24636768968E+03  0.24636768968E+03  0.00000000000E+00 0. -1.
         -6    2    1    2    0  503  0.57971149767E+02  0.10949213297E+03 -0.83214390495E+02  0.22894452992E+03  0.17361388657E+03 0.  0.
        -24    2    3    3    0    0  0.56229231731E+02  0.14630318194E+03 -0.65342984011E+02  0.18771875189E+03  0.80014228134E+02 0.  0.
          6    2    1    2  501    0 -0.57971149767E+02 -0.10949213297E+03  0.33965477174E+02  0.21454193612E+03  0.17182958805E+03 0.  0.
         24    2    5    5    0    0 -0.59141623084E+02 -0.31317078331E+01  0.41255371737E+02  0.10782201013E+03  0.80100193479E+02 0.  0.
          5    1    5    5  501    0  0.11704733169E+01 -0.10636042513E+03 -0.72898945632E+01  0.10671992600E+03  0.47000000000E+01 0. -1.
        -13    1    6    6    0    0 -0.18448924945E+02 -0.75218673162E+01 -0.23753004279E+02  0.31002363326E+02  0.00000000000E+00 0.  1.
         14    1    6    6    0    0 -0.40692698139E+02  0.43901594831E+01  0.65008376016E+02  0.76819646799E+02  0.00000000000E+00 0. -1.
         -5    1    3    3    0  503  0.17419180358E+01 -0.36811048972E+02 -0.17871406484E+02  0.41225778035E+02  0.47000000000E+01 0.  1.
         11    1    4    4    0    0  0.21000534807E+02  0.66768225140E+02  0.12364712213E+02  0.71076750479E+02  0.00000000000E+00 0. -1.
        -12    1    4    4    0    0  0.35228696924E+02  0.79534956799E+02 -0.77707696224E+02  0.11664200141E+03  0.00000000000E+00 0.  1.
</event>
<event>
12    1  0.1628146E-001  0.1813414E+03  0.7818608E-02  0.1166748E+00
         21   -1    0    0  501  502  0.00000000000E+00  0.00000000000E+00  0.82175181177E+03  0.82175181177E+03  0.00000000000E+00 0. -1.
         21   -1    0    0  502  503 -0.00000000000E+00 -0.00000000000E+00 -0.42834409566E+02  0.42834409566E+02  0.00000000000E+00 0. -1.
         -6    2    1    2    0  503  0.54161840553E+02 -0.15754181080E+02  0.27343278225E+03  0.32755791065E+03  0.17130965889E+03 0.  0.
        -24    2    3    3    0    0  0.84644545013E+02  0.19705045804E+02  0.12525869221E+03  0.17210951728E+03  0.79868380066E+02 0.  0.
          6    2    1    2  501    0 -0.54161840553E+02  0.15754181080E+02  0.50548461996E+03  0.53702831069E+03  0.17234560126E+03 0.  0.
         24    2    5    5    0    0 -0.66760564988E+02  0.48172057745E+02  0.21418411456E+03  0.24362121972E+03  0.81847074371E+02 0.  0.
          5    1    5    5  501    0  0.12598724435E+02 -0.32417876665E+02  0.29130050540E+03  0.29340709097E+03  0.47000000000E+01 0. -1.
        -11    1    6    6    0    0 -0.82507628224E+02  0.25983143287E+02  0.18175488378E+03  0.20128951843E+03  0.00000000000E+00 0.  1.
         12    1    6    6    0    0  0.15747063237E+02  0.22188914458E+02  0.32429230775E+02  0.42331701289E+02  0.00000000000E+00 0. -1.
         -5    1    3    3    0  503 -0.30482704461E+02 -0.35459226884E+02  0.14817409004E+03  0.15544839337E+03  0.47000000000E+01 0.  1.
         11    1    4    4    0    0  0.34603619962E+02 -0.23089333048E+02  0.16052923771E+02  0.44589507473E+02  0.00000000000E+00 0. -1.
        -12    1    4    4    0    0  0.50040925051E+02  0.42794378852E+02  0.10920576844E+03  0.12752000981E+03  0.00000000000E+00 0.  1.
</event>
<event>
12    1  0.1628146E-001  0.1852304E+03  0.7818608E-02  0.1162970E+00
         21   -1    0    0  503  502  0.00000000000E+00  0.00000000000E+00  0.58800861298E+03  0.58800861298E+03  0.00000000000E+00 0. -1.
         21   -1    0    0  501  503 -0.00000000000E+00 -0.00000000000E+00 -0.91322202066E+02  0.91322202066E+02  0.00000000000E+00 0.  1.
          6    2    1    2  501    0  0.10293821453E+02 -0.68448739824E+02  0.43931269475E+02  0.19036870248E+03  0.17181121530E+03 0.  0.
         24    2    3    3    0    0 -0.19434103246E+02  0.28378381979E+00  0.73027441104E+02  0.10989146025E+03  0.79783212390E+02 0.  0.
         -6    2    1    2    0  502 -0.10293821453E+02  0.68448739824E+02  0.45275514144E+03  0.48896211257E+03  0.17118859975E+03 0.  0.
        -24    2    5    5    0    0 -0.37743358291E+02  0.98520276229E+02  0.25678510110E+03  0.28875192030E+03  0.79424664999E+02 0.  0.
          5    1    3    3  501    0  0.29727924699E+02 -0.68732523644E+02 -0.29096171629E+02  0.80477242230E+02  0.47000000000E+01 0. -1.
        -13    1    4    4    0    0 -0.50169738427E+02  0.24309214676E+00  0.54160833332E+02  0.73827214595E+02  0.00000000000E+00 0.  1.
         14    1    4    4    0    0  0.30735635181E+02  0.40691673038E-01  0.18866607772E+02  0.36064245654E+02  0.00000000000E+00 0. -1.
         -5    1    5    5    0  502  0.27449536839E+02 -0.30071536405E+02  0.19597004035E+03  0.20021019227E+03  0.47000000000E+01 0.  1.
         13    1    6    6    0    0 -0.38583412552E+02  0.41531676190E+02  0.20159965857E+03  0.20941819927E+03  0.00000000000E+00 0. -1.
        -14    1    6    6    0    0  0.84005426044E+00  0.56988600039E+02  0.55185442525E+02  0.79333721028E+02  0.00000000000E+00 0.  1.
</event>
<event>
12    1  0.1628146E-001  0.3048430E+03  0.7818608E-02  0.1083040E+00
         21   -1    0    0  501  502  0.00000000000E+00  0.00000000000E+00  0.12347791683E+04  0.12347791683E+04  0.00000000000E+00 0.  1.
         21   -1    0    0  502  503 -0.00000000000E+00 -0.00000000000E+00 -0.75894128720E+02  0.75894128720E+02  0.00000000000E+00 0. -1.
         -6    2    1    2    0  503  0.12306635799E+03  0.21767110659E+03  0.65715836109E+03  0.72442141571E+03  0.17436523986E+03 0.  0.
        -24    2    3    3    0    0  0.13575956065E+03  0.22494990807E+03  0.65026449460E+03  0.70757761151E+03  0.93749900926E+02 0.  0.
          6    2    1    2  501    0 -0.12306635799E+03 -0.21767110659E+03  0.50172667851E+03  0.58625188133E+03  0.17156797289E+03 0.  0.
         24    2    5    5    0    0 -0.16960843748E+02 -0.40238568445E+02  0.11070319494E+03  0.14391474695E+03  0.80928637762E+02 0.  0.
          5    1    5    5  501    0 -0.10610551424E+03 -0.17743253815E+03  0.39102348357E+03  0.44233713438E+03  0.47000000000E+01 0. -1.
        -11    1    6    6    0    0 -0.21738558993E+00 -0.10192685775E+02  0.10900070166E+03  0.10947644067E+03  0.00000000000E+00 0.  1.
         12    1    6    6    0    0 -0.16743458158E+02 -0.30045882670E+02  0.17024932834E+01  0.34438306287E+02  0.00000000000E+00 0. -1.
         -5    1    3    3    0  503 -0.12693202665E+02 -0.72788014746E+01  0.68938664945E+01  0.16843804203E+02  0.47000000000E+01 0.  1.
         13    1    4    4    0    0  0.50297414606E+02  0.16845309200E+02  0.10242451642E+03  0.11534459642E+03  0.00000000000E+00 0. -1.
        -14    1    4    4    0    0  0.85462146048E+02  0.20810459887E+03  0.54783997818E+03  0.59223301509E+03  0.00000000000E+00 0.  1.
</event>
<event>
12    1  0.1628146E-001  0.1776953E+03  0.7818608E-02  0.1170154E+00
         21   -1    0    0  501  502  0.00000000000E+00  0.00000000000E+00  0.42636598193E+03  0.42636598193E+03  0.00000000000E+00 0.  1.
         21   -1    0    0  502  503 -0.00000000000E+00 -0.00000000000E+00 -0.91901709634E+02  0.91901709634E+02  0.00000000000E+00 0.  1.
         -6    2    1    2    0  503 -0.38579211782E+02  0.76055268963E+01  0.52339832309E+02  0.18484632929E+03  0.17286557722E+03 0.  0.
        -24    2    3    3    0    0 -0.41903702688E+01  0.60800610514E+01 -0.35155153404E+02  0.90706104143E+02  0.83289772316E+02 0.  0.
          6    2    1    2  501    0  0.38579211782E+02 -0.76055268963E+01  0.28212443998E+03  0.33342136226E+03  0.17328994650E+03 0.  0.
         24    2    5    5    0    0 -0.23876477441E+02 -0.10895014286E+02  0.62627293296E+02  0.10513947238E+03  0.80270438372E+02 0.  0.
          5    1    5    5  501    0  0.62455689223E+02  0.32894873893E+01  0.21949714669E+03  0.22828188988E+03  0.47000000000E+01 0. -1.
        -11    1    6    6    0    0  0.10569156339E+02 -0.37765324422E+02  0.19678315611E+02  0.43876678312E+02  0.00000000000E+00 0.  1.
         12    1    6    6    0    0 -0.34445633780E+02  0.26870310137E+02  0.42948977685E+02  0.61262794072E+02  0.00000000000E+00 0. -1.
         -5    1    3    3    0  503 -0.34388841513E+02  0.15254658448E+01  0.87494985713E+02  0.94140225152E+02  0.47000000000E+01 0.  1.
         11    1    4    4    0    0 -0.28748615851E+02 -0.21799646185E+02  0.45077603758E+01  0.36359694591E+02  0.00000000000E+00 0. -1.
        -12    1    4    4    0    0  0.24558245583E+02  0.27879707236E+02 -0.39662913780E+02  0.54346409552E+02  0.00000000000E+00 0.  1.
</event>
<event>
12    1  0.1628146E-001  0.1913193E+03  0.7818608E-02  0.1157733E+00
         21   -1    0    0  503  502  0.00000000000E+00  0.00000000000E+00  0.27586808146E+03  0.27586808146E+03  0.00000000000E+00 0. -1.
         21   -1    0    0  501  503 -0.00000000000E+00 -0.00000000000E+00 -0.15889234424E+03  0.15889234424E+03  0.00000000000E+00 0.  1.
          6    2    1    2  501    0  0.65658453291E+02 -0.53158046292E+02 -0.32387766268E+02  0.19204138995E+03  0.16939338144E+03 0.  0.
         24    2    3    3    0    0  0.10523621014E+03 -0.18422301264E+02 -0.74171299653E+01  0.13357265046E+03  0.79828553954E+02 0.  0.
         -6    2    1    2    0  502 -0.65658453291E+02  0.53158046292E+02  0.14936350348E+03  0.24271903575E+03  0.17165740231E+03 0.  0.
        -24    2    5    5    0    0  0.28842140923E+02  0.14916807430E+02  0.92164332771E+02  0.12572933626E+03  0.79115242049E+02 0.  0.
          5    1    3    3  501    0 -0.39577756848E+02 -0.34735745028E+02 -0.24970636302E+02  0.58468739486E+02  0.47000000000E+01 0. -1.
        -11    1    4    4    0    0  0.69447500062E+02 -0.45664204774E+02 -0.22546090612E+02  0.86119109751E+02  0.00000000000E+00 0.  1.
         12    1    4    4    0    0  0.35788710077E+02  0.27241903509E+02  0.15128960647E+02  0.47453540711E+02  0.00000000000E+00 0. -1.
         -5    1    5    5    0  502 -0.94500594215E+02  0.38241238862E+02  0.57199170713E+02  0.11698969949E+03  0.47000000000E+01 0.  1.
         13    1    6    6    0    0  0.19192950283E+02 -0.10132354535E+02  0.96170153091E+02  0.98588702672E+02  0.00000000000E+00 0. -1.
        -14    1    6    6    0    0  0.96491906401E+01  0.25049161966E+02 -0.40058203194E+01  0.27140633589E+02  0.00000000000E+00 0.  1.
</event>
<event>
12    1  0.1628146E-001  0.1826298E+03  0.7818608E-02  0.1165805E+00
         21   -1    0    0  501  502  0.00000000000E+00  0.00000000000E+00  0.54382312095E+03  0.54382312095E+03  0.00000000000E+00 0. -1.
         21   -1    0    0  502  503 -0.00000000000E+00 -0.00000000000E+00 -0.60599757586E+02  0.60599757586E+02  0.00000000000E+00 0. -1.
         -6    2    1    2    0  503  0.58215833891E+02 -0.13434475624E+02  0.24426852744E+03  0.30499306978E+03  0.17258067871E+03 0.  0.
        -24    2    3    3    0    0  0.66877096310E+01  0.23816682797E+02  0.44090305111E+02  0.94906880113E+02  0.80320614095E+02 0.  0.
          6    2    1    2  501    0 -0.58215833891E+02  0.13434475624E+02  0.23895483593E+03  0.29942980876E+03  0.17026223395E+03 0.  0.
         24    2    5    5    0    0  0.40634015694E+02  0.18096398670E+02  0.11351888973E+03  0.13958834703E+03  0.67968856286E+02 0.  0.
          5    1    5    5  501    0 -0.98849849585E+02 -0.46619230460E+01  0.12543594620E+03  0.15984146173E+03  0.47000000000E+01 0. -1.
        -13    1    6    6    0    0  0.17083906328E+02 -0.25121488410E+02  0.30318691108E+02  0.42920531985E+02  0.00000000000E+00 0.  1.
         14    1    6    6    0    0  0.23550109366E+02  0.43217887080E+02  0.83200198624E+02  0.96667815047E+02  0.00000000000E+00 0. -1.
         -5    1    3    3    0  503  0.51528124260E+02 -0.37251158421E+02  0.20017822233E+03  0.21008618966E+03  0.47000000000E+01 0.  1.
         13    1    4    4    0    0  0.42468570949E+02  0.20662393928E+02  0.18132530846E+02  0.50589551452E+02  0.00000000000E+00 0. -1.
        -14    1    4    4    0    0 -0.35780861317E+02  0.31542888684E+01  0.25957774265E+02  0.44317328661E+02  0.00000000000E+00 0.  1.
</event>
<event>
12    1  0.1628146E-001  0.2327442E+03  0.7818608E-02  0.1125599E+00
         21   -1    0    0  503  502  0.00000000000E+00  0.00000000000E+00  0.35089238300E+03  0.35089238300E+03  0.00000000000E+00 0.  1.
         21   -1    0    0  501  503 -0.00000000000E+00 -0.00000000000E+00 -0.16315546378E+03  0.16315546378E+03  0.00000000000E+00 0. -1.
          6    2    1    2  501    0  0.13807283996E+03  0.73855595967E+02  0.24889830778E+02  0.23407128393E+03  0.17219495954E+03 0.  0.
         24    2    3    3    0    0  0.52464847133E+02  0.10331666058E+03 -0.45609042668E+01  0.13875015007E+03  0.76183395561E+02 0.  0.
         -6    2    1    2    0  502 -0.13807283996E+03 -0.73855595967E+02  0.16284708845E+03  0.27997656285E+03  0.16537515938E+03 0.  0.
        -24    2    5    5    0    0 -0.53231185530E+01 -0.32337285915E+02  0.81452962129E+02  0.11875202253E+03  0.79958877952E+02 0.  0.
          5    1    3    3  501    0  0.85607992830E+02 -0.29461064614E+02  0.29450735045E+02  0.95321133854E+02  0.47000000000E+01 0. -1.
        -11    1    4    4    0    0  0.25277504144E+02 -0.35227739879E+01  0.10274058586E+02  0.27512150627E+02  0.00000000000E+00 0.  1.
         12    1    4    4    0    0  0.27187342990E+02  0.10683943457E+03 -0.14834962853E+02  0.11123799944E+03  0.00000000000E+00 0. -1.
         -5    1    5    5    0  502 -0.13274972141E+03 -0.41518310052E+02  0.81394126319E+02  0.16122454033E+03  0.47000000000E+01 0.  1.
         11    1    6    6    0    0 -0.89001863929E+01 -0.31550311528E+02 -0.41744146392E+01  0.33046349464E+02  0.00000000000E+00 0. -1.
        -12    1    6    6    0    0  0.35770678399E+01 -0.78697438695E+00  0.85627376768E+02  0.85705673063E+02  0.00000000000E+00 0.  1.
</event>
<event>
12    1  0.1628146E-001  0.2248489E+03  0.7818608E-02  0.1130404E+00
         21   -1    0    0  503  502  0.00000000000E+00  0.00000000000E+00  0.14687815161E+03  0.14687815161E+03  0.00000000000E+00 0. -1.
         21   -1    0    0  501  503 -0.00000000000E+00 -0.00000000000E+00 -0.46984809978E+03  0.46984809978E+03  0.00000000000E+00 0. -1.
          6    2    1    2  501    0 -0.13011981412E+03 -0.62558386166E+02 -0.16956600130E+01  0.22485531492E+03  0.17237261870E+03 0.  0.
         24    2    3    3    0    0 -0.39348521698E+02  0.28576065139E+02 -0.20181910180E+02  0.94821676242E+02  0.78860275984E+02 0.  0.
         -6    2    1    2    0  502  0.13011981412E+03  0.62558386166E+02 -0.32127428816E+03  0.39187093647E+03  0.17175839108E+03 0.  0.
        -24    2    5    5    0    0  0.33106621341E+02 -0.15213624388E+01 -0.56650141471E+02  0.10279343342E+03  0.79113137377E+02 0.  0.
          5    1    3    3  501    0 -0.90771292421E+02 -0.91134451306E+02  0.18486250167E+02  0.13003363868E+03  0.47000000000E+01 0. -1.
        -11    1    4    4    0    0  0.21070955742E+01 -0.20956823910E+02  0.10245380354E+02  0.23422129253E+02  0.00000000000E+00 0.  1.
         12    1    4    4    0    0 -0.41455617272E+02  0.49532889050E+02 -0.30427290534E+02  0.71399546989E+02  0.00000000000E+00 0. -1.
         -5    1    5    5    0  502  0.97013192778E+02  0.64079748605E+02 -0.26462414669E+03  0.28907750305E+03  0.47000000000E+01 0.  1.
         13    1    6    6    0    0  0.24655431453E+02 -0.39420863616E+02 -0.25618680645E+02  0.53086830630E+02  0.00000000000E+00 0. -1.
        -14    1    6    6    0    0  0.84511898874E+01  0.37899501178E+02 -0.31031460826E+02  0.49706602791E+02  0.00000000000E+00 0.  1.
</event>
<event>
12    1  0.1628146E-001  0.2365808E+03  0.7818608E-02  0.1122259E+00
         21   -1    0    0  501  502  0.00000000000E+00  0.00000000000E+00  0.47036162505E+02  0.47036162505E+02  0.00000000000E+00 0.  1.
         21   -1    0    0  502  503 -0.00000000000E+00 -0.00000000000E+00 -0.12594415474E+04  0.12594415474E+04  0.00000000000E+00 0.  1.
         -6    2    1    2    0  503  0.13034207518E+03  0.95215273733E+02 -0.44619220240E+03  0.50457179480E+03  0.17161063401E+03 0.  0.
        -24    2    3    3    0    0  0.15119320660E+03  0.68474761074E+02 -0.27368476605E+03  0.32870044894E+03  0.74782720835E+02 0.  0.
          6    2    1    2  501    0 -0.13034207518E+03 -0.95215273733E+02 -0.76621318244E+03  0.80190591506E+03  0.17296083586E+03 0.  0.
         24    2    5    5    0    0 -0.14968163468E+03 -0.11601264827E+03 -0.62534530471E+03  0.65812692380E+03  0.78808447460E+02 0.  0.
          5    1    5    5  501    0  0.19339559498E+02  0.20797374539E+02 -0.14086787774E+03  0.14377899126E+03  0.47000000000E+01 0. -1.
        -11    1    6    6    0    0 -0.26259204051E+02 -0.13263818487E+02 -0.32155311799E+02  0.43582551039E+02  0.00000000000E+00 0.  1.
         12    1    6    6    0    0 -0.12342243063E+03 -0.10274882979E+03 -0.59318999291E+03  0.61454437276E+03  0.00000000000E+00 0. -1.
         -5    1    3    3    0  503 -0.20851131422E+02  0.26740512660E+02 -0.17250743635E+03  0.17587134586E+03  0.47000000000E+01 0.  1.
         13    1    4    4    0    0  0.57413527252E+02  0.13781811395E+02 -0.16429823832E+03  0.17458568827E+03  0.00000000000E+00 0. -1.
        -14    1    4    4    0    0  0.93779679352E+02  0.54692949679E+02 -0.10938652774E+03  0.15411476066E+03  0.00000000000E+00 0.  1.
</event>
<event>
12    1  0.1628146E-001  0.1762838E+03  0.7818608E-02  0.1171453E+00
         21   -1    0    0  501  502  0.00000000000E+00  0.00000000000E+00  0.78886643393E+02  0.78886643393E+02  0.00000000000E+00 0. -1.
         21   -1    0    0  502  503 -0.00000000000E+00 -0.00000000000E+00 -0.51738526150E+03  0.51738526150E+03  0.00000000000E+00 0. -1.
         -6    2    1    2    0  503  0.37278856438E+02  0.16880756261E+01 -0.73603694782E+02  0.19103264085E+03  0.17228872061E+03 0.  0.
        -24    2    3    3    0    0  0.16979991383E+02 -0.86326100765E+01  0.38765836890E+02  0.76282642490E+02  0.62876143103E+02 0.  0.
          6    2    1    2  501    0 -0.37278856438E+02 -0.16880756261E+01 -0.36489492332E+03  0.40523926404E+03  0.17227301970E+03 0.  0.
         24    2    5    5    0    0 -0.56093975760E+00  0.63909999032E+02 -0.21225105827E+03  0.23502307109E+03  0.78105886957E+02 0.  0.
          5    1    5    5  501    0 -0.36717916681E+02 -0.65598074658E+02 -0.15264386505E+03  0.17021619295E+03  0.47000000000E+01 0. -1.
        -11    1    6    6    0    0 -0.37057232298E+02  0.43411028469E+02 -0.98877331489E+02  0.11416865831E+03  0.00000000000E+00 0.  1.
         12    1    6    6    0    0  0.36496292540E+02  0.20498970563E+02 -0.11337372678E+03  0.12085441278E+03  0.00000000000E+00 0. -1.
         -5    1    3    3    0  503  0.20298865055E+02  0.10320685703E+02 -0.11236953167E+03  0.11474999836E+03  0.47000000000E+01 0.  1.
         13    1    4    4    0    0  0.10265068801E+02  0.23678266572E+02  0.58227323021E+00  0.25814162537E+02  0.00000000000E+00 0. -1.
        -14    1    4    4    0    0  0.67149225822E+01 -0.32310876649E+02  0.38183563660E+02  0.50468479954E+02  0.00000000000E+00 0.  1.
</event>
<event>
12    1  0.1628146E-001  0.2335511E+03  0.7818608E-02  0.1125333E+00
         21   -1    0    0  503  502  0.00000000000E+00  0.00000000000E+00  0.47300227324E+02  0.47300227324E+02  0.00000000000E+00 0.  1.
         21   -1    0    0  501  503 -0.00000000000E+00 -0.00000000000E+00 -0.13025574973E+04  0.13025574973E+04  0.00000000000E+00 0. -1.
          6    2    1    2  501    0  0.14383213032E+03 -0.28300953744E+02 -0.88773411975E+03  0.91794225985E+03  0.18181721415E+03 0.  0.
         24    2    3    3    0    0  0.13319379900E+03 -0.69013854252E+02 -0.82577146594E+03  0.84289444291E+03  0.77903964926E+02 0.  0.
         -6    2    1    2    0  502 -0.14383213032E+03  0.28300953744E+02 -0.36752315019E+03  0.43191546474E+03  0.17317354606E+03 0.  0.
        -24    2    5    5    0    0 -0.57707532543E+02  0.64470823943E+02 -0.27850946835E+03  0.30279834190E+03  0.81441177841E+02 0.  0.
          5    1    3    3  501    0  0.10638331319E+02  0.40712900508E+02 -0.61962653802E+02  0.75047816939E+02  0.47000000000E+01 0. -1.
        -13    1    4    4    0    0  0.38447062753E+02  0.38015752380E+00 -0.90889506990E+02  0.98687504959E+02  0.00000000000E+00 0.  1.
         14    1    4    4    0    0  0.94746736251E+02 -0.69394011776E+02 -0.73488195895E+03  0.74420693795E+03  0.00000000000E+00 0. -1.
         -5    1    5    5    0  502 -0.86124597780E+02 -0.36169870199E+02 -0.89013681842E+02  0.12911712283E+03  0.47000000000E+01 0.  1.
         13    1    6    6    0    0 -0.24433946875E+02 -0.20349785983E+01 -0.16684923943E+03  0.16864112072E+03  0.00000000000E+00 0. -1.
        -14    1    6    6    0    0 -0.33273585668E+02  0.66505802542E+02 -0.11166022892E+03  0.13415722119E+03  0.00000000000E+00 0.  1.
</event>
<event>
12    1  0.1628146E-001  0.1748829E+03  0.7818608E-02  0.1172860E+00
         21   -1    0    0  503  502  0.00000000000E+00  0.00000000000E+00  0.77221871118E+03  0.77221871118E+03  0.00000000000E+00 0. -1.
         21   -1    0    0  501  503 -0.00000000000E+00 -0.00000000000E+00 -0.39828737074E+02  0.39828737074E+02  0.00000000000E+00 0. -1.
          6    2    1    2  501    0 -0.40705440822E+01  0.20968290642E+02  0.33507037672E+03  0.37794272862E+03  0.17352898956E+03 0.  0.
         24    2    3    3    0    0  0.60219407056E+01  0.21942716966E+02  0.59215124303E+02  0.10186118624E+03  0.79696447338E+02 0.  0.
         -6    2    1    2    0  502  0.40705440822E+01 -0.20968290642E+02  0.39731959738E+03  0.43410471963E+03  0.17357363452E+03 0.  0.
        -24    2    5    5    0    0 -0.21558730269E+02 -0.59993198719E+02  0.18070742499E+03  0.21246824614E+03  0.91780277988E+02 0.  0.
          5    1    3    3  501    0 -0.10092484788E+02 -0.97442632439E+00  0.27585525242E+03  0.27608154238E+03  0.47000000000E+01 0. -1.
        -13    1    4    4    0    0 -0.19138764468E+02 -0.13794918465E+02 -0.50649838121E+01  0.24129777078E+02  0.00000000000E+00 0.  1.
         14    1    4    4    0    0  0.25160705173E+02  0.35737635432E+02  0.64280108115E+02  0.77731409162E+02  0.00000000000E+00 0. -1.
         -5    1    5    5    0  502  0.25629274351E+02  0.39024908077E+02  0.21661217239E+03  0.22163647349E+03  0.47000000000E+01 0.  1.
         13    1    6    6    0    0 -0.38438473851E+02 -0.30629179636E+01  0.12585720340E+03  0.13163180993E+03  0.00000000000E+00 0. -1.
        -14    1    6    6    0    0  0.16879743582E+02 -0.56930280755E+02  0.54850221596E+02  0.80836436212E+02  0.00000000000E+00 0.  1.
</event>
<event>
12    1  0.1628146E-001  0.1744511E+03  0.7818608E-02  0.1173513E+00
         21   -1    0    0  503  502  0.00000000000E+00  0.00000000000E+00  0.40802344580E+02  0.40802344580E+02  0.00000000000E+00 0.  1.
         21   -1    0    0  501  503 -0.00000000000E+00 -0.00000000000E+00 -0.12211544541E+04  0.12211544541E+04  0.00000000000E+00 0.  1.
          6    2    1    2  501    0 -0.12738234715E+02  0.25097047075E+02 -0.98448659264E+03  0.99966592949E+03  0.17124834333E+03 0.  0.
         24    2    3    3    0    0 -0.27507199008E+02 -0.49788558345E+02 -0.51376781841E+03  0.52277576329E+03  0.78112616827E+02 0.  0.
         -6    2    1    2    0  502  0.12738234715E+02 -0.25097047075E+02 -0.19586551692E+03  0.26229086923E+03  0.17216583566E+03 0.  0.
        -24    2    5    5    0    0  0.33531610506E+02  0.71842465745E+01 -0.20450449683E+03  0.22265290296E+03  0.81094042137E+02 0.  0.
          5    1    3    3  501    0  0.14768964293E+02  0.74885605421E+02 -0.47071877423E+03  0.47689016620E+03  0.47000000000E+01 0. -1.
        -13    1    4    4    0    0 -0.42566775147E+02 -0.34682241490E+02 -0.47790531655E+03  0.48104914490E+03  0.00000000000E+00 0.  1.
         14    1    4    4    0    0  0.15059576139E+02 -0.15106316855E+02 -0.35862501855E+02  0.41726618384E+02  0.00000000000E+00 0. -1.
         -5    1    5    5    0  502 -0.20793375792E+02 -0.32281293650E+02  0.86389799101E+01  0.39637966275E+02  0.47000000000E+01 0.  1.
         11    1    6    6    0    0  0.15805940910E+01 -0.29042312345E+02 -0.13444758584E+03  0.13755765163E+03  0.00000000000E+00 0. -1.
        -12    1    6    6    0    0  0.31951016415E+02  0.36226558919E+02 -0.70056910992E+02  0.85095251329E+02  0.00000000000E+00 0.  1.
</event>
<event>
12    1  0.1628146E-001  0.5881334E+03  0.7818608E-02  0.9931828E-01
         21   -1    0    0  501  502  0.00000000000E+00  0.00000000000E+00  0.30332424490E+03  0.30332424490E+03  0.00000000000E+00 0.  1.
         21   -1    0    0  502  503 -0.00000000000E+00 -0.00000000000E+00 -0.11492913170E+04  0.11492913170E+04  0.00000000000E+00 0. -1.
         -6    2    1    2    0  503  0.52256453276E+03  0.20526823013E+03 -0.50511644520E+03  0.77526995761E+03  0.17519174284E+03 0.  0.
        -24    2    3    3    0    0  0.23649577907E+03  0.25969431313E+02 -0.21269428969E+03  0.32859759655E+03  0.78312545073E+02 0.  0.
          6    2    1    2  501    0 -0.52256453276E+03 -0.20526823013E+03 -0.34085062686E+03  0.67734560424E+03  0.16555718211E+03 0.  0.
         24    2    5    5    0    0 -0.19093458125E+03 -0.13235177218E+03 -0.13254350680E+03  0.27896239570E+03  0.79241599569E+02 0.  0.
          5    1    5    5  501    0 -0.33162995151E+03 -0.72916457952E+02 -0.20830712006E+03  0.39838320854E+03  0.47000000000E+01 0. -1.
        -13    1    6    6    0    0 -0.10703059443E+03 -0.39913074302E+02 -0.31883917883E+02  0.11859673631E+03  0.00000000000E+00 0.  1.
         14    1    6    6    0    0 -0.83903986826E+02 -0.92438697879E+02 -0.10065958892E+03  0.16036565939E+03  0.00000000000E+00 0. -1.
         -5    1    3    3    0  503  0.28606875370E+03  0.17929879882E+03 -0.29242215552E+03  0.44667236106E+03  0.47000000000E+01 0.  1.
         11    1    4    4    0    0  0.17430785456E+03  0.45437289692E+02 -0.18367869056E+03  0.25726569305E+03  0.00000000000E+00 0. -1.
        -12    1    4    4    0    0  0.62187924508E+02 -0.19467858379E+02 -0.29015599127E+02  0.71331903502E+02  0.00000000000E+00 0.  1.
</event>
<event>
12    1  0.1628146E-001  0.3063357E+03  0.7818608E-02  0.1082327E+00
         21   -1    0    0  503  502  0.00000000000E+00  0.00000000000E+00  0.17130035817E+04  0.17130035817E+04  0.00000000000E+00 0.  1.
         21   -1    0    0  501  503 -0.00000000000E+00 -0.00000000000E+00 -0.14254044717E+03  0.14254044717E+03  0.00000000000E+00 0. -1.
          6    2    1    2  501    0 -0.24626463870E+03 -0.50602949396E+02  0.55127837534E+02  0.30955483261E+03  0.17198309557E+03 0.  0.
         24    2    3    3    0    0 -0.25828628922E+03 -0.62992339877E+02  0.30466551874E+02  0.27908704490E+03  0.79256077155E+02 0.  0.
         -6    2    1    2    0  502  0.24626463870E+03  0.50602949396E+02  0.15153352970E+04  0.15459891963E+04  0.17502743165E+03 0.  0.
        -24    2    5    5    0    0  0.18682817968E+03  0.20686285772E+02  0.72986587673E+03  0.75769229812E+03  0.77850687039E+02 0.  0.
          5    1    3    3  501    0  0.12021650521E+02  0.12389390480E+02  0.24661285659E+02  0.30467787713E+02  0.47000000000E+01 0. -1.
        -11    1    4    4    0    0 -0.26103038633E+02  0.16452763120E+02 -0.45962958450E+01  0.31195960887E+02  0.00000000000E+00 0.  1.
         12    1    4    4    0    0 -0.23218325059E+03 -0.79445102997E+02  0.35062847719E+02  0.24789108401E+03  0.00000000000E+00 0. -1.
         -5    1    5    5    0  502  0.59436459016E+02  0.29916663625E+02  0.78546942030E+03  0.78829689816E+03  0.47000000000E+01 0.  1.
         13    1    6    6    0    0  0.11412304469E+02 -0.17455222215E+02  0.43523633253E+02  0.48262118969E+02  0.00000000000E+00 0. -1.
        -14    1    6    6    0    0  0.17541587521E+03  0.38141507987E+02  0.68634224348E+03  0.70943017915E+03  0.00000000000E+00 0.  1.
</event>
<event>
12    1  0.1628146E-001  0.2218177E+03  0.7818608E-02  0.1132577E+00
         21   -1    0    0  501  502  0.00000000000E+00  0.00000000000E+00  0.23288467989E+03  0.23288467989E+03  0.00000000000E+00 0.  1.
         21   -1    0    0  502  503 -0.00000000000E+00 -0.00000000000E+00 -0.68210367632E+03  0.68210367632E+03  0.00000000000E+00 0.  1.
         -6    2    1    2    0  503 -0.27766772217E+02 -0.13673672894E+03 -0.60475459532E+03  0.64407436005E+03  0.17215032393E+03 0.  0.
        -24    2    3    3    0    0 -0.14648126600E+02 -0.96220638573E+01 -0.13441805917E+03  0.15666407684E+03  0.78538313033E+02 0.  0.
          6    2    1    2  501    0  0.27766772217E+02  0.13673672894E+03  0.15553559889E+03  0.27091399616E+03  0.17243881266E+03 0.  0.
         24    2    5    5    0    0  0.54509357403E+02  0.55836842097E+02  0.14631957298E+03  0.18508286727E+03  0.82202356043E+02 0.  0.
          5    1    5    5  501    0 -0.26742585186E+02  0.80899886840E+02  0.92160259113E+01  0.85831128891E+02  0.47000000000E+01 0. -1.
        -11    1    6    6    0    0  0.49376821011E+02  0.72353842804E+02  0.87654298746E+02  0.12392104386E+03  0.00000000000E+00 0.  1.
         12    1    6    6    0    0  0.51325363926E+01 -0.16517000707E+02  0.58665274231E+02  0.61161823409E+02  0.00000000000E+00 0. -1.
         -5    1    3    3    0  503 -0.13118645617E+02 -0.12711466508E+03 -0.47033653615E+03  0.48741028321E+03  0.47000000000E+01 0.  1.
         13    1    4    4    0    0 -0.72237514533E+01 -0.34739846440E+02 -0.23178514776E+02  0.42382579711E+02  0.00000000000E+00 0. -1.
        -14    1    4    4    0    0 -0.74243751469E+01  0.25117782583E+02 -0.11123954439E+03  0.11428149713E+03  0.00000000000E+00 0.  1.
</event>
<event>
12    1  0.1628146E-001  0.2264090E+03  0.7818608E-02  0.1131704E+00
         21   -1    0    0  501  502  0.00000000000E+00  0.00000000000E+00  0.32991446139E+02  0.32991446139E+02  0.00000000000E+00 0. -1.
         21   -1    0    0  502  503 -0.00000000000E+00 -0.00000000000E+00 -0.14648074934E+04  0.14648074934E+04  0.00000000000E+00 0. -1.
         -6    2    1    2    0  503  0.11792890858E+03  0.42309863947E+02 -0.66302580450E+03  0.69636304492E+03  0.17210729453E+03 0.  0.
        -24    2    3    3    0    0  0.36577503136E+02 -0.23397014970E+02 -0.17435113189E+03  0.19660263157E+03  0.79805660840E+02 0.  0.
          6    2    1    2  501    0 -0.11792890858E+03 -0.42309863947E+02 -0.76879024279E+03  0.80143589465E+03  0.18858341327E+03 0.  0.
         24    2    5    5    0    0 -0.74221319729E+01  0.16045746068E+02 -0.47630269063E+03  0.48333499389E+03  0.80224118620E+02 0.  0.
          5    1    5    5  501    0 -0.11050677660E+03 -0.58355610014E+02 -0.29248755216E+03  0.31810090076E+03  0.47000000000E+01 0. -1.
        -11    1    6    6    0    0 -0.21091730284E+02 -0.20298286758E+02 -0.34941390364E+03  0.35063792948E+03  0.00000000000E+00 0.  1.
         12    1    6    6    0    0  0.13669598311E+02  0.36344032826E+02 -0.12688878699E+03  0.13269706441E+03  0.00000000000E+00 0. -1.
         -5    1    3    3    0  503  0.81351405440E+02  0.65706878917E+02 -0.48867467261E+03  0.49976041335E+03  0.47000000000E+01 0.  1.
         13    1    4    4    0    0  0.54207443726E+02 -0.19235312885E+02 -0.16772610903E+03  0.17731466907E+03  0.00000000000E+00 0. -1.
        -14    1    4    4    0    0 -0.17629940590E+02 -0.41617020857E+01 -0.66250228648E+01  0.19287962500E+02  0.00000000000E+00 0.  1.
</event>
<event>
12    1  0.1628146E-001  0.2055530E+03  0.7818608E-02  0.1149142E+00
         21   -1    0    0  503  502  0.00000000000E+00  0.00000000000E+00  0.12570693107E+04  0.12570693107E+04  0.00000000000E+00 0.  1.
         21   -1    0    0  501  503 -0.00000000000E+00 -0.00000000000E+00 -0.48778925651E+02  0.48778925651E+02  0.00000000000E+00 0. -1.
          6    2    1    2  501    0 -0.35898974881E+02 -0.64058358657E+02  0.18801569784E+03  0.26507330382E+03  0.17181892810E+03 0.  0.
         24    2    3    3    0    0 -0.85208639313E+02 -0.28578966856E+02  0.15414335243E+03  0.19536207064E+03  0.79554358675E+02 0.  0.
         -6    2    1    2    0  502  0.35898974881E+02  0.64058358657E+02  0.10202746872E+04  0.10407749325E+04  0.19198909633E+03 0.  0.
        -24    2    5    5    0    0  0.98954452684E+02  0.59820531123E+02  0.61844120049E+03  0.63397498966E+03  0.78001855180E+02 0.  0.
          5    1    3    3  501    0  0.49309664432E+02 -0.35479391801E+02  0.33872345409E+02  0.69711233187E+02  0.47000000000E+01 0. -1.
        -13    1    4    4    0    0 -0.10860177769E+02  0.85452928419E+00  0.95700892185E+02  0.96318920501E+02  0.00000000000E+00 0.  1.
         14    1    4    4    0    0 -0.74348461544E+02 -0.29433496140E+02  0.58442460249E+02  0.99043150137E+02  0.00000000000E+00 0. -1.
         -5    1    5    5    0  502 -0.63055477803E+02  0.42378275339E+01  0.40183348668E+03  0.40679994283E+03  0.47000000000E+01 0.  1.
         13    1    6    6    0    0  0.40433870515E+02  0.33497990169E+01  0.37761398368E+03  0.37978736118E+03  0.00000000000E+00 0. -1.
        -14    1    6    6    0    0  0.58520582169E+02  0.56470732106E+02  0.24082721680E+03  0.25418762849E+03  0.00000000000E+00 0.  1.
</event>
<event>
12    1  0.1628146E-001  0.2092995E+03  0.7818608E-02  0.1144248E+00
         21   -1    0    0  503  502  0.00000000000E+00  0.00000000000E+00  0.11857359344E+03  0.11857359344E+03  0.00000000000E+00 0.  1.
         21   -1    0    0  501  503 -0.00000000000E+00 -0.00000000000E+00 -0.53366057837E+03  0.53366057837E+03  0.00000000000E+00 0. -1.
          6    2    1    2  501    0 -0.76176603049E+02  0.67991492171E+02 -0.39465386581E+03  0.44193961292E+03  0.17068459160E+03 0.  0.
         24    2    3    3    0    0 -0.10295078010E+03  0.56507756240E+02 -0.20230794914E+03  0.24734317306E+03  0.80362611545E+02 0.  0.
         -6    2    1    2    0  502  0.76176603049E+02 -0.67991492171E+02 -0.20433119117E+02  0.21029455889E+03  0.18270350649E+03 0.  0.
        -24    2    5    5    0    0  0.11394254963E+03 -0.34301646463E+02 -0.47851326110E+02  0.15254405673E+03  0.82585908402E+02 0.  0.
          5    1    3    3  501    0  0.26774177051E+02  0.11483735932E+02 -0.19234591667E+03  0.19459643986E+03  0.47000000000E+01 0. -1.
        -11    1    4    4    0    0  0.21504411350E+00  0.25686747548E+02 -0.11268238349E+02  0.28050462368E+02  0.00000000000E+00 0.  1.
         12    1    4    4    0    0 -0.10316582421E+03  0.30821008692E+02 -0.19103971079E+03  0.21929271069E+03  0.00000000000E+00 0. -1.
         -5    1    5    5    0  502 -0.37765946584E+02 -0.33689845708E+02  0.27418206992E+02  0.57750502162E+02  0.47000000000E+01 0.  1.
         11    1    6    6    0    0  0.14662401247E+02 -0.33576205331E+02  0.95495952919E+01  0.37862149239E+02  0.00000000000E+00 0. -1.
        -12    1    6    6    0    0  0.99280148386E+02 -0.72544113228E+00 -0.57400921402E+02  0.11468190749E+03  0.00000000000E+00 0.  1.
</event>
<event>
12    1  0.1628146E-001  0.2474332E+03  0.7818608E-02  0.1114958E+00
         21   -1    0    0  503  502  0.00000000000E+00  0.00000000000E+00  0.81249310984E+03  0.81249310984E+03  0.00000000000E+00 0.  1.
         21   -1    0    0  501  503 -0.00000000000E+00 -0.00000000000E+00 -0.98548851007E+02  0.98548851007E+02  0.00000000000E+00 0. -1.
          6    2    1    2  501    0  0.13578034214E+03 -0.11420213671E+03  0.13585983295E+03  0.28227836307E+03  0.17246666549E+03 0.  0.
         24    2    3    3    0    0  0.99287180625E+02 -0.12524134316E+03  0.15762638192E+03  0.23812536123E+03  0.79462400624E+02 0.  0.
         -6    2    1    2    0  502 -0.13578034214E+03  0.11420213671E+03  0.57808442589E+03  0.62876359778E+03  0.17228937605E+03 0.  0.
        -24    2    5    5    0    0 -0.81449566155E+01  0.81265704341E+02  0.25151509594E+03  0.27656306190E+03  0.80974247138E+02 0.  0.
          5    1    3    3  501    0  0.36493161518E+02  0.11039206443E+02 -0.21766548974E+02  0.44153001831E+02  0.47000000000E+01 0. -1.
        -11    1    4    4    0    0 -0.27202563868E+01  0.71899662401E+01  0.20567342461E+02  0.21957025874E+02  0.00000000000E+00 0.  1.
         12    1    4    4    0    0  0.10200743701E+03 -0.13243130940E+03  0.13705903946E+03  0.21616833536E+03  0.00000000000E+00 0. -1.
         -5    1    5    5    0  502 -0.12763538553E+03  0.32936432373E+02  0.32656932994E+03  0.35220053588E+03  0.47000000000E+01 0.  1.
         13    1    6    6    0    0  0.15771159249E+01  0.57011682826E+02  0.24219653621E+03  0.24882118364E+03  0.00000000000E+00 0. -1.
        -14    1    6    6    0    0 -0.97220725404E+01  0.24254021515E+02  0.93185597327E+01  0.27741878264E+02  0.00000000000E+00 0.  1.
</event>
<event>
12    1  0.1628146E-001  0.1904509E+03  0.7818608E-02  0.1158430E+00
         21   -1    0    0  501  502  0.00000000000E+00  0.00000000000E+00  0.33381946033E+03  0.33381946033E+03  0.00000000000E+00 0. -1.
         21   -1    0    0  502  503 -0.00000000000E+00 -0.00000000000E+00 -0.13404820718E+03  0.13404820718E+03  0.00000000000E+00 0. -1.
         -6    2    1    2    0  503  0.76577920354E+02 -0.96916745165E+01 -0.34517558960E+01  0.19048220567E+03  0.17410758059E+03 0.  0.
        -24    2    3    3    0    0  0.98078055724E+02 -0.17669275308E+02  0.47891390872E+02  0.13405431669E+03  0.75798853547E+02 0.  0.
          6    2    1    2  501    0 -0.76577920354E+02  0.96916745165E+01  0.20322300905E+03  0.27738546184E+03  0.17229334459E+03 0.  0.
         24    2    5    5    0    0 -0.79427744754E+02 -0.16039711159E+02  0.54354787843E+02  0.12620985867E+03  0.80052773180E+02 0.  0.
          5    1    5    5  501    0  0.28498243998E+01  0.25731385676E+02  0.14886822120E+03  0.15117560316E+03  0.47000000000E+01 0. -1.
        -13    1    6    6    0    0  0.15518720861E+02 -0.53665413724E+01  0.27651145138E+00  0.16422756226E+02  0.00000000000E+00 0.  1.
         14    1    6    6    0    0 -0.94946465615E+02 -0.10673169787E+02  0.54078276392E+02  0.10978710245E+03  0.00000000000E+00 0. -1.
         -5    1    3    3    0  503 -0.21500135369E+02  0.79776007911E+01 -0.51343146768E+02  0.56427888985E+02  0.47000000000E+01 0.  1.
         13    1    4    4    0    0  0.18857291026E+02  0.17691829303E+02 -0.12129613020E+02  0.28560913167E+02  0.00000000000E+00 0. -1.
        -14    1    4    4    0    0  0.79220764698E+02 -0.35361104611E+02  0.60021003892E+02  0.10549340352E+03  0.00000000000E+00 0.  1.
</event>
<event>
12    1  0.1628146E-001  0.2542377E+03  0.7818608E-02  0.1111686E+00
         21   -1    0    0  503  502  0.00000000000E+00  0.00000000000E+00  0.75659186026E+03  0.75659186026E+03  0.00000000000E+00 0. -1.
         21   -1    0    0  501  503 -0.00000000000E+00 -0.00000000000E+00 -0.15138289268E+03  0.15138289268E+03  0.00000000000E+00 0. -1.
          6    2    1    2  501    0 -0.14423947318E+03 -0.10755178671E+03 -0.41572268111E+01  0.24769908909E+03  0.17019149142E+03 0.  0.
         24    2    3    3    0    0 -0.11929891570E+03 -0.85483264534E+02  0.58479960915E+02  0.17660367176E+03  0.78926112596E+02 0.  0.
         -6    2    1    2    0  502  0.14423947318E+03  0.10755178671E+03  0.60936619438E+03  0.66027566385E+03  0.17962288543E+03 0.  0.
        -24    2    5    5    0    0  0.31638331132E+02  0.17072897066E+02  0.11075620099E+03  0.14114228776E+03  0.79760526110E+02 0.  0.
          5    1    3    3  501    0 -0.24940557485E+02 -0.22068522171E+02 -0.62637187726E+02  0.71095417325E+02  0.47000000000E+01 0. -1.
        -13    1    4    4    0    0 -0.63440572800E+01 -0.35866104005E+02 -0.67585952782E+01  0.37044609452E+02  0.00000000000E+00 0.  1.
         14    1    4    4    0    0 -0.11295485842E+03 -0.49617160529E+02  0.65238556193E+02  0.13955906231E+03  0.00000000000E+00 0. -1.
         -5    1    5    5    0  502  0.11260114205E+03  0.90478889639E+02  0.49860999340E+03  0.51913337609E+03  0.47000000000E+01 0.  1.
         11    1    6    6    0    0  0.63243755640E+01  0.47486162998E+02  0.61871630313E+02  0.78249805368E+02  0.00000000000E+00 0. -1.
        -12    1    6    6    0    0  0.25313955568E+02 -0.30413265932E+02  0.48884570676E+02  0.62892482391E+02  0.00000000000E+00 0.  1.
</event>
<event>
12    1  0.1628146E-001  0.1807292E+03  0.7818608E-02  0.1167256E+00
         21   -1    0    0  501  502  0.00000000000E+00  0.00000000000E+00  0.21279518874E+03  0.21279518874E+03  0.00000000000E+00 0. -1.
         21   -1    0    0  502  503 -0.00000000000E+00 -0.00000000000E+00 -0.38342533557E+03  0.38342533557E+03  0.00000000000E+00 0. -1.
         -6    2    1    2    0  503 -0.30075525743E+02  0.45892930215E+02 -0.31650585721E+03  0.36447083625E+03  0.17219853234E+03 0.  0.
        -24    2    3    3    0    0 -0.65209957960E+02 -0.81242082722E+01 -0.12407515022E+03  0.16148328351E+03  0.79773846424E+02 0.  0.
          6    2    1    2  501    0  0.30075525743E+02 -0.45892930215E+02  0.14587571038E+03  0.23174968806E+03  0.17151529595E+03 0.  0.
         24    2    5    5    0    0 -0.36035546670E+02 -0.57511594918E+02  0.11976152128E+03  0.15957138012E+03  0.80709721830E+02 0.  0.
          5    1    5    5  501    0  0.66111072413E+02  0.11618664704E+02  0.26114189094E+02  0.72178307941E+02  0.47000000000E+01 0. -1.
        -11    1    6    6    0    0 -0.58943508209E+02 -0.24742938408E+02  0.60029309165E+02  0.87693033474E+02  0.00000000000E+00 0.  1.
         12    1    6    6    0    0  0.22907961539E+02 -0.32768656510E+02  0.59732212118E+02  0.71878346641E+02  0.00000000000E+00 0. -1.
         -5    1    3    3    0  503  0.35134432216E+02  0.54017138487E+02 -0.19243070699E+03  0.20298755274E+03  0.47000000000E+01 0.  1.
         13    1    4    4    0    0 -0.65316700746E+02  0.15057592529E+02 -0.12069104309E+03  0.13805553365E+03  0.00000000000E+00 0. -1.
        -14    1    4    4    0    0  0.10674278653E+00 -0.23181800801E+02 -0.33841071313E+01  0.23427749860E+02  0.00000000000E+00 0.  1.
</event>
<event>
12    1  0.1628146E-001  0.2069698E+03  0.7818608E-02  0.1144423E+00
         21   -1    0    0  503  502  0.00000000000E+00  0.00000000000E+00  0.43410778742E+03  0.43410778742E+03  0.00000000000E+00 0. -1.
         21   -1    0    0  501  503 -0.00000000000E+00 -0.00000000000E+00 -0.98744615447E+02  0.98744615447E+02  0.00000000000E+00 0.  1.
          6    2    1    2  501    0 -0.11325907771E+03  0.15290114177E+02  0.19649706810E+03  0.28539028606E+03  0.17255466186E+03 0.  0.
         24    2    3    3    0    0 -0.24575567244E+02 -0.20064747927E+02  0.16151189392E+03  0.18360235104E+03  0.81346043636E+02 0.  0.
         -6    2    1    2    0  502  0.11325907771E+03 -0.15290114177E+02  0.13886610388E+03  0.24746211681E+03  0.16997734607E+03 0.  0.
        -24    2    5    5    0    0  0.57476401733E+01 -0.39066259229E+02  0.90006349330E+02  0.12690764826E+03  0.80282004763E+02 0.  0.
          5    1    3    3  501    0 -0.88683510463E+02  0.35354862104E+02  0.34985174172E+02  0.10178793501E+03  0.47000000000E+01 0. -1.
        -13    1    4    4    0    0  0.28848195465E+02 -0.16519538771E+02  0.52278435904E+02  0.61952791731E+02  0.00000000000E+00 0.  1.
         14    1    4    4    0    0 -0.53423762708E+02 -0.35452091567E+01  0.10923345802E+03  0.12164955931E+03  0.00000000000E+00 0. -1.
         -5    1    5    5    0  502  0.10751143753E+03  0.23776145052E+02  0.48859754550E+02  0.12055446856E+03  0.47000000000E+01 0.  1.
         13    1    6    6    0    0  0.14016431504E+02 -0.52927443378E+02  0.25474732717E+02  0.60388215917E+02  0.00000000000E+00 0. -1.
        -14    1    6    6    0    0 -0.82687913309E+01  0.13861184150E+02  0.64531616614E+02  0.66519432340E+02  0.00000000000E+00 0.  1.
</event>
<event>
12    1  0.1628146E-001  0.3792155E+03  0.7818608E-02  0.1051224E+00
         21   -1    0    0  503  502  0.00000000000E+00  0.00000000000E+00  0.96491938617E+02  0.96491938617E+02  0.00000000000E+00 0. -1.
         21   -1    0    0  501  503 -0.00000000000E+00 -0.00000000000E+00 -0.15044597352E+04  0.15044597352E+04  0.00000000000E+00 0.  1.
          6    2    1    2  501    0  0.31813878980E+03  0.11512352837E+03 -0.78159991212E+03  0.86873508222E+03  0.17127902410E+03 0.  0.
         24    2    3    3    0    0  0.14249139227E+03  0.90152153007E+01 -0.24499322977E+03  0.29420936139E+03  0.78437202366E+02 0.  0.
         -6    2    1    2    0  502 -0.31813878980E+03 -0.11512352837E+03 -0.62636788443E+03  0.73221659156E+03  0.17128541663E+03 0.  0.
        -24    2    5    5    0    0 -0.10147450073E+03 -0.40849249755E+02 -0.14012542011E+03  0.19470946907E+03  0.79441226574E+02 0.  0.
          5    1    3    3  501    0  0.17564739753E+03  0.10610831307E+03 -0.53660668234E+03  0.57452572083E+03  0.47000000000E+01 0. -1.
        -13    1    4    4    0    0  0.13195760773E+03  0.95375341476E+00 -0.24771228270E+03  0.28066901304E+03  0.00000000000E+00 0.  1.
         14    1    4    4    0    0  0.10533784541E+02  0.80614618860E+01  0.27190529237E+01  0.13540348344E+02  0.00000000000E+00 0. -1.
         -5    1    5    5    0  502 -0.21666428907E+03 -0.74274278614E+02 -0.48624246432E+03  0.53750712249E+03  0.47000000000E+01 0.  1.
         13    1    6    6    0    0 -0.28251375623E+01 -0.28725271075E+02 -0.61648345324E+02  0.68070853394E+02  0.00000000000E+00 0. -1.
        -14    1    6    6    0    0 -0.98649363173E+02 -0.12123978680E+02 -0.78477074787E+02  0.12663861568E+03  0.00000000000E+00 0.  1.
</event>
<event>
12    1  0.1628146E-001  0.2586513E+03  0.7818608E-02  0.1109095E+00
         21   -1    0    0  503  502  0.00000000000E+00  0.00000000000E+00  0.26526843851E+03  0.26526843851E+03  0.00000000000E+00 0.  1.
         21   -1    0    0  501  503 -0.00000000000E+00 -0.00000000000E+00 -0.24518593346E+03  0.24518593346E+03  0.00000000000E+00 0.  1.
          6    2    1    2  501    0 -0.14215915552E+03 -0.11536296400E+03  0.16822027398E+02  0.25919774041E+03  0.18270919262E+03 0.  0.
         24    2    3    3    0    0 -0.96023748565E+02 -0.96403143542E+02  0.81722421699E+02  0.17720931594E+03  0.78806478636E+02 0.  0.
         -6    2    1    2    0  502  0.14215915552E+03  0.11536296400E+03  0.32604776496E+01  0.25125663156E+03  0.17205064728E+03 0.  0.
        -24    2    5    5    0    0  0.24069394375E+02  0.83898845097E+02  0.36306552989E+02  0.12457073827E+03  0.81125526738E+02 0.  0.
          5    1    3    3  501    0 -0.46135406951E+02 -0.18959820462E+02 -0.64900394302E+02  0.81988424470E+02  0.47000000000E+01 0. -1.
        -13    1    4    4    0    0  0.94855316569E+01 -0.31026193210E+02  0.23799426479E+02  0.40236956603E+02  0.00000000000E+00 0.  1.
         14    1    4    4    0    0 -0.10550928022E+03 -0.65376950332E+02  0.57922995220E+02  0.13697235934E+03  0.00000000000E+00 0. -1.
         -5    1    5    5    0  502  0.11808976114E+03  0.31464118907E+02 -0.33046075339E+02  0.12668589330E+03  0.47000000000E+01 0.  1.
         13    1    6    6    0    0  0.44194921085E+01 -0.16282119618E+02  0.26630742380E+01  0.17080143271E+02  0.00000000000E+00 0. -1.
        -14    1    6    6    0    0  0.19649902267E+02  0.10018096472E+03  0.33643478751E+02  0.10749059500E+03  0.00000000000E+00 0.  1.
</event>
<event>
12    1  0.1628146E-001  0.1798911E+03  0.7818608E-02  0.1167987E+00
         21   -1    0    0  501  502  0.00000000000E+00  0.00000000000E+00  0.64863978100E+03  0.64863978100E+03  0.00000000000E+00 0.  1.
         21   -1    0    0  502  503 -0.00000000000E+00 -0.00000000000E+00 -0.57660617926E+02  0.57660617926E+02  0.00000000000E+00 0.  1.
         -6    2    1    2    0  503  0.48090565067E+02  0.17865446287E+02  0.16532968656E+03  0.24432504047E+03  0.17242083262E+03 0.  0.
        -24    2    3    3    0    0 -0.99533154157E+00 -0.25577454830E+02  0.15716299060E+03  0.17810196423E+03  0.79780368326E+02 0.  0.
          6    2    1    2  501    0 -0.48090565067E+02 -0.17865446287E+02  0.42564947651E+03  0.46197535846E+03  0.17208102263E+03 0.  0.
         24    2    5    5    0    0 -0.48110269294E+01 -0.50398327290E+02  0.37844633092E+03  0.38999109823E+03  0.79424769009E+02 0.  0.
          5    1    5    5  501    0 -0.43279538137E+02  0.32532881003E+02  0.47203145588E+02  0.71984260232E+02  0.47000000000E+01 0. -1.
        -11    1    6    6    0    0 -0.39379212737E+02 -0.33871735487E+02  0.16030292501E+03  0.16850829246E+03  0.00000000000E+00 0.  1.
         12    1    6    6    0    0  0.34568185808E+02 -0.16526591803E+02  0.21814340591E+03  0.22148280577E+03  0.00000000000E+00 0. -1.
         -5    1    3    3    0  503  0.49085896608E+02  0.43442901117E+02  0.81666959679E+01  0.66223076237E+02  0.47000000000E+01 0.  1.
         11    1    4    4    0    0 -0.21572382042E+02 -0.16663343523E+02  0.15285564113E+03  0.15526713016E+03  0.00000000000E+00 0. -1.
        -12    1    4    4    0    0  0.20577050501E+02 -0.89141113072E+01  0.43073494709E+01  0.22834834073E+02  0.00000000000E+00 0.  1.
</event>
<event>
12    1  0.1628146E-001  0.1847183E+03  0.7818608E-02  0.1165774E+00
         21   -1    0    0  501  502  0.00000000000E+00  0.00000000000E+00  0.23078949111E+03  0.23078949111E+03  0.00000000000E+00 0. -1.
         21   -1    0    0  502  503 -0.00000000000E+00 -0.00000000000E+00 -0.25487195533E+03  0.25487195533E+03  0.00000000000E+00 0. -1.
         -6    2    1    2    0  503 -0.11780482116E+02 -0.29982396932E+02 -0.17499042077E+03  0.24713668827E+03  0.17151434762E+03 0.  0.
        -24    2    3    3    0    0 -0.57552101152E+01  0.47352971177E+02 -0.66692926429E+02  0.11384190088E+03  0.78972182682E+02 0.  0.
          6    2    1    2  501    0  0.11780482116E+02  0.29982396932E+02  0.15090795655E+03  0.23852475817E+03  0.18188767145E+03 0.  0.
         24    2    5    5    0    0 -0.17683075498E+01  0.87787728664E+02  0.66543865911E+02  0.13525609948E+03  0.78462182870E+02 0.  0.
          5    1    5    5  501    0  0.13548789666E+02 -0.57805331732E+02  0.84364090639E+02  0.10326865869E+03  0.47000000000E+01 0. -1.
        -11    1    6    6    0    0 -0.18006763392E+02  0.84047398916E+02  0.23514910445E+02  0.89113185363E+02  0.00000000000E+00 0.  1.
         12    1    6    6    0    0  0.16238455842E+02  0.37403297486E+01  0.43028955466E+02  0.46142914118E+02  0.00000000000E+00 0. -1.
         -5    1    3    3    0  503 -0.60252720007E+01 -0.77335368109E+02 -0.10829749435E+03  0.13329478739E+03  0.47000000000E+01 0.  1.
         13    1    4    4    0    0 -0.36493554542E+02  0.82665787502E+01 -0.10618310537E+02  0.38895557150E+02  0.00000000000E+00 0. -1.
        -14    1    4    4    0    0  0.30738344427E+02  0.39086392426E+02 -0.56074615893E+02  0.74946343730E+02  0.00000000000E+00 0.  1.
</event>
<event>
12    1  0.1628146E-001  0.3580569E+03  0.7818608E-02  0.1059538E+00
         21   -1    0    0  503  502  0.00000000000E+00  0.00000000000E+00  0.74788957351E+02  0.74788957351E+02  0.00000000000E+00 0.  1.
         21   -1    0    0  501  503 -0.00000000000E+00 -0.00000000000E+00 -0.17179578682E+04  0.17179578682E+04  0.00000000000E+00 0.  1.
          6    2    1    2  501    0  0.29945515963E+02 -0.31223411781E+03 -0.74326214710E+03  0.82422374468E+03  0.16887653400E+03 0.  0.
         24    2    3    3    0    0  0.40367591846E+02 -0.29974261055E+03 -0.56074825669E+03  0.64092598798E+03  0.69802146363E+02 0.  0.
         -6    2    1    2    0  502 -0.29945515963E+02  0.31223411781E+03 -0.89990676376E+03  0.96852308088E+03  0.17267859303E+03 0.  0.
        -24    2    5    5    0    0  0.35649668249E+02  0.10453523334E+03 -0.41951609941E+03  0.44103958806E+03  0.79521360145E+02 0.  0.
          5    1    3    3  501    0 -0.10422075883E+02 -0.12491507255E+02 -0.18251389040E+03  0.18329775669E+03  0.47000000000E+01 0. -1.
        -13    1    4    4    0    0  0.11254108354E+02 -0.22242305769E+03 -0.45633095445E+03  0.50777614314E+03  0.00000000000E+00 0.  1.
         14    1    4    4    0    0  0.29113483492E+02 -0.77319552860E+02 -0.10441730224E+03  0.13314984485E+03  0.00000000000E+00 0. -1.
         -5    1    5    5    0  502 -0.65595184212E+02  0.20769888447E+03 -0.48039066435E+03  0.52748349282E+03  0.47000000000E+01 0.  1.
         11    1    6    6    0    0  0.52059818202E+02  0.84705067613E+02 -0.24139639606E+03  0.26106970943E+03  0.00000000000E+00 0. -1.
        -12    1    6    6    0    0 -0.16410149953E+02  0.19830165725E+02 -0.17811970335E+03  0.17996987863E+03  0.00000000000E+00 0.  1.
</event>
<event>
12    1  0.1628146E-001  0.1758024E+03  0.7818608E-02  0.1172502E+00
         21   -1    0    0  501  502  0.00000000000E+00  0.00000000000E+00  0.21186630504E+03  0.21186630504E+03  0.00000000000E+00 0. -1.
         21   -1    0    0  502  503 -0.00000000000E+00 -0.00000000000E+00 -0.29327827390E+03  0.29327827390E+03  0.00000000000E+00 0. -1.
         -6    2    1    2    0  503 -0.24421413819E+02  0.22918487228E+02 -0.22077477013E+03  0.28080451361E+03  0.17025866565E+03 0.  0.
        -24    2    3    3    0    0  0.33230086330E+02  0.46677045499E+02 -0.17287041798E+03  0.20203217383E+03  0.87463321653E+02 0.  0.
          6    2    1    2  501    0  0.24421413819E+02 -0.22918487228E+02  0.13936280127E+03  0.22434006533E+03  0.17258276862E+03 0.  0.
         24    2    5    5    0    0  0.23083111365E+02 -0.25849590838E+02  0.17172700188E+03  0.19147802183E+03  0.77282846027E+02 0.  0.
          5    1    5    5  501    0  0.13383024537E+01  0.29311036092E+01 -0.32364200614E+02  0.32862043503E+02  0.47000000000E+01 0. -1.
        -11    1    6    6    0    0  0.16734286645E+02  0.24994887182E+02  0.91190176836E+02  0.96023065386E+02  0.00000000000E+00 0.  1.
         12    1    6    6    0    0  0.63488247204E+01 -0.50844478019E+02  0.80536825046E+02  0.95454956439E+02  0.00000000000E+00 0. -1.
         -5    1    3    3    0  503 -0.57651500149E+02 -0.23758558270E+02 -0.47904352149E+02  0.78772339786E+02  0.47000000000E+01 0.  1.
         13    1    4    4    0    0 -0.10800932831E+02  0.41605537999E+02 -0.14109290741E+03  0.14749538794E+03  0.00000000000E+00 0. -1.
        -14    1    4    4    0    0  0.44031019161E+02  0.50715074995E+01 -0.31777510566E+02  0.54536785883E+02  0.00000000000E+00 0.  1.
</event>
<event>
12    1  0.1628146E-001  0.2157470E+03  0.7818608E-02  0.1137341E+00
         21   -1    0    0  503  502  0.00000000000E+00  0.00000000000E+00  0.14694669791E+04  0.14694669791E+04  0.00000000000E+00 0.  1.
         21   -1    0    0  501  503 -0.00000000000E+00 -0.00000000000E+00 -0.83536219093E+02  0.83536219093E+02  0.00000000000E+00 0.  1.
          6    2    1    2  501    0 -0.12838013083E+03 -0.16581977850E+02  0.79252403975E+02  0.22863349585E+03  0.17098512189E+03 0.  0.
         24    2    3    3    0    0 -0.11844515285E+03 -0.53205979372E+02  0.10235971180E+03  0.18395622031E+03  0.80636529661E+02 0.  0.
         -6    2    1    2    0  502  0.12838013083E+03  0.16581977850E+02  0.13066783560E+04  0.13243697023E+04  0.17259884812E+03 0.  0.
        -24    2    5    5    0    0  0.97561923885E+01 -0.14941329636E+02  0.72440130436E+03  0.72927810217E+03  0.82285320243E+02 0.  0.
          5    1    3    3  501    0 -0.99349779835E+01  0.36624001522E+02 -0.23107307829E+02  0.44677275545E+02  0.47000000000E+01 0. -1.
        -11    1    4    4    0    0 -0.86160317976E+02 -0.70475640684E+01  0.28409938886E+02  0.90996665766E+02  0.00000000000E+00 0.  1.
         12    1    4    4    0    0 -0.32284834869E+02 -0.46158415304E+02  0.73949772919E+02  0.92959554542E+02  0.00000000000E+00 0. -1.
         -5    1    5    5    0  502  0.11862393844E+03  0.31523307486E+02  0.58227705164E+03  0.59509160014E+03  0.47000000000E+01 0.  1.
         13    1    6    6    0    0 -0.26062076177E+02  0.14454919883E+02  0.45052536524E+03  0.45151000127E+03  0.00000000000E+00 0. -1.
        -14    1    6    6    0    0  0.35818268566E+02 -0.29396249519E+02  0.27387593911E+03  0.27776810089E+03  0.00000000000E+00 0.  1.
</event>
<event>
12    1  0.1628146E-001  0.1855096E+03  0.7818608E-02  0.1162638E+00
         21   -1    0    0  503  502  0.00000000000E+00  0.00000000000E+00  0.76752695543E+02  0.76752695543E+02  0.00000000000E+00 0.  1.
         21   -1    0    0  501  503 -0.00000000000E+00 -0.00000000000E+00 -0.44809249767E+03  0.44809249767E+03  0.00000000000E+00 0.  1.
          6    2    1    2  501    0  0.13676537640E+02 -0.67614037989E+02 -0.17819567642E+03  0.25723045704E+03  0.17220657107E+03 0.  0.
         24    2    3    3    0    0  0.38579116177E+02 -0.92520087859E+02 -0.75667864422E+02  0.14872012587E+03  0.79647569132E+02 0.  0.
         -6    2    1    2    0  502 -0.13676537640E+02  0.67614037989E+02 -0.19314412570E+03  0.26761473617E+03  0.17191360594E+03 0.  0.
        -24    2    5    5    0    0 -0.35535595697E+02 -0.11137874827E+02 -0.15180211794E+03  0.17590359292E+03  0.80692999520E+02 0.  0.
          5    1    3    3  501    0 -0.24902578537E+02  0.24906049871E+02 -0.10252781200E+03  0.10851033118E+03  0.47000000000E+01 0. -1.
        -11    1    4    4    0    0  0.56348430489E-01  0.70036974379E+01 -0.33086142545E+02  0.33819340347E+02  0.00000000000E+00 0.  1.
         12    1    4    4    0    0  0.38522767747E+02 -0.99523785297E+02 -0.42581721877E+02  0.11490078552E+03  0.00000000000E+00 0. -1.
         -5    1    5    5    0  502  0.21859058057E+02  0.78751912816E+02 -0.41342007757E+02  0.91711143252E+02  0.47000000000E+01 0.  1.
         11    1    6    6    0    0 -0.44940867665E+02  0.24647280866E+02 -0.98189856158E+02  0.11076289041E+03  0.00000000000E+00 0. -1.
        -12    1    6    6    0    0  0.94052719676E+01 -0.35785155693E+02 -0.53612261784E+02  0.65140702502E+02  0.00000000000E+00 0.  1.
</event>
<event>
12    1  0.1628146E-001  0.2960593E+03  0.7818608E-02  0.1087386E+00
         21   -1    0    0  503  502  0.00000000000E+00  0.00000000000E+00  0.15392420001E+03  0.15392420001E+03  0.00000000000E+00 0. -1.
         21   -1    0    0  501  503 -0.00000000000E+00 -0.00000000000E+00 -0.59383636640E+03  0.59383636640E+03  0.00000000000E+00 0.  1.
          6    2    1    2  501    0  0.20144115746E+03 -0.13262744365E+03 -0.14098336072E+03  0.32791377031E+03  0.17170484568E+03 0.  0.
         24    2    3    3    0    0  0.27467396239E+02 -0.32424452732E+02 -0.18282851377E+02  0.92573561304E+02  0.80186025010E+02 0.  0.
         -6    2    1    2    0  502 -0.20144115746E+03  0.13262744365E+03 -0.29892880568E+03  0.41984679610E+03  0.16954150703E+03 0.  0.
        -24    2    5    5    0    0 -0.15431182698E+03  0.16092689664E+03 -0.21837751437E+03  0.32221159056E+03  0.80137159271E+02 0.  0.
          5    1    3    3  501    0  0.17397376122E+03 -0.10020299092E+03 -0.12270050934E+03  0.23534020901E+03  0.47000000000E+01 0. -1.
        -11    1    4    4    0    0 -0.11982742906E+01 -0.34289683734E+02  0.23702379365E+02  0.41701571427E+02  0.00000000000E+00 0.  1.
         12    1    4    4    0    0  0.28665670530E+02  0.18652310024E+01 -0.41985230742E+02  0.50871989878E+02  0.00000000000E+00 0. -1.
         -5    1    5    5    0  502 -0.47129330478E+02 -0.28299452991E+02 -0.80551291303E+02  0.97635205543E+02  0.47000000000E+01 0.  1.
         13    1    6    6    0    0 -0.38493355107E+02  0.60642070044E+01 -0.15510839971E+02  0.41941615975E+02  0.00000000000E+00 0. -1.
        -14    1    6    6    0    0 -0.11581847188E+03  0.15486268964E+03 -0.20286667440E+03  0.28026997458E+03  0.00000000000E+00 0.  1.
</event>
<event>
12    1  0.1628146E-001  0.1895243E+03  0.7818608E-02  0.1160585E+00
         21   -1    0    0  501  502  0.00000000000E+00  0.00000000000E+00  0.31703947504E+03  0.31703947504E+03  0.00000000000E+00 0. -1.
         21   -1    0    0  502  503 -0.00000000000E+00 -0.00000000000E+00 -0.13243165385E+03  0.13243165385E+03  0.00000000000E+00 0. -1.
         -6    2    1    2    0  503  0.59317136222E+02 -0.53420526664E+02 -0.37998010550E+01  0.18223173839E+03  0.16377329657E+03 0.  0.
        -24    2    3    3    0    0  0.81623503252E+02 -0.33256013463E+02 -0.46430114940E+02  0.12985220742E+03  0.83291545098E+02 0.  0.
          6    2    1    2  501    0 -0.59317136222E+02  0.53420526664E+02  0.18840762224E+03  0.26723939050E+03  0.17189294459E+03 0.  0.
         24    2    5    5    0    0 -0.58717604068E+01  0.11552662346E+02  0.18179244974E+02  0.83911496593E+02  0.80887036879E+02 0.  0.
          5    1    5    5  501    0 -0.53445375815E+02  0.41867864318E+02  0.17022837727E+03  0.18332789391E+03  0.47000000000E+01 0. -1.
        -13    1    6    6    0    0  0.36983279224E+02  0.10091447591E+02  0.14067084539E+02  0.40834827342E+02  0.00000000000E+00 0.  1.
         14    1    6    6    0    0 -0.42855039631E+02  0.14612147555E+01  0.41121604356E+01  0.43076669251E+02  0.00000000000E+00 0. -1.
         -5    1    3    3    0  503 -0.22306367030E+02 -0.20164513201E+02  0.42630313885E+02  0.52379530970E+02  0.47000000000E+01 0.  1.
         13    1    4    4    0    0  0.73272691318E+02  0.12863774874E+02 -0.29035195995E+02  0.79858666427E+02  0.00000000000E+00 0. -1.
        -14    1    4    4    0    0  0.83508119332E+01 -0.46119788337E+02 -0.17394918945E+02  0.49993540996E+02  0.00000000000E+00 0.  1.
</event>
<event>
12    1  0.1628146E-001  0.2841729E+03  0.7818608E-02  0.1093629E+00
         21   -1    0    0  501  502  0.00000000000E+00  0.00000000000E+00  0.49122884214E+03  0.49122884214E+03  0.00000000000E+00 0.  1.
         21   -1    0    0  502  503 -0.00000000000E+00 -0.00000000000E+00 -0.17732143522E+03  0.17732143522E+03  0.00000000000E+00 0.  1.
         -6    2    1    2    0  503 -0.19816818078E+03  0.10606124772E+03  0.63401994045E+02  0.28972686998E+03  0.17147078526E+03 0.  0.
        -24    2    3    3    0    0 -0.11674795542E+03  0.41077059232E+01  0.75805059972E+02  0.15857922865E+03  0.75855166591E+02 0.  0.
          6    2    1    2  501    0  0.19816818078E+03 -0.10606124772E+03  0.25050541288E+03  0.37882340738E+03  0.17388098215E+03 0.  0.
         24    2    5    5    0    0  0.18149954069E+03 -0.87017075915E+02  0.27185018854E+03  0.34538370806E+03  0.69809211512E+02 0.  0.
          5    1    5    5  501    0  0.16668640091E+02 -0.19044171800E+02 -0.21344775666E+02  0.33439699315E+02  0.47000000000E+01 0. -1.
        -13    1    6    6    0    0  0.14301699073E+03 -0.63968303582E+02  0.15573569201E+03  0.22090588328E+03  0.00000000000E+00 0.  1.
         14    1    6    6    0    0  0.38482549955E+02 -0.23048772332E+02  0.11611449653E+03  0.12447782478E+03  0.00000000000E+00 0. -1.
         -5    1    3    3    0  503 -0.81420225356E+02  0.10195354179E+03 -0.12403065927E+02  0.13114764133E+03  0.47000000000E+01 0.  1.
         11    1    4    4    0    0 -0.40200034515E+01 -0.10249088315E+02 -0.11012876578E+02  0.15572016233E+02  0.00000000000E+00 0. -1.
        -12    1    4    4    0    0 -0.11272795197E+03  0.14356794239E+02  0.86817936550E+02  0.14300721242E+03  0.00000000000E+00 0.  1.
</event>
<event>
12    1  0.1628146E-001  0.1735231E+03  0.7818608E-02  0.1174265E+00
         21   -1    0    0  503  502  0.00000000000E+00  0.00000000000E+00  0.15251953393E+03  0.15251953393E+03  0.00000000000E+00 0.  1.
         21   -1    0    0  501  503 -0.00000000000E+00 -0.00000000000E+00 -0.37601077781E+03  0.37601077781E+03  0.00000000000E+00 0.  1.
          6    2    1    2  501    0 -0.20065061360E+02 -0.15336401007E+02 -0.29399607803E+03  0.34138535595E+03  0.17167543643E+03 0.  0.
         24    2    3    3    0    0 -0.22803332256E+02  0.32591595325E+02 -0.27569269657E+03  0.28979374100E+03  0.79948391681E+02 0.  0.
         -6    2    1    2    0  502  0.20065061360E+02  0.15336401007E+02  0.70504834153E+02  0.18714495579E+03  0.17150653327E+03 0.  0.
        -24    2    5    5    0    0 -0.20333678072E+02 -0.49258606751E+02  0.28645198114E+02  0.10008812203E+03  0.79732151566E+02 0.  0.
          5    1    3    3  501    0  0.27382708960E+01 -0.47927996332E+02 -0.18303381463E+02  0.51591614948E+02  0.47000000000E+01 0. -1.
        -11    1    4    4    0    0  0.12597386005E+02  0.28503910074E+02 -0.22871917604E+03  0.23083246850E+03  0.00000000000E+00 0.  1.
         12    1    4    4    0    0 -0.35400718261E+02  0.40876852509E+01 -0.46973520527E+02  0.58961272500E+02  0.00000000000E+00 0. -1.
         -5    1    5    5    0  502  0.40398739432E+02  0.64595007758E+02  0.41859636039E+02  0.87056833759E+02  0.47000000000E+01 0.  1.
         11    1    6    6    0    0  0.44303146286E+01 -0.49132319242E+02 -0.13553444853E+02  0.51159635937E+02  0.00000000000E+00 0. -1.
        -12    1    6    6    0    0 -0.24763992701E+02 -0.12628750833E+00  0.42198642967E+02  0.48928486092E+02  0.00000000000E+00 0.  1.
</event>
<event>
12    1  0.1628146E-001  0.4790068E+03  0.7818608E-02  0.1019554E+00
         21   -1    0    0  503  502  0.00000000000E+00  0.00000000000E+00  0.21478424088E+04  0.21478424088E+04  0.00000000000E+00 0. -1.
         21   -1    0    0  501  503 -0.00000000000E+00 -0.00000000000E+00 -0.11074151320E+03  0.11074151320E+03  0.00000000000E+00 0.  1.
          6    2    1    2  501    0  0.41431775836E+03 -0.16035134384E+03  0.79171848890E+03  0.92425829769E+03  0.17338822570E+03 0.  0.
         24    2    3    3    0    0  0.14960002425E+03 -0.36970001644E+02  0.39753071654E+03  0.43364182402E+03  0.79168255436E+02 0.  0.
         -6    2    1    2    0  502 -0.41431775836E+03  0.16035134384E+03  0.12453824067E+04  0.13343256243E+04  0.17909710881E+03 0.  0.
        -24    2    5    5    0    0 -0.31118536137E+03  0.15497649429E+03  0.78604023433E+03  0.86349391166E+03  0.83117041371E+02 0.  0.
          5    1    3    3  501    0  0.26471773412E+03 -0.12338134219E+03  0.39418777236E+03  0.49061647367E+03  0.47000000000E+01 0. -1.
        -11    1    4    4    0    0  0.82382564230E+02  0.14638551763E+02  0.14673306209E+03  0.16891348554E+03  0.00000000000E+00 0.  1.
         12    1    4    4    0    0  0.67217460016E+02 -0.51608553407E+02  0.25079765445E+03  0.26472833848E+03  0.00000000000E+00 0. -1.
         -5    1    5    5    0  502 -0.10313239699E+03  0.53748495487E+01  0.45934217233E+03  0.47083171261E+03  0.47000000000E+01 0.  1.
         11    1    6    6    0    0 -0.22964588661E+03  0.13657108051E+03  0.66231150042E+03  0.71417464031E+03  0.00000000000E+00 0. -1.
        -12    1    6    6    0    0 -0.81539474767E+02  0.18405413778E+02  0.12372873391E+03  0.14931927135E+03  0.00000000000E+00 0.  1.
</event>
<event>
12    1  0.1628146E-001  0.2032955E+03  0.7818608E-02  0.1146990E+00
         21   -1    0    0  503  502  0.00000000000E+00  0.00000000000E+00  0.57833731030E+03  0.57833731030E+03  0.00000000000E+00 0.  1.
         21   -1    0    0  501  503 -0.00000000000E+00 -0.00000000000E+00 -0.74700780580E+02  0.74700780580E+02  0.00000000000E+00 0. -1.
          6    2    1    2  501    0 -0.66231213659E+02  0.84521683230E+02  0.31985830369E+03  0.37899653766E+03  0.17262257246E+03 0.  0.
         24    2    3    3    0    0 -0.75167848154E+02  0.11856259482E+03  0.21981271157E+03  0.27283695213E+03  0.80094194502E+02 0.  0.
         -6    2    1    2    0  502  0.66231213659E+02 -0.84521683230E+02  0.18377822603E+03  0.27404155322E+03  0.17260894510E+03 0.  0.
        -24    2    5    5    0    0 -0.31474748018E+02 -0.25640357165E+02  0.58612977513E+02  0.10462521710E+03  0.76569362297E+02 0.  0.
          5    1    3    3  501    0  0.89366344952E+01 -0.34040911591E+02  0.10004559212E+03  0.10615958553E+03  0.47000000000E+01 0. -1.
        -11    1    4    4    0    0 -0.27697392804E+02  0.39175823480E+02  0.14845084056E+03  0.15601135464E+03  0.00000000000E+00 0.  1.
         12    1    4    4    0    0 -0.47470455351E+02  0.79386771341E+02  0.71361871013E+02  0.11682559749E+03  0.00000000000E+00 0. -1.
         -5    1    5    5    0  502  0.97705961677E+02 -0.58881326065E+02  0.12516524852E+03  0.16941633612E+03  0.47000000000E+01 0.  1.
         11    1    6    6    0    0  0.12385202028E+02 -0.31790603187E+02  0.40617585743E+01  0.34358893506E+02  0.00000000000E+00 0. -1.
        -12    1    6    6    0    0 -0.43859950045E+02  0.61502460216E+01  0.54551218938E+02  0.70266323596E+02  0.00000000000E+00 0.  1.
</event>
<event>
12    1  0.1628146E-001  0.1858956E+03  0.7818608E-02  0.1162244E+00
         21   -1    0    0  501  502  0.00000000000E+00  0.00000000000E+00  0.15078604180E+02  0.15078604180E+02  0.00000000000E+00 0.  1.
         21   -1    0    0  502  503 -0.00000000000E+00 -0.00000000000E+00 -0.36787594761E+04  0.36787594761E+04  0.00000000000E+00 0.  1.
         -6    2    1    2    0  503  0.42780457896E+02 -0.57172485683E+02 -0.29668484706E+04  0.29726666532E+04  0.17163427182E+03 0.  0.
        -24    2    3    3    0    0 -0.40742523692E+02 -0.48634491558E+02 -0.15590061706E+04  0.15623152724E+04  0.79394605984E+02 0.  0.
          6    2    1    2  501    0 -0.42780457896E+02  0.57172485683E+02 -0.69683240134E+03  0.72117142703E+03  0.17150501716E+03 0.  0.
         24    2    5    5    0    0 -0.32937851018E+01  0.95999655420E+02 -0.43023697202E+03  0.44884449231E+03  0.84443728761E+02 0.  0.
          5    1    5    5  501    0 -0.39486672794E+02 -0.38827169737E+02 -0.26659542933E+03  0.27232693472E+03  0.47000000000E+01 0. -1.
        -11    1    6    6    0    0  0.26212821409E+01  0.23403810705E+02 -0.16524290958E+02  0.28769109601E+02  0.00000000000E+00 0.  1.
         12    1    6    6    0    0 -0.59150672428E+01  0.72595844715E+02 -0.41371268106E+03  0.42007538271E+03  0.00000000000E+00 0. -1.
         -5    1    3    3    0  503  0.83522981588E+02 -0.85379941252E+01 -0.14078423000E+04  0.14103513808E+04  0.47000000000E+01 0.  1.
         13    1    4    4    0    0 -0.17455868240E+02 -0.36585637098E+02 -0.26849718861E+03  0.27153997214E+03  0.00000000000E+00 0. -1.
        -14    1    4    4    0    0 -0.23286655452E+02 -0.12048854459E+02 -0.12905089820E+04  0.12907753003E+04  0.00000000000E+00 0.  1.
</event>
<event>
12    1  0.1628146E-001  0.1877456E+03  0.7818608E-02  0.1165008E+00
         21   -1    0    0  503  502  0.00000000000E+00  0.00000000000E+00  0.45274027109E+02  0.45274027109E+02  0.00000000000E+00 0.  1.
         21   -1    0    0  501  503 -0.00000000000E+00 -0.00000000000E+00 -0.84067667943E+03  0.84067667943E+03  0.00000000000E+00 0.  1.
          6    2    1    2  501    0  0.60927971103E+02  0.46773565246E+02 -0.59380714303E+03  0.62278033935E+03  0.17131387536E+03 0.  0.
         24    2    3    3    0    0  0.92536854361E+02  0.65526301768E+02 -0.53884091337E+03  0.55649185595E+03  0.80479128832E+02 0.  0.
         -6    2    1    2    0  502 -0.60927971103E+02 -0.46773565246E+02 -0.20159550929E+03  0.26317036719E+03  0.15072461224E+03 0.  0.
        -24    2    5    5    0    0 -0.34892953966E+02 -0.77729881684E+01 -0.19716700677E+03  0.21583572064E+03  0.80201572079E+02 0.  0.
          5    1    3    3  501    0 -0.31608883259E+02 -0.18752736522E+02 -0.54966229665E+02  0.66288483400E+02  0.47000000000E+01 0. -1.
        -13    1    4    4    0    0  0.42392350654E+02  0.61955833743E+02 -0.43125498182E+03  0.43774021528E+03  0.00000000000E+00 0.  1.
         14    1    4    4    0    0  0.50144503708E+02  0.35704680246E+01 -0.10758593155E+03  0.11875164066E+03  0.00000000000E+00 0. -1.
         -5    1    5    5    0  502 -0.26035017137E+02 -0.39000577077E+02 -0.44285025176E+01  0.47334646552E+02  0.47000000000E+01 0.  1.
         13    1    6    6    0    0 -0.37262383638E+02  0.24103438230E+02 -0.57919742533E+02  0.72966824955E+02  0.00000000000E+00 0. -1.
        -14    1    6    6    0    0  0.23694296716E+01 -0.31876426398E+02 -0.13924726424E+03  0.14286889568E+03  0.00000000000E+00 0.  1.
</event>
<event>
12    1  0.1628146E-001  0.2050697E+03  0.7818608E-02  0.1145537E+00
         21   -1    0    0  501  502  0.00000000000E+00  0.00000000000E+00  0.59930373784E+02  0.59930373784E+02  0.00000000000E+00 0.  1.
         21   -1    0    0  502  503 -0.00000000000E+00 -0.00000000000E+00 -0.11359589515E+04  0.11359589515E+04  0.00000000000E+00 0.  1.
         -6    2    1    2    0  503  0.83112753364E+02 -0.74359719773E+02 -0.90773311958E+03  0.93060279365E+03  0.17206116781E+03 0.  0.
        -24    2    3    3    0    0  0.50671404015E+02 -0.50183659563E+02 -0.86416351637E+03  0.87095949261E+03  0.81889339165E+02 0.  0.
          6    2    1    2  501    0 -0.83112753364E+02  0.74359719773E+02 -0.16829545818E+03  0.26528653168E+03  0.17209440708E+03 0.  0.
         24    2    5    5    0    0 -0.46812172807E+02 -0.20371409556E+02 -0.12282126949E+03  0.15401339543E+03  0.77644625597E+02 0.  0.
          5    1    5    5  501    0 -0.36300580558E+02  0.94731129329E+02 -0.45474188693E+02  0.11127313625E+03  0.47000000000E+01 0. -1.
        -13    1    6    6    0    0 -0.70152917960E+01  0.26369926185E+02 -0.61319551102E+02  0.67116873239E+02  0.00000000000E+00 0.  1.
         14    1    6    6    0    0 -0.39796881011E+02 -0.46741335741E+02 -0.61501718383E+02  0.86896522192E+02  0.00000000000E+00 0. -1.
         -5    1    3    3    0  503  0.32441349350E+02 -0.24176060210E+02 -0.43569603208E+02  0.59643301037E+02  0.47000000000E+01 0.  1.
         13    1    4    4    0    0 -0.18620214516E+02 -0.29491237498E+02 -0.21966485731E+03  0.22241648998E+03  0.00000000000E+00 0. -1.
        -14    1    4    4    0    0  0.69291618531E+02 -0.20692422064E+02 -0.64449865906E+03  0.64854300263E+03  0.00000000000E+00 0.  1.
</event>
<event>
12    1  0.1628146E-001  0.2270300E+03  0.7818608E-02  0.1129533E+00
         21   -1    0    0  501  502  0.00000000000E+00  0.00000000000E+00  0.27720651277E+03  0.27720651277E+03  0.00000000000E+00 0.  1.
         21   -1    0    0  502  503 -0.00000000000E+00 -0.00000000000E+00 -0.28000450666E+03  0.28000450666E+03  0.00000000000E+00 0.  1.
         -6    2    1    2    0  503  0.31805766897E+00  0.14836136294E+03 -0.16589763396E+03  0.28118438481E+03  0.17184713594E+03 0.  0.
        -24    2    3    3    0    0  0.29174184621E+02  0.11453979072E+03 -0.40961608960E+02  0.14849046952E+03  0.80006683621E+02 0.  0.
          6    2    1    2  501    0 -0.31805766897E+00 -0.14836136294E+03  0.16309964007E+03  0.27602663462E+03  0.16606629776E+03 0.  0.
         24    2    5    5    0    0 -0.36651417744E+02 -0.15581163288E+03  0.10663330391E+03  0.20830546587E+03  0.79999464036E+02 0.  0.
          5    1    5    5  501    0  0.36333360075E+02  0.74502699395E+01  0.56466336166E+02  0.67721168747E+02  0.47000000000E+01 0. -1.
        -11    1    6    6    0    0 -0.17809807705E+02 -0.40256487025E+02  0.75102923134E+02  0.87052989962E+02  0.00000000000E+00 0.  1.
         12    1    6    6    0    0 -0.18841610039E+02 -0.11555514585E+03  0.31530380775E+02  0.12125247591E+03  0.00000000000E+00 0. -1.
         -5    1    3    3    0  503 -0.28856126952E+02  0.33821572219E+02 -0.12493602500E+03  0.13269391529E+03  0.47000000000E+01 0.  1.
         11    1    4    4    0    0 -0.27098381319E+02  0.25754188822E+02 -0.14469392388E+02  0.40086953340E+02  0.00000000000E+00 0. -1.
        -12    1    4    4    0    0  0.56272565941E+02  0.88785601898E+02 -0.26492216573E+02  0.10840351618E+03  0.00000000000E+00 0.  1.
</event>
<event>
12    1  0.1628146E-001  0.2074366E+03  0.7818608E-02  0.1143720E+00
         21   -1    0    0  503  502  0.00000000000E+00  0.00000000000E+00  0.37013574314E+02  0.37013574314E+02  0.00000000000E+00 0.  1.
         21   -1    0    0  501  503 -0.00000000000E+00 -0.00000000000E+00 -0.16870420596E+04  0.16870420596E+04  0.00000000000E+00 0.  1.
          6    2    1    2  501    0 -0.79540654111E+02  0.79474052926E+02 -0.34226413943E+03  0.39994176659E+03  0.17368314479E+03 0.  0.
         24    2    3    3    0    0 -0.10773793099E+03  0.77496666190E+02 -0.19406919930E+03  0.24900195488E+03  0.82011733121E+02 0.  0.
         -6    2    1    2    0  502  0.79540654111E+02 -0.79474052926E+02 -0.13077643459E+04  0.13241138673E+04  0.17431898516E+03 0.  0.
        -24    2    5    5    0    0  0.12910686965E+02 -0.12595061501E+02 -0.96506417917E+03  0.96861724812E+03  0.80902299254E+02 0.  0.
          5    1    3    3  501    0  0.28197276884E+02  0.19773867361E+01 -0.14819494012E+03  0.15093981171E+03  0.47000000000E+01 0. -1.
        -13    1    4    4    0    0 -0.57332012518E+02 -0.46367804510E+01 -0.93027629647E+02  0.10937366808E+03  0.00000000000E+00 0.  1.
         14    1    4    4    0    0 -0.50405918476E+02  0.82133446641E+02 -0.10104156965E+03  0.13962828679E+03  0.00000000000E+00 0. -1.
         -5    1    5    5    0  502  0.66629967145E+02 -0.66878991425E+02 -0.34270016671E+03  0.35549661922E+03  0.47000000000E+01 0.  1.
         13    1    6    6    0    0  0.71810268414E+01  0.33385254741E+02 -0.29911348330E+03  0.30105650346E+03  0.00000000000E+00 0. -1.
        -14    1    6    6    0    0  0.57296601241E+01 -0.45980316243E+02 -0.66595069587E+03  0.66756074467E+03  0.00000000000E+00 0.  1.
</event>
<event>
12    1  0.1628146E-001  0.2794289E+03  0.7818608E-02  0.1097112E+00
         21   -1    0    0  501  502  0.00000000000E+00  0.00000000000E+00  0.20810654728E+03  0.20810654728E+03  0.00000000000E+00 0.  1.
         21   -1    0    0  502  503 -0.00000000000E+00 -0.00000000000E+00 -0.10728256455E+04  0.10728256455E+04  0.00000000000E+00 0. -1.
         -6    2    1    2    0  503 -0.21906026068E+03  0.26352578961E+02 -0.95060727965E+03  0.98860144926E+03  0.15810366575E+03 0.  0.
        -24    2    3    3    0    0 -0.90884962348E+02  0.58059846341E+02 -0.37905222849E+03  0.40197420440E+03  0.79193730424E+02 0.  0.
          6    2    1    2  501    0  0.21906026068E+03 -0.26352578961E+02  0.85888181474E+02  0.29233074347E+03  0.17146028004E+03 0.  0.
         24    2    5    5    0    0  0.14718413436E+03 -0.75703587815E+01  0.12439970072E+03  0.20852038346E+03  0.79277897542E+02 0.  0.
          5    1    5    5  501    0  0.71876126328E+02 -0.18782220179E+02 -0.38511519247E+02  0.83810360013E+02  0.47000000000E+01 0. -1.
        -11    1    6    6    0    0  0.15298864246E+03 -0.15978773738E+02  0.10392350560E+03  0.18563658300E+03  0.00000000000E+00 0.  1.
         12    1    6    6    0    0 -0.58045081073E+01  0.84084149569E+01  0.20476195124E+02  0.22883800454E+02  0.00000000000E+00 0. -1.
         -5    1    3    3    0  503 -0.12817529834E+03 -0.31707267380E+02 -0.57155505116E+03  0.58662724486E+03  0.47000000000E+01 0.  1.
         13    1    4    4    0    0 -0.80167816823E+02  0.15005156350E+02 -0.30435465526E+03  0.31509330325E+03  0.00000000000E+00 0. -1.
        -14    1    4    4    0    0 -0.10717145525E+02  0.43054689991E+02 -0.74697573232E+02  0.86880901154E+02  0.00000000000E+00 0.  1.
</event>
<event>
12    1  0.1628146E-001  0.2069203E+03  0.7818608E-02  0.1144390E+00
         21   -1    0    0  501  502  0.00000000000E+00  0.00000000000E+00  0.33548495907E+03  0.33548495907E+03  0.00000000000E+00 0.  1.
         21   -1    0    0  502  503 -0.00000000000E+00 -0.00000000000E+00 -0.15554748197E+03  0.15554748197E+03  0.00000000000E+00 0.  1.
         -6    2    1    2    0  503  0.10009043747E+03  0.58801294675E+02 -0.15764964608E+02  0.20751999664E+03  0.17129018351E+03 0.  0.
        -24    2    3    3    0    0  0.13514568062E+01 -0.10781582491E+01  0.27092247309E+02  0.84257002201E+02  0.79763799401E+02 0.  0.
          6    2    1    2  501    0 -0.10009043747E+03 -0.58801294675E+02  0.19570244170E+03  0.28351244441E+03  0.16912768111E+03 0.  0.
         24    2    5    5    0    0 -0.99927006106E+02 -0.26517578345E+02  0.21004490800E+03  0.24787452374E+03  0.81451382015E+02 0.  0.
          5    1    5    5  501    0 -0.16343136174E+00 -0.32283716330E+02 -0.14342466297E+02  0.35637920666E+02  0.47000000000E+01 0. -1.
        -11    1    6    6    0    0 -0.75688274788E+02 -0.77227955810E+01  0.66369587104E+02  0.10096176803E+03  0.00000000000E+00 0.  1.
         12    1    6    6    0    0 -0.24238731318E+02 -0.18794782764E+02  0.14367532090E+03  0.14691275571E+03  0.00000000000E+00 0. -1.
         -5    1    3    3    0  503  0.98738980662E+02  0.59879452924E+02 -0.42857211917E+02  0.12326299444E+03  0.47000000000E+01 0.  1.
         11    1    4    4    0    0  0.25254843494E+02 -0.28492010272E+02 -0.13307240996E+01  0.38096884333E+02  0.00000000000E+00 0. -1.
        -12    1    4    4    0    0 -0.23903386687E+02  0.27413852023E+02  0.28422971409E+02  0.46160117868E+02  0.00000000000E+00 0.  1.
</event>
<event>
12    1  0.1628146E-001  0.2228784E+03  0.7818608E-02  0.1131843E+00
         21   -1    0    0  501  502  0.00000000000E+00  0.00000000000E+00  0.63089780532E+03  0.63089780532E+03  0.00000000000E+00 0.  1.
         21   -1    0    0  502  503 -0.00000000000E+00 -0.00000000000E+00 -0.10605847066E+03  0.10605847066E+03  0.00000000000E+00 0. -1.
         -6    2    1    2    0  503  0.12818025410E+03 -0.57947539012E+02  0.75027521923E+02  0.23516787346E+03  0.17287771645E+03 0.  0.
        -24    2    3    3    0    0  0.65966177716E+02 -0.10225568855E+03  0.54622714363E+02  0.15597033823E+03  0.80841468554E+02 0.  0.
          6    2    1    2  501    0 -0.12818025410E+03  0.57947539012E+02  0.44981181274E+03  0.50178840252E+03  0.17225805991E+03 0.  0.
         24    2    5    5    0    0 -0.69298345216E+01  0.32345224586E+02  0.27029580686E+03  0.28360217675E+03  0.79222063130E+02 0.  0.
          5    1    5    5  501    0 -0.12125041957E+03  0.25602314426E+02  0.17951600587E+03  0.21818622577E+03  0.47000000000E+01 0. -1.
        -13    1    6    6    0    0 -0.20569606661E+02  0.44073806754E+02  0.89058187189E+02  0.10147398615E+03  0.00000000000E+00 0.  1.
         14    1    6    6    0    0  0.13639772140E+02 -0.11728582168E+02  0.18123761968E+03  0.18212819060E+03  0.00000000000E+00 0. -1.
         -5    1    3    3    0  503  0.62214076380E+02  0.44308149542E+02  0.20404807561E+02  0.79197535235E+02  0.47000000000E+01 0.  1.
         13    1    4    4    0    0  0.13087114938E+02 -0.68262355050E+02 -0.45291859166E+01  0.69652962747E+02  0.00000000000E+00 0. -1.
        -14    1    4    4    0    0  0.52879062778E+02 -0.33993333505E+02  0.59151900279E+02  0.86317375480E+02  0.00000000000E+00 0.  1.
</event>
<event>
12    1  0.1628146E-001  0.2662161E+03  0.7818608E-02  0.1103701E+00
         21   -1    0    0  501  502  0.00000000000E+00  0.00000000000E+00  0.22203198403E+03  0.22203198403E+03  0.00000000000E+00 0. -1.
         21   -1    0    0  502  503 -0.00000000000E+00 -0.00000000000E+00 -0.39846275406E+03  0.39846275406E+03  0.00000000000E+00 0. -1.
         -6    2    1    2    0  503  0.69288985334E+02  0.19013288908E+03 -0.22848531321E+03  0.35082266469E+03  0.17297261260E+03 0.  0.
        -24    2    3    3    0    0  0.10639665058E+03  0.17069156413E+03 -0.21843588444E+03  0.30748647941E+03  0.79861392995E+02 0.  0.
          6    2    1    2  501    0 -0.69288985334E+02 -0.19013288908E+03  0.52054543179E+02  0.26967207340E+03  0.17047543139E+03 0.  0.
         24    2    5    5    0    0  0.16067986430E+01 -0.11536140939E+03 -0.21174773305E+02  0.14317460642E+03  0.82096043263E+02 0.  0.
          5    1    5    5  501    0 -0.70895783977E+02 -0.74771479693E+02  0.73229316484E+02  0.12649746699E+03  0.47000000000E+01 0. -1.
        -11    1    6    6    0    0 -0.14171871875E+02  0.69350624853E+01  0.60446209544E+01  0.16895990252E+02  0.00000000000E+00 0.  1.
         12    1    6    6    0    0  0.15778670518E+02 -0.12229647187E+03 -0.27219394259E+02  0.12627861616E+03  0.00000000000E+00 0. -1.
         -5    1    3    3    0  503 -0.37107665247E+02  0.19441324957E+02 -0.10049428772E+02  0.43336185282E+02  0.47000000000E+01 0.  1.
         13    1    4    4    0    0  0.21008678425E+02  0.63975609300E+02 -0.27637444901E+02  0.72787852799E+02  0.00000000000E+00 0. -1.
        -14    1    4    4    0    0  0.85387972156E+02  0.10671595483E+03 -0.19079843954E+03  0.23469862661E+03  0.00000000000E+00 0.  1.
</event>
<event>
12    1  0.1628146E-001  0.2769872E+03  0.7818608E-02  0.1098250E+00
         21   -1    0    0  501  502  0.00000000000E+00  0.00000000000E+00  0.55206652766E+03  0.55206652766E+03  0.00000000000E+00 0.  1.
         21   -1    0    0  502  503 -0.00000000000E+00 -0.00000000000E+00 -0.17654498646E+03  0.17654498646E+03  0.00000000000E+00 0.  1.
         -6    2    1    2    0  503  0.10930186880E+03  0.17874237161E+03  0.10961666124E+02  0.27076237339E+03  0.17116182632E+03 0.  0.
        -24    2    3    3    0    0  0.11057478472E+03  0.12434728074E+03  0.63972926593E+02  0.19465238743E+03  0.78153613831E+02 0.  0.
          6    2    1    2  501    0 -0.10930186880E+03 -0.17874237161E+03  0.36455987508E+03  0.45784914072E+03  0.18118001879E+03 0.  0.
         24    2    5    5    0    0 -0.10268004800E+03 -0.19636946669E+03  0.36956965498E+03  0.43780541635E+03  0.77380184822E+02 0.  0.
          5    1    5    5  501    0 -0.66218207970E+01  0.17627095083E+02 -0.50097798991E+01  0.20043724364E+02  0.47000000000E+01 0. -1.
        -13    1    6    6    0    0 -0.57603071690E+02 -0.83525813374E+02  0.10167451538E+03  0.14363976624E+03  0.00000000000E+00 0.  1.
         14    1    6    6    0    0 -0.45076976311E+02 -0.11284365332E+03  0.26789513959E+03  0.29416565011E+03  0.00000000000E+00 0. -1.
         -5    1    3    3    0  503 -0.12729159199E+01  0.54395090875E+02 -0.53011260469E+02  0.76109985960E+02  0.47000000000E+01 0.  1.
         11    1    4    4    0    0  0.45993021815E+02  0.42977653070E+01  0.62413705107E+01  0.46613126350E+02  0.00000000000E+00 0. -1.
        -12    1    4    4    0    0  0.64581762903E+02  0.12004951543E+03  0.57731556082E+02  0.14803926108E+03  0.00000000000E+00 0.  1.
</event>
<event>
12    1  0.1628146E-001  0.2354113E+03  0.7818608E-02  0.1123017E+00
         21   -1    0    0  501  502  0.00000000000E+00  0.00000000000E+00  0.62833606278E+02  0.62833606278E+02  0.00000000000E+00 0.  1.
         21   -1    0    0  502  503 -0.00000000000E+00 -0.00000000000E+00 -0.12374451944E+04  0.12374451944E+04  0.00000000000E+00 0. -1.
         -6    2    1    2    0  503  0.15412316884E+03  0.42585371552E+02 -0.93780673293E+03  0.96690223510E+03  0.17277441615E+03 0.  0.
        -24    2    3    3    0    0  0.11712493937E+03  0.77404947558E+02 -0.85279646739E+03  0.86775533851E+03  0.77638491654E+02 0.  0.
          6    2    1    2  501    0 -0.15412316884E+03 -0.42585371552E+02 -0.23680485524E+03  0.33337656562E+03  0.17174379172E+03 0.  0.
         24    2    5    5    0    0 -0.97156642567E+02  0.28904970494E+02 -0.19294541212E+03  0.23187880765E+03  0.79151366795E+02 0.  0.
          5    1    5    5  501    0 -0.56966526278E+02 -0.71490342046E+02 -0.43859443118E+02  0.10149775797E+03  0.47000000000E+01 0. -1.
        -13    1    6    6    0    0 -0.21495915794E+02 -0.11158958456E+02 -0.41420796917E+01  0.24571397473E+02  0.00000000000E+00 0.  1.
         14    1    6    6    0    0 -0.75660726773E+02  0.40063928949E+02 -0.18880333243E+03  0.20730741018E+03  0.00000000000E+00 0. -1.
         -5    1    3    3    0  503  0.36998229474E+02 -0.34819576005E+02 -0.85010265533E+02  0.99146896590E+02  0.47000000000E+01 0.  1.
         11    1    4    4    0    0 -0.21198219820E+01  0.33179404738E+02 -0.17606143972E+03  0.17917309257E+03  0.00000000000E+00 0. -1.
        -12    1    4    4    0    0  0.11924476135E+03  0.44225542819E+02 -0.67673502767E+03  0.68858224594E+03  0.00000000000E+00 0.  1.
</event>
<event>
12    1  0.1628146E-001  0.1848603E+03  0.7818608E-02  0.1164493E+00
         21   -1    0    0  503  502  0.00000000000E+00  0.00000000000E+00  0.96969431046E+02  0.96969431046E+02  0.00000000000E+00 0. -1.
         21   -1    0    0  501  503 -0.00000000000E+00 -0.00000000000E+00 -0.62511684742E+03  0.62511684742E+03  0.00000000000E+00 0.  1.
          6    2    1    2  501    0  0.33255433490E+02 -0.59875689848E+02 -0.50924155806E+03  0.54175666859E+03  0.17170411006E+03 0.  0.
         24    2    3    3    0    0  0.57209302761E+01  0.22712193540E+02 -0.35545882647E+03  0.36497961723E+03  0.79439101846E+02 0.  0.
         -6    2    1    2    0  502 -0.33255433490E+02  0.59875689848E+02 -0.18905858309E+02  0.18032960987E+03  0.16574171058E+03 0.  0.
        -24    2    5    5    0    0 -0.46327816902E+02  0.64791221707E+02  0.40380887537E+02  0.11923903863E+03  0.79013690123E+02 0.  0.
          5    1    3    3  501    0  0.27534503214E+02 -0.82587883388E+02 -0.15378273160E+03  0.17677705136E+03  0.47000000000E+01 0. -1.
        -13    1    4    4    0    0 -0.75326933230E+01 -0.28712217076E+02 -0.12268462632E+03  0.12622460304E+03  0.00000000000E+00 0.  1.
         14    1    4    4    0    0  0.13253623599E+02  0.51424410616E+02 -0.23277420015E+03  0.23875501419E+03  0.00000000000E+00 0. -1.
         -5    1    5    5    0  502  0.13072383412E+02 -0.49155318586E+01 -0.59286745846E+02  0.61090571240E+02  0.47000000000E+01 0.  1.
         13    1    6    6    0    0  0.16730654270E+01  0.41622040411E+02  0.49999568034E+02  0.65078031620E+02  0.00000000000E+00 0. -1.
        -14    1    6    6    0    0 -0.48000882329E+02  0.23169181296E+02 -0.96186804971E+01  0.54161007014E+02  0.00000000000E+00 0.  1.
</event>
<event>
12    1  0.1628146E-001  0.1805266E+03  0.7818608E-02  0.1167710E+00
         21   -1    0    0  503  502  0.00000000000E+00  0.00000000000E+00  0.61372650718E+03  0.61372650718E+03  0.00000000000E+00 0. -1.
         21   -1    0    0  501  503 -0.00000000000E+00 -0.00000000000E+00 -0.36415528586E+03  0.36415528586E+03  0.00000000000E+00 0. -1.
          6    2    1    2  501    0 -0.34214818429E+02 -0.36974928322E+02 -0.32738106004E+03  0.37385589221E+03  0.17335533031E+03 0.  0.
         24    2    3    3    0    0 -0.89117017854E+02 -0.37247218603E+02 -0.20483971160E+03  0.23949519215E+03  0.77906620069E+02 0.  0.
         -6    2    1    2    0  502  0.34214818429E+02  0.36974928322E+02  0.57695228136E+03  0.60402590082E+03  0.17156793050E+03 0.  0.
        -24    2    5    5    0    0 -0.47657585905E+02  0.29070420189E+02  0.31654397014E+03  0.33089561984E+03  0.78584294689E+02 0.  0.
          5    1    3    3  501    0  0.54902199425E+02  0.27229028075E+00 -0.12254134844E+03  0.13436070006E+03  0.47000000000E+01 0. -1.
        -11    1    4    4    0    0 -0.26957554101E+02 -0.76236833817E+00 -0.54976088654E+01  0.27522983701E+02  0.00000000000E+00 0.  1.
         12    1    4    4    0    0 -0.62159463753E+02 -0.36484850265E+02 -0.19934210273E+03  0.21197220845E+03  0.00000000000E+00 0. -1.
         -5    1    5    5    0  502  0.81872404333E+02  0.79045081337E+01  0.26040831122E+03  0.27313028099E+03  0.47000000000E+01 0.  1.
         11    1    6    6    0    0 -0.30931791685E+01  0.29316890421E+02  0.24387251151E+03  0.24564781638E+03  0.00000000000E+00 0. -1.
        -12    1    6    6    0    0 -0.44564406736E+02 -0.24647023196E+00  0.72671458631E+02  0.85247803461E+02  0.00000000000E+00 0.  1.
</event>
<event>
12    1  0.1628146E-001  0.2053877E+03  0.7818608E-02  0.1145686E+00
         21   -1    0    0  503  502  0.00000000000E+00  0.00000000000E+00  0.14817916663E+03  0.14817916663E+03  0.00000000000E+00 0. -1.
         21   -1    0    0  501  503 -0.00000000000E+00 -0.00000000000E+00 -0.28762363975E+03  0.28762363975E+03  0.00000000000E+00 0. -1.
          6    2    1    2  501    0 -0.34158827502E+02 -0.10311510238E+03 -0.10016787019E+03  0.22669335003E+03  0.17192068780E+03 0.  0.
         24    2    3    3    0    0 -0.11687120441E+02 -0.25054099578E+02  0.21119742267E+02  0.80641055590E+02  0.72750530193E+02 0.  0.
         -6    2    1    2    0  502  0.34158827502E+02  0.10311510238E+03 -0.39276602930E+02  0.20910945634E+03  0.17431168452E+03 0.  0.
        -24    2    5    5    0    0 -0.47716749180E+01  0.13080290006E+03 -0.36246000506E+02  0.16101088350E+03  0.86478693937E+02 0.  0.
          5    1    3    3  501    0 -0.22471707061E+02 -0.78061002806E+02 -0.12128761245E+03  0.14605229444E+03  0.47000000000E+01 0. -1.
        -11    1    4    4    0    0  0.12253701224E+02  0.20743912189E+02 -0.16920182854E+01  0.24152143020E+02  0.00000000000E+00 0.  1.
         12    1    4    4    0    0 -0.23940821666E+02 -0.45798011767E+02  0.22811760552E+02  0.56488912570E+02  0.00000000000E+00 0. -1.
         -5    1    5    5    0  502  0.38930502420E+02 -0.27687797679E+02 -0.30306024241E+01  0.48098572849E+02  0.47000000000E+01 0.  1.
         11    1    6    6    0    0  0.96981270132E+01  0.26026530117E+02  0.26199796980E+02  0.38181976105E+02  0.00000000000E+00 0. -1.
        -12    1    6    6    0    0 -0.14469801931E+02  0.10477636995E+03 -0.62445797487E+02  0.12282890739E+03  0.00000000000E+00 0.  1.
</event>
<event>
12    1  0.1628146E-001  0.1732602E+03  0.7818608E-02  0.1174495E+00
         21   -1    0    0  503  502  0.00000000000E+00  0.00000000000E+00  0.36187691925E+03  0.36187691925E+03  0.00000000000E+00 0. -1.
         21   -1    0    0  501  503 -0.00000000000E+00 -0.00000000000E+00 -0.11182739141E+03  0.11182739141E+03  0.00000000000E+00 0. -1.
          6    2    1    2  501    0  0.19233309043E+02  0.21354604639E+01  0.46587469855E+01  0.17332283515E+03  0.17217613334E+03 0.  0.
         24    2    3    3    0    0 -0.22330509906E+02  0.59411854681E+02  0.18838139397E+01  0.10234448188E+03  0.80264712461E+02 0.  0.
         -6    2    1    2    0  502 -0.19233309043E+02 -0.21354604639E+01  0.24539078086E+03  0.30038147551E+03  0.17215665869E+03 0.  0.
        -24    2    5    5    0    0 -0.76255016627E+01  0.45349894505E+02  0.23027693734E+03  0.24899939308E+03  0.82815872141E+02 0.  0.
          5    1    3    3  501    0  0.41563818949E+02 -0.57276394217E+02  0.27749330459E+01  0.70978353274E+02  0.47000000000E+01 0. -1.
        -13    1    4    4    0    0 -0.36076600433E+02  0.50352132317E+01 -0.20681755599E+02  0.41888058987E+02  0.00000000000E+00 0.  1.
         14    1    4    4    0    0  0.13746090527E+02  0.54376641449E+02  0.22565569538E+02  0.60456422890E+02  0.00000000000E+00 0. -1.
         -5    1    5    5    0  502 -0.11607807380E+02 -0.47485354969E+02  0.15113843520E+02  0.51382082428E+02  0.47000000000E+01 0.  1.
         11    1    6    6    0    0 -0.44305605138E+02  0.26642198389E+02  0.10332831792E+03  0.11554018637E+03  0.00000000000E+00 0. -1.
        -12    1    6    6    0    0  0.36680103475E+02  0.18707696116E+02  0.12694861942E+03  0.13345920672E+03  0.00000000000E+00 0.  1.
</event>
<event>
12    1  0.1628146E-001  0.1749493E+03  0.7818608E-02  0.1172806E+00
         21   -1    0    0  501  502  0.00000000000E+00  0.00000000000E+00  0.81882122911E+02  0.81882122911E+02  0.00000000000E+00 0.  1.
         21   -1    0    0  502  503 -0.00000000000E+00 -0.00000000000E+00 -0.55087629794E+03  0.55087629794E+03  0.00000000000E+00 0.  1.
         -6    2    1    2    0  503 -0.30083622827E+02  0.74296407877E+01 -0.41401360416E+03  0.44946025789E+03  0.17218314396E+03 0.  0.
        -24    2    3    3    0    0  0.33669504131E+02 -0.20192951892E+02 -0.14914391029E+03  0.17558891299E+03  0.83941465169E+02 0.  0.
          6    2    1    2  501    0  0.30083622827E+02 -0.74296407877E+01 -0.54980570864E+02  0.18329816296E+03  0.17209046879E+03 0.  0.
         24    2    5    5    0    0  0.43687544341E+02 -0.55320848548E+02  0.33561655714E+01  0.10646132753E+03  0.79710429662E+02 0.  0.
          5    1    5    5  501    0 -0.13603921515E+02  0.47891207761E+02 -0.58336736435E+02  0.76836835432E+02  0.47000000000E+01 0. -1.
        -13    1    6    6    0    0  0.35920976369E+02 -0.57609588495E+02  0.33174861009E+02  0.75562905137E+02  0.00000000000E+00 0.  1.
         14    1    6    6    0    0  0.77665679726E+01  0.22887399470E+01 -0.29818695437E+02  0.30898422390E+02  0.00000000000E+00 0. -1.
         -5    1    3    3    0  503 -0.63753126957E+02  0.27622592679E+02 -0.26486969387E+03  0.27387134490E+03  0.47000000000E+01 0.  1.
         11    1    4    4    0    0  0.18497790009E+02  0.18353976804E+02 -0.12490313401E+03  0.12759243546E+03  0.00000000000E+00 0. -1.
        -12    1    4    4    0    0  0.15171714121E+02 -0.38546928695E+02 -0.24240776276E+02  0.47996477534E+02  0.00000000000E+00 0.  1.
</event>
<event>
12    1  0.1628146E-001  0.2256135E+03  0.7818608E-02  0.1130195E+00
         21   -1    0    0  501  502  0.00000000000E+00  0.00000000000E+00  0.15579957343E+03  0.15579957343E+03  0.00000000000E+00 0.  1.
         21   -1    0    0  502  503 -0.00000000000E+00 -0.00000000000E+00 -0.36492624835E+03  0.36492624835E+03  0.00000000000E+00 0.  1.
         -6    2    1    2    0  503  0.11083102059E+03  0.95813212397E+02 -0.19298882395E+03  0.29689412119E+03  0.17157431694E+03 0.  0.
        -24    2    3    3    0    0 -0.10796102648E+02  0.26431845346E+02 -0.84928067703E+02  0.11995868596E+03  0.79762844555E+02 0.  0.
          6    2    1    2  501    0 -0.11083102059E+03 -0.95813212397E+02 -0.16137850967E+02  0.22383170059E+03  0.16845329668E+03 0.  0.
         24    2    5    5    0    0 -0.88473834982E+02 -0.12318888253E+03  0.20960532508E+02  0.17237636929E+03  0.79190583467E+02 0.  0.
          5    1    5    5  501    0 -0.22357185610E+02  0.27375670132E+02 -0.37098383475E+02  0.51455331308E+02  0.47000000000E+01 0. -1.
        -11    1    6    6    0    0 -0.20540813745E+01 -0.59799518419E+02  0.25644194858E+02  0.65098589718E+02  0.00000000000E+00 0.  1.
         12    1    6    6    0    0 -0.86419753607E+02 -0.63389364110E+02 -0.46836623499E+01  0.10727777957E+03  0.00000000000E+00 0. -1.
         -5    1    3    3    0  503  0.12162712324E+03  0.69381367051E+02 -0.10806075624E+03  0.17693543523E+03  0.47000000000E+01 0.  1.
         11    1    4    4    0    0  0.75660935573E+01 -0.15617795252E+02 -0.69371546771E+02  0.71509249763E+02  0.00000000000E+00 0. -1.
        -12    1    4    4    0    0 -0.18362196205E+02  0.42049640598E+02 -0.15556520933E+02  0.48449436193E+02  0.00000000000E+00 0.  1.
</event>
<event>
12    1  0.1628146E-001  0.1786186E+03  0.7818608E-02  0.1170163E+00
         21   -1    0    0  501  502  0.00000000000E+00  0.00000000000E+00  0.61870387818E+03  0.61870387818E+03  0.00000000000E+00 0.  1.
         21   -1    0    0  502  503 -0.00000000000E+00 -0.00000000000E+00 -0.60414134908E+02  0.60414134908E+02  0.00000000000E+00 0.  1.
         -6    2    1    2    0  503  0.46932297046E+02  0.13277654269E+02  0.13811477993E+03  0.22255299718E+03  0.16755658002E+03 0.  0.
        -24    2    3    3    0    0  0.83045160273E+02 -0.21328207211E+02  0.11114363523E+03  0.16553337612E+03  0.87732547493E+02 0.  0.
          6    2    1    2  501    0 -0.46932297046E+02 -0.13277654269E+02  0.42017496334E+03  0.45656501591E+03  0.17183037370E+03 0.  0.
         24    2    5    5    0    0  0.39432450635E+02 -0.20134873439E+02  0.19995708015E+03  0.21987133798E+03  0.80001500425E+02 0.  0.
          5    1    5    5  501    0 -0.86364747681E+02  0.68572191697E+01  0.22021788320E+03  0.23669367794E+03  0.47000000000E+01 0. -1.
        -13    1    6    6    0    0 -0.20771610129E+02  0.11041068354E+02  0.46803020023E+02  0.52382131123E+02  0.00000000000E+00 0.  1.
         14    1    6    6    0    0  0.60204060764E+02 -0.31175941793E+02  0.15315406013E+03  0.16748920685E+03  0.00000000000E+00 0. -1.
         -5    1    3    3    0  503 -0.36112863228E+02  0.34605861480E+02  0.26971144704E+02  0.57019621061E+02  0.47000000000E+01 0.  1.
         11    1    4    4    0    0  0.23461767722E+02 -0.47236484808E+02  0.27080470481E+02  0.59288210659E+02  0.00000000000E+00 0. -1.
        -12    1    4    4    0    0  0.59583392552E+02  0.25908277597E+02  0.84063164748E+02  0.10624516546E+03  0.00000000000E+00 0.  1.
</event>
<event>
12    1  0.1628146E-001  0.1817860E+03  0.7818608E-02  0.1166817E+00
         21   -1    0    0  501  502  0.00000000000E+00  0.00000000000E+00  0.63813719482E+02  0.63813719482E+02  0.00000000000E+00 0. -1.
         21   -1    0    0  502  503 -0.00000000000E+00 -0.00000000000E+00 -0.11174854951E+04  0.11174854951E+04  0.00000000000E+00 0. -1.
         -6    2    1    2    0  503  0.57560234275E+02 -0.10171818472E+02 -0.96056709049E+03  0.97705761511E+03  0.16892543159E+03 0.  0.
        -24    2    3    3    0    0  0.90448066841E+02  0.42795851226E+01 -0.46519228556E+03  0.48035977944E+03  0.78374023195E+02 0.  0.
          6    2    1    2  501    0 -0.57560234275E+02  0.10171818472E+02 -0.93104685152E+02  0.20424159950E+03  0.17213222275E+03 0.  0.
         24    2    5    5    0    0  0.25121206301E+02 -0.25523677037E+02 -0.26575477228E+02  0.92176375091E+02  0.80670285976E+02 0.  0.
          5    1    5    5  501    0 -0.82681440576E+02  0.35695495509E+02 -0.66529207924E+02  0.11206522441E+03  0.47000000000E+01 0. -1.
        -13    1    6    6    0    0  0.40871522385E+01  0.91650098791E+01 -0.46082427981E+02  0.47162404393E+02  0.00000000000E+00 0.  1.
         14    1    6    6    0    0  0.21034054063E+02 -0.34688686916E+02  0.19506950753E+02  0.45013970698E+02  0.00000000000E+00 0. -1.
         -5    1    3    3    0  503 -0.32887832566E+02 -0.14451403594E+02 -0.49537480493E+03  0.49669783567E+03  0.47000000000E+01 0.  1.
         13    1    4    4    0    0  0.13571322658E+02  0.88108952022E+00 -0.27294289325E+03  0.27328150338E+03  0.00000000000E+00 0. -1.
        -14    1    4    4    0    0  0.76876744183E+02  0.33984956024E+01 -0.19224939231E+03  0.20707827605E+03  0.00000000000E+00 0.  1.
</event>
<event>
12    1  0.1628146E-001  0.1850081E+03  0.7818608E-02  0.1163558E+00
         21   -1    0    0  501  502  0.00000000000E+00  0.00000000000E+00  0.14130495781E+03  0.14130495781E+03  0.00000000000E+00 0.  1.
         21   -1    0    0  502  503 -0.00000000000E+00 -0.00000000000E+00 -0.35141630948E+03  0.35141630948E+03  0.00000000000E+00 0.  1.
         -6    2    1    2    0  503  0.47107702083E+02 -0.36013666925E+02 -0.24459461210E+03  0.30668308919E+03  0.17524803315E+03 0.  0.
        -24    2    3    3    0    0 -0.24858744538E+02  0.56436410841E+01 -0.17334153452E+03  0.19707655738E+03  0.90233441775E+02 0.  0.
          6    2    1    2  501    0 -0.47107702083E+02  0.36013666925E+02  0.34483260431E+02  0.18603817810E+03  0.17293058914E+03 0.  0.
         24    2    5    5    0    0  0.33283565749E+02  0.30775506912E+02  0.48286448386E+02  0.10416747356E+03  0.80401205689E+02 0.  0.
          5    1    5    5  501    0 -0.80391267832E+02  0.52381600128E+01 -0.13803187955E+02  0.81870704539E+02  0.47000000000E+01 0. -1.
        -13    1    6    6    0    0  0.43843718908E+02 -0.95512073320E+01  0.42996752270E+02  0.62146745329E+02  0.00000000000E+00 0.  1.
         14    1    6    6    0    0 -0.10560153158E+02  0.40326714244E+02  0.52896961160E+01  0.42020728235E+02  0.00000000000E+00 0. -1.
         -5    1    3    3    0  503  0.71966446622E+02 -0.41657308009E+02 -0.71253077587E+02  0.10960653181E+03  0.47000000000E+01 0.  1.
         13    1    4    4    0    0 -0.29266612211E+02 -0.39064629762E+02 -0.92681951215E+02  0.10474981608E+03  0.00000000000E+00 0. -1.
        -14    1    4    4    0    0  0.44078676723E+01  0.44708270846E+02 -0.80659583302E+02  0.92326741293E+02  0.00000000000E+00 0.  1.
</event>
<event>
12    1  0.1628146E-001  0.2284478E+03  0.7818608E-02  0.1127863E+00
         21   -1    0    0  501  502  0.00000000000E+00  0.00000000000E+00  0.30066681244E+03  0.30066681244E+03  0.00000000000E+00 0. -1.
         21   -1    0    0  502  503 -0.00000000000E+00 -0.00000000000E+00 -0.17391519281E+03  0.17391519281E+03  0.00000000000E+00 0. -1.
         -6    2    1    2    0  503  0.61993815462E+02 -0.13631053880E+03  0.80127857841E+02  0.24142502208E+03  0.17158604704E+03 0.  0.
        -24    2    3    3    0    0  0.10675451675E+03 -0.10650792873E+03  0.64781279308E+02  0.18530618905E+03  0.86030830651E+02 0.  0.
          6    2    1    2  501    0 -0.61993815462E+02  0.13631053880E+03  0.46623761785E+02  0.23315698318E+03  0.17252422293E+03 0.  0.
         24    2    5    5    0    0  0.23988457630E+02  0.35743049565E+02  0.44665056313E+02  0.10074588959E+03  0.79383596055E+02 0.  0.
          5    1    5    5  501    0 -0.85982273091E+02  0.10056748924E+03  0.19587054722E+01  0.13241109358E+03  0.47000000000E+01 0. -1.
        -11    1    6    6    0    0 -0.85600931564E+00 -0.96917443521E+01 -0.17387502448E+02  0.19924555250E+02  0.00000000000E+00 0.  1.
         12    1    6    6    0    0  0.24844466945E+02  0.45434793917E+02  0.62052558761E+02  0.80821334342E+02  0.00000000000E+00 0. -1.
         -5    1    3    3    0  503 -0.44760701293E+02 -0.29802610071E+02  0.15346578533E+02  0.56118833024E+02  0.47000000000E+01 0.  1.
         11    1    4    4    0    0 -0.27739018523E+01 -0.49679549609E+02  0.12562175864E+02  0.51318227203E+02  0.00000000000E+00 0. -1.
        -12    1    4    4    0    0  0.10952841861E+03 -0.56828379120E+02  0.52219103444E+02  0.13398796185E+03  0.00000000000E+00 0.  1.
</event>
<event>
12    1  0.1628146E-001  0.1978784E+03  0.7818608E-02  0.1151665E+00
         21   -1    0    0  501  502  0.00000000000E+00  0.00000000000E+00  0.62623756776E+02  0.62623756776E+02  0.00000000000E+00 0. -1.
         21   -1    0    0  502  503 -0.00000000000E+00 -0.00000000000E+00 -0.79176844559E+03  0.79176844559E+03  0.00000000000E+00 0. -1.
         -6    2    1    2    0  503 -0.95560565980E+02  0.15628466131E+02 -0.56197201075E+03  0.59579223413E+03  0.17256817397E+03 0.  0.
        -24    2    3    3    0    0 -0.52402215544E+02 -0.91659934478E+00 -0.53251750883E+03  0.54078277961E+03  0.78257812143E+02 0.  0.
          6    2    1    2  501    0  0.95560565980E+02 -0.15628466131E+02 -0.16717267806E+03  0.25859996823E+03  0.17190453325E+03 0.  0.
         24    2    5    5    0    0  0.14121208321E+02  0.98518418514E+01 -0.86574179198E+01  0.78514453073E+02  0.76112424373E+02 0.  0.
          5    1    5    5  501    0  0.81439357659E+02 -0.25480307982E+02 -0.15851526014E+03  0.18008551516E+03  0.47000000000E+01 0. -1.
        -11    1    6    6    0    0 -0.20935891911E+00  0.42096181610E+02 -0.97540793546E+01  0.43211970579E+02  0.00000000000E+00 0.  1.
         12    1    6    6    0    0  0.14330567241E+02 -0.32244339759E+02  0.10966614348E+01  0.35302482494E+02  0.00000000000E+00 0. -1.
         -5    1    3    3    0  503 -0.43158350436E+02  0.16545065475E+02 -0.29454501915E+02  0.55009454524E+02  0.47000000000E+01 0.  1.
         11    1    4    4    0    0 -0.69903066175E+02  0.64501050514E+01 -0.47629213459E+03  0.48143768028E+03  0.00000000000E+00 0. -1.
        -12    1    4    4    0    0  0.17500850630E+02 -0.73667043962E+01 -0.56225374241E+02  0.59345099334E+02  0.00000000000E+00 0.  1.
</event>
<event>
12    1  0.1628146E-001  0.1798936E+03  0.7818608E-02  0.1168324E+00
         21   -1    0    0  501  502  0.00000000000E+00  0.00000000000E+00  0.45577424804E+03  0.45577424804E+03  0.00000000000E+00 0. -1.
         21   -1    0    0  502  503 -0.00000000000E+00 -0.00000000000E+00 -0.10867652832E+03  0.10867652832E+03  0.00000000000E+00 0. -1.
         -6    2    1    2    0  503  0.43322561700E+01  0.44864869814E+02  0.34173767870E+03  0.38619467940E+03  0.17415528809E+03 0.  0.
        -24    2    3    3    0    0 -0.44685249151E+02 -0.59995206526E+01  0.26889179560E+03  0.28461458918E+03  0.81669461197E+02 0.  0.
          6    2    1    2  501    0 -0.43322561700E+01 -0.44864869814E+02  0.53600410174E+01  0.17825609695E+03  0.17238004836E+03 0.  0.
         24    2    5    5    0    0  0.58097735236E+02 -0.11070170195E+02 -0.22429424843E+02  0.10187592962E+03  0.79860693892E+02 0.  0.
          5    1    5    5  501    0 -0.62429991406E+02 -0.33794699620E+02  0.27789465860E+02  0.76380167335E+02  0.47000000000E+01 0. -1.
        -13    1    6    6    0    0  0.66313012904E+02 -0.22973832495E+02 -0.38670095008E+02  0.80128577348E+02  0.00000000000E+00 0.  1.
         14    1    6    6    0    0 -0.82152776681E+01  0.11903662300E+02  0.16240670165E+02  0.21747352269E+02  0.00000000000E+00 0. -1.
         -5    1    3    3    0  503  0.49017505321E+02  0.50864390467E+02  0.72845883100E+02  0.10158009022E+03  0.47000000000E+01 0.  1.
         13    1    4    4    0    0 -0.38749294703E+02  0.25393051612E+02  0.22832358780E+03  0.23297634141E+03  0.00000000000E+00 0. -1.
        -14    1    4    4    0    0 -0.59359544477E+01 -0.31392572265E+02  0.40568207801E+02  0.51638247770E+02  0.00000000000E+00 0.  1.
</event>
<event>
12    1  0.1628146E-001  0.1773989E+03  0.7818608E-02  0.1170811E+00
         21   -1    0    0  503  502  0.00000000000E+00  0.00000000000E+00  0.35788211634E+02  0.35788211634E+02  0.00000000000E+00 0. -1.
         21   -1    0    0  501  503 -0.00000000000E+00 -0.00000000000E+00 -0.87474437888E+03  0.87474437888E+03  0.00000000000E+00 0. -1.
          6    2    1    2  501    0 -0.32193845517E+02 -0.91740090196E+01 -0.38831703958E+03  0.42691977450E+03  0.17421183801E+03 0.  0.
         24    2    3    3    0    0 -0.38736556938E+02 -0.68751500967E+02 -0.30123917610E+03  0.32110423251E+03  0.78330052899E+02 0.  0.
         -6    2    1    2    0  502  0.32193845517E+02  0.91740090196E+01 -0.45063912766E+03  0.48361281601E+03  0.17229372100E+03 0.  0.
        -24    2    5    5    0    0  0.31825925161E+02 -0.11538520414E+02 -0.99138470068E+02  0.13147087513E+03  0.79436312811E+02 0.  0.
          5    1    3    3  501    0  0.65427114213E+01  0.59577491947E+02 -0.87077863480E+02  0.10581554199E+03  0.47000000000E+01 0. -1.
        -13    1    4    4    0    0  0.53685456714E+00 -0.71543401827E+02 -0.18338083837E+03  0.19684328395E+03  0.00000000000E+00 0.  1.
         14    1    4    4    0    0 -0.39273411505E+02  0.27919008604E+01 -0.11785833774E+03  0.12426094856E+03  0.00000000000E+00 0. -1.
         -5    1    5    5    0  502  0.36792035596E+00  0.20712529434E+02 -0.35150065759E+03  0.35214194088E+03  0.47000000000E+01 0.  1.
         11    1    6    6    0    0  0.35859863826E+02 -0.29400436003E+02 -0.10281969828E+03  0.11279275609E+03  0.00000000000E+00 0. -1.
        -12    1    6    6    0    0 -0.40339386656E+01  0.17861915588E+02  0.36812282140E+01  0.18678119038E+02  0.00000000000E+00 0.  1.
</event>
<event>
12    1  0.1628146E-001  0.2053454E+03  0.7818608E-02  0.1148540E+00
         21   -1    0    0  503  502  0.00000000000E+00  0.00000000000E+00  0.14118708451E+03  0.14118708451E+03  0.00000000000E+00 0. -1.
         21   -1    0    0  501  503 -0.00000000000E+00 -0.00000000000E+00 -0.28997615812E+03  0.28997615812E+03  0.00000000000E+00 0. -1.
          6    2    1    2  501    0 -0.46412753725E+02 -0.66168597613E+02 -0.31424135215E+02  0.20773586852E+03  0.18877046320E+03 0.  0.
         24    2    3    3    0    0 -0.67301832626E+02 -0.99409380662E+02  0.18484564231E+02  0.14406270655E+03  0.77463686104E+02 0.  0.
         -6    2    1    2    0  502  0.46412753725E+02  0.66168597613E+02 -0.11736493839E+03  0.22342737410E+03  0.17208380434E+03 0.  0.
        -24    2    5    5    0    0  0.35504043486E+02  0.72694442253E+02 -0.15059959235E+03  0.18753560860E+03  0.77099599478E+02 0.  0.
          5    1    3    3  501    0  0.20889078902E+02  0.33240783049E+02 -0.49908699445E+02  0.63673161971E+02  0.47000000000E+01 0. -1.
        -11    1    4    4    0    0 -0.60510114096E+02 -0.25035674611E+02  0.22577115060E+02  0.69267489023E+02  0.00000000000E+00 0.  1.
         12    1    4    4    0    0 -0.67917185299E+01 -0.74373706051E+02 -0.40925508293E+01  0.74795217525E+02  0.00000000000E+00 0. -1.
         -5    1    5    5    0  502  0.10908710238E+02 -0.65258446397E+01  0.33234653956E+02  0.35891765502E+02  0.47000000000E+01 0.  1.
         11    1    6    6    0    0  0.46780820459E+02  0.46997955223E+02 -0.14425349716E+03  0.15876499740E+03  0.00000000000E+00 0. -1.
        -12    1    6    6    0    0 -0.11276776973E+02  0.25696487030E+02 -0.63460951905E+01  0.28770611198E+02  0.00000000000E+00 0.  1.
</event>
<event>
12    1  0.1628146E-001  0.1972500E+03  0.7818608E-02  0.1152391E+00
         21   -1    0    0  503  502  0.00000000000E+00  0.00000000000E+00  0.13116247913E+03  0.13116247913E+03  0.00000000000E+00 0. -1.
         21   -1    0    0  501  503 -0.00000000000E+00 -0.00000000000E+00 -0.30859447596E+03  0.30859447596E+03  0.00000000000E+00 0. -1.
          6    2    1    2  501    0  0.94439876295E+02 -0.76316992257E+01 -0.13543913235E+03  0.23808656058E+03  0.17136020160E+03 0.  0.
         24    2    3    3    0    0  0.62525932919E+02 -0.71265607429E+02 -0.89874674017E+02  0.15343442583E+03  0.80476002083E+02 0.  0.
         -6    2    1    2    0  502 -0.94439876295E+02  0.76316992257E+01 -0.41992864480E+02  0.20167039450E+03  0.17300408748E+03 0.  0.
        -24    2    5    5    0    0 -0.12162068565E+03  0.22151338351E+02 -0.68328675213E+02  0.16086253687E+03  0.76978405686E+02 0.  0.
          5    1    3    3  501    0  0.31913943377E+02  0.63633908204E+02 -0.45564458331E+02  0.84652134752E+02  0.47000000000E+01 0. -1.
        -11    1    4    4    0    0 -0.32801778107E+01 -0.54928845953E+02 -0.28456227425E+02  0.61949128836E+02  0.00000000000E+00 0.  1.
         12    1    4    4    0    0  0.65806110729E+02 -0.16336761476E+02 -0.61418446592E+02  0.91485296997E+02  0.00000000000E+00 0. -1.
         -5    1    5    5    0  502  0.27180809358E+02 -0.14519639125E+02  0.26335810733E+02  0.40807857634E+02  0.47000000000E+01 0.  1.
         11    1    6    6    0    0 -0.44567548081E+02  0.34073008076E+02 -0.60489044032E+02  0.82499458600E+02  0.00000000000E+00 0. -1.
        -12    1    6    6    0    0 -0.77053137573E+02 -0.11921669725E+02 -0.78396311809E+01  0.78363078270E+02  0.00000000000E+00 0.  1.
</event>
<event>
12    1  0.1628146E-001  0.1816491E+03  0.7818608E-02  0.1166335E+00
         21   -1    0    0  501  502  0.00000000000E+00  0.00000000000E+00  0.25695373198E+03  0.25695373198E+03  0.00000000000E+00 0. -1.
         21   -1    0    0  502  503 -0.00000000000E+00 -0.00000000000E+00 -0.13464644121E+03  0.13464644121E+03  0.00000000000E+00 0. -1.
         -6    2    1    2    0  503  0.57598375588E+02  0.12709446444E+02  0.10436247642E+03  0.20906682412E+03  0.17128428872E+03 0.  0.
        -24    2    3    3    0    0 -0.28571646247E+02  0.32715896103E+02  0.42150217811E+02  0.10081717834E+03  0.80627500016E+02 0.  0.
          6    2    1    2  501    0 -0.57598375588E+02 -0.12709446444E+02  0.17944814352E+02  0.18253334908E+03  0.17180600765E+03 0.  0.
         24    2    5    5    0    0 -0.79538456196E+02 -0.60670420777E+02  0.75125118943E+00  0.12686171528E+03  0.78013232552E+02 0.  0.
          5    1    5    5  501    0  0.21940080607E+02  0.47960974334E+02  0.17193563162E+02  0.55671633803E+02  0.47000000000E+01 0. -1.
        -11    1    6    6    0    0 -0.39212413950E+02 -0.41031537388E+02 -0.37405714714E+02  0.67973435705E+02  0.00000000000E+00 0.  1.
         12    1    6    6    0    0 -0.40326042245E+02 -0.19638883389E+02  0.38156965903E+02  0.58888279572E+02  0.00000000000E+00 0. -1.
         -5    1    3    3    0  503  0.86170021835E+02 -0.20006449659E+02  0.62212258607E+02  0.10824964578E+03  0.47000000000E+01 0.  1.
         11    1    4    4    0    0 -0.20510734962E+02 -0.24821342220E+02  0.71283652137E+01  0.32978824553E+02  0.00000000000E+00 0. -1.
        -12    1    4    4    0    0 -0.80609112854E+01  0.57537238323E+02  0.35021852598E+02  0.67838353783E+02  0.00000000000E+00 0.  1.
</event>
<event>
12    1  0.1628146E-001  0.1788093E+03  0.7818608E-02  0.1170024E+00
         21   -1    0    0  501  502  0.00000000000E+00  0.00000000000E+00  0.66669078916E+02  0.66669078916E+02  0.00000000000E+00 0.  1.
         21   -1    0    0  502  503 -0.00000000000E+00 -0.00000000000E+00 -0.64611773811E+03  0.64611773811E+03  0.00000000000E+00 0. -1.
         -6    2    1    2    0  503  0.45617439713E+02  0.18233221221E+02 -0.47422502478E+03  0.50531450186E+03  0.16745139743E+03 0.  0.
        -24    2    3    3    0    0  0.29115797226E+02 -0.11153594888E+02 -0.46052172571E+03  0.46862990603E+03  0.81003682927E+02 0.  0.
          6    2    1    2  501    0 -0.45617439713E+02 -0.18233221221E+02 -0.10522363442E+03  0.20747231517E+03  0.17192831983E+03 0.  0.
         24    2    5    5    0    0  0.15024963146E+02 -0.29501837442E+02 -0.20968244818E+01  0.87215458133E+02  0.80659974799E+02 0.  0.
          5    1    5    5  501    0 -0.60642402859E+02  0.11268616221E+02 -0.10312680994E+03  0.12025685704E+03  0.47000000000E+01 0. -1.
        -11    1    6    6    0    0 -0.33238226656E+02 -0.13109196602E+02  0.36755913716E+01  0.35918528905E+02  0.00000000000E+00 0.  1.
         12    1    6    6    0    0  0.48263189801E+02 -0.16392640839E+02 -0.57724158535E+01  0.51296929229E+02  0.00000000000E+00 0. -1.
         -5    1    3    3    0  503  0.16501642488E+02  0.29386816108E+02 -0.13703299066E+02  0.36684595828E+02  0.47000000000E+01 0.  1.
         13    1    4    4    0    0  0.51824991447E+02 -0.27494382999E+02 -0.32454666546E+03  0.32980647188E+03  0.00000000000E+00 0. -1.
        -14    1    4    4    0    0 -0.22709194221E+02  0.16340788111E+02 -0.13597506025E+03  0.13882343415E+03  0.00000000000E+00 0.  1.
</event>
<event>
12    1  0.1628146E-001  0.1810480E+03  0.7818608E-02  0.1167136E+00
         21   -1    0    0  501  502  0.00000000000E+00  0.00000000000E+00  0.97575628253E+03  0.97575628253E+03  0.00000000000E+00 0.  1.
         21   -1    0    0  502  503 -0.00000000000E+00 -0.00000000000E+00 -0.47984164932E+02  0.47984164932E+02  0.00000000000E+00 0.  1.
         -6    2    1    2    0  503 -0.44013526428E+01 -0.53505671357E+02  0.18227976144E+03  0.25691297131E+03  0.17290498729E+03 0.  0.
        -24    2    3    3    0    0  0.40237404803E+02 -0.85852814107E+02  0.10921989035E+03  0.16526805289E+03  0.79967433508E+02 0.  0.
          6    2    1    2  501    0  0.44013526428E+01  0.53505671357E+02  0.74549235617E+03  0.76682747615E+03  0.17141556612E+03 0.  0.
         24    2    5    5    0    0 -0.37015680825E+02  0.88899624140E+02  0.51556742936E+03  0.53048944594E+03  0.79598833181E+02 0.  0.
          5    1    5    5  501    0  0.41417033468E+02 -0.35393952783E+02  0.22992492681E+03  0.23633803021E+03  0.47000000000E+01 0. -1.
        -13    1    6    6    0    0 -0.40028948191E+02  0.46863673733E+02  0.14529485015E+03  0.15782621483E+03  0.00000000000E+00 0.  1.
         14    1    6    6    0    0  0.30132673658E+01  0.42035950407E+02  0.37027257921E+03  0.37266323111E+03  0.00000000000E+00 0. -1.
         -5    1    3    3    0  503 -0.44638757446E+02  0.32347142750E+02  0.73059871087E+02  0.91644918428E+02  0.47000000000E+01 0.  1.
         11    1    4    4    0    0  0.30834028658E+01  0.89560256968E+01  0.42465239929E+02  0.43508784995E+02  0.00000000000E+00 0. -1.
        -12    1    4    4    0    0  0.37154001937E+02 -0.94808839804E+02  0.66754650420E+02  0.12175926789E+03  0.00000000000E+00 0.  1.
</event>
<event>
12    1  0.1628146E-001  0.2376443E+03  0.7818608E-02  0.1121670E+00
         21   -1    0    0  503  502  0.00000000000E+00  0.00000000000E+00  0.16743582708E+04  0.16743582708E+04  0.00000000000E+00 0.  1.
         21   -1    0    0  501  503 -0.00000000000E+00 -0.00000000000E+00 -0.33700885442E+02  0.33700885442E+02  0.00000000000E+00 0. -1.
          6    2    1    2  501    0 -0.77218836798E+02  0.14377398433E+03  0.89246191482E+03  0.92356001660E+03  0.17274584667E+03 0.  0.
         24    2    3    3    0    0 -0.75123518582E+02  0.17430516307E+03  0.80210862309E+03  0.82804901954E+03  0.79127129434E+02 0.  0.
         -6    2    1    2    0  502  0.77218836798E+02 -0.14377398433E+03  0.74819547050E+03  0.78449913960E+03  0.17031949574E+03 0.  0.
        -24    2    5    5    0    0  0.10550606615E+03 -0.63098327133E+02  0.40430250809E+03  0.43010784653E+03  0.80120613561E+02 0.  0.
          5    1    3    3  501    0 -0.20953182156E+01 -0.30531178740E+02  0.90353291729E+02  0.95510997063E+02  0.47000000000E+01 0. -1.
        -13    1    4    4    0    0 -0.61724873166E+02  0.64411807248E+02  0.45672620837E+03  0.46535757251E+03  0.00000000000E+00 0.  1.
         14    1    4    4    0    0 -0.13398645416E+02  0.10989335582E+03  0.34538241472E+03  0.36269144703E+03  0.00000000000E+00 0. -1.
         -5    1    5    5    0  502 -0.28287229352E+02 -0.80675657194E+02  0.34389296241E+03  0.35439129306E+03  0.47000000000E+01 0.  1.
         13    1    6    6    0    0  0.76503045393E+01 -0.10549507203E+02  0.25431677831E+01  0.13277310124E+02  0.00000000000E+00 0. -1.
        -14    1    6    6    0    0  0.97855761611E+02 -0.52548819930E+02  0.40175934031E+03  0.41683053641E+03  0.00000000000E+00 0.  1.
</event>
<event>
12    1  0.1628146E-001  0.1729521E+03  0.7818608E-02  0.1175154E+00
         21   -1    0    0  503  502  0.00000000000E+00  0.00000000000E+00  0.94538611509E+02  0.94538611509E+02  0.00000000000E+00 0. -1.
         21   -1    0    0  501  503 -0.00000000000E+00 -0.00000000000E+00 -0.32191517359E+03  0.32191517359E+03  0.00000000000E+00 0. -1.
          6    2    1    2  501    0  0.10489091853E+02 -0.35851281501E+01 -0.80401583222E+02  0.18948663435E+03  0.17122469395E+03 0.  0.
         24    2    3    3    0    0 -0.54204266608E+02 -0.22899207788E+02 -0.60777300047E+02  0.11902056598E+03  0.83722987815E+02 0.  0.
         -6    2    1    2    0  502 -0.10489091853E+02  0.35851281501E+01 -0.14697497885E+03  0.22696715075E+03  0.17259654955E+03 0.  0.
        -24    2    5    5    0    0 -0.61399722200E+02 -0.21869153881E+02 -0.13094659744E+03  0.16764757753E+03  0.81917721477E+02 0.  0.
          5    1    3    3  501    0  0.64693358462E+02  0.19314079638E+02 -0.19624283175E+02  0.70466068370E+02  0.47000000000E+01 0. -1.
        -13    1    4    4    0    0 -0.32825148342E+02 -0.37546462540E+02 -0.74533993679E+02  0.89680228739E+02  0.00000000000E+00 0.  1.
         14    1    4    4    0    0 -0.21379118266E+02  0.14647254751E+02  0.13756693632E+02  0.29340337238E+02  0.00000000000E+00 0. -1.
         -5    1    5    5    0  502  0.50910630347E+02  0.25454282031E+02 -0.16028381411E+02  0.59319573217E+02  0.47000000000E+01 0.  1.
         13    1    6    6    0    0 -0.17965588397E+02 -0.33043725312E+02 -0.10392157889E+02  0.39021110883E+02  0.00000000000E+00 0. -1.
        -14    1    6    6    0    0 -0.43434133803E+02  0.11174571431E+02 -0.12055443955E+03  0.12862646665E+03  0.00000000000E+00 0.  1.
</event>
<event>
12    1  0.1628146E-001  0.1734659E+03  0.7818608E-02  0.1174711E+00
         21   -1    0    0  503  502  0.00000000000E+00  0.00000000000E+00  0.13853018400E+03  0.13853018400E+03  0.00000000000E+00 0. -1.
         21   -1    0    0  501  503 -0.00000000000E+00 -0.00000000000E+00 -0.43876234875E+03  0.43876234875E+03  0.00000000000E+00 0. -1.
          6    2    1    2  501    0 -0.14105924580E+02  0.21326491422E+01 -0.35583817023E+03  0.39513202817E+03  0.17118700591E+03 0.  0.
         24    2    3    3    0    0 -0.39946532430E+02  0.60176891976E+02 -0.22727934242E+03  0.25165264517E+03  0.80350298970E+02 0.  0.
         -6    2    1    2    0  502  0.14105924580E+02 -0.21326491422E+01  0.55606005473E+02  0.18216050458E+03  0.17287827013E+03 0.  0.
        -24    2    5    5    0    0  0.24326957765E+02 -0.32346654285E+02 -0.27261026983E+02  0.93242617211E+02  0.79453855505E+02 0.  0.
          5    1    3    3  501    0  0.25840607850E+02 -0.58044242834E+02 -0.12855882781E+03  0.14347938300E+03  0.47000000000E+01 0. -1.
        -13    1    4    4    0    0 -0.63626115295E+02  0.33416398321E+02 -0.14077709615E+03  0.15806052330E+03  0.00000000000E+00 0.  1.
         14    1    4    4    0    0  0.23679582865E+02  0.26760493655E+02 -0.86502246273E+02  0.93592121867E+02  0.00000000000E+00 0. -1.
         -5    1    5    5    0  502 -0.10221033185E+02  0.30214005143E+02  0.82867032457E+02  0.88917887370E+02  0.47000000000E+01 0.  1.
         11    1    6    6    0    0  0.73883186697E+01  0.94396305215E+00  0.26641526533E+02  0.27663138922E+02  0.00000000000E+00 0. -1.
        -12    1    6    6    0    0  0.16938639095E+02 -0.33290617337E+02 -0.53902553516E+02  0.65579478289E+02  0.00000000000E+00 0.  1.
</event>
<event>
12    1  0.1628146E-001  0.2383274E+03  0.7818608E-02  0.1121119E+00
         21   -1    0    0  501  502  0.00000000000E+00  0.00000000000E+00  0.11621345327E+04  0.11621345327E+04  0.00000000000E+00 0.  1.
         21   -1    0    0  502  503 -0.00000000000E+00 -0.00000000000E+00 -0.76682136566E+02  0.76682136566E+02  0.00000000000E+00 0.  1.
         -6    2    1    2    0  503  0.16088190371E+03  0.36801401561E+02  0.16893712884E+03  0.29212958024E+03  0.17193780287E+03 0.  0.
        -24    2    3    3    0    0  0.12426116335E+02  0.15500972776E+02  0.90894846871E+02  0.12299792488E+03  0.80448292794E+02 0.  0.
          6    2    1    2  501    0 -0.16088190371E+03 -0.36801401561E+02  0.91651526731E+03  0.94668708904E+03  0.17023183969E+03 0.  0.
         24    2    5    5    0    0 -0.77608512471E+02 -0.13480432879E+02  0.75620666217E+03  0.76448043672E+03  0.79856239176E+02 0.  0.
          5    1    5    5  501    0 -0.83273391234E+02 -0.23320968681E+02  0.16030860514E+03  0.18220665232E+03  0.47000000000E+01 0. -1.
        -11    1    6    6    0    0 -0.21095309466E+02 -0.43251680582E+02  0.34599390506E+03  0.34932435113E+03  0.00000000000E+00 0.  1.
         12    1    6    6    0    0 -0.56513203005E+02  0.29771247703E+02  0.41021275711E+03  0.41515608558E+03  0.00000000000E+00 0. -1.
         -5    1    3    3    0  503  0.14845578737E+03  0.21300428785E+02  0.78042281972E+02  0.16913165536E+03  0.47000000000E+01 0.  1.
         13    1    4    4    0    0 -0.75976984823E+00  0.41994957803E+02  0.81941813459E+02  0.92079392505E+02  0.00000000000E+00 0. -1.
        -14    1    4    4    0    0  0.13185886183E+02 -0.26493985028E+02  0.89530334112E+01  0.30918532377E+02  0.00000000000E+00 0.  1.
</event>
<event>
12    1  0.1628146E-001  0.3650893E+03  0.7818608E-02  0.1056596E+00
         21   -1    0    0  503  502  0.00000000000E+00  0.00000000000E+00  0.80684033790E+03  0.80684033790E+03  0.00000000000E+00 0. -1.
         21   -1    0    0  501  503 -0.00000000000E+00 -0.00000000000E+00 -0.26381553126E+03  0.26381553126E+03  0.00000000000E+00 0. -1.
          6    2    1    2  501    0  0.25014292723E+03 -0.20425154900E+03 -0.55874315658E+02  0.36924986263E+03  0.17009803816E+03 0.  0.
         24    2    3    3    0    0  0.96896477611E+02 -0.33920996635E+02  0.97997884658E+01  0.13085491859E+03  0.80544475161E+02 0.  0.
         -6    2    1    2    0  502 -0.25014292723E+03  0.20425154900E+03  0.59889912230E+03  0.70140600653E+03  0.17029400456E+03 0.  0.
        -24    2    5    5    0    0 -0.19933379484E+03  0.19802104529E+03  0.39570323589E+03  0.49180866551E+03  0.79676950401E+02 0.  0.
          5    1    3    3  501    0  0.15324644962E+03 -0.17033055237E+03 -0.65674104124E+02  0.23839494404E+03  0.47000000000E+01 0. -1.
        -13    1    4    4    0    0  0.74103182661E+02 -0.21598483747E+02  0.43300896014E+02  0.88502789652E+02  0.00000000000E+00 0.  1.
         14    1    4    4    0    0  0.22793294950E+02 -0.12322512889E+02 -0.33501107548E+02  0.42352128938E+02  0.00000000000E+00 0. -1.
         -5    1    5    5    0  502 -0.50809132391E+02  0.62305037070E+01  0.20319588641E+03  0.20959734102E+03  0.47000000000E+01 0.  1.
         13    1    6    6    0    0 -0.97251515336E+02  0.89043736559E+02  0.25281546807E+03  0.28513559081E+03  0.00000000000E+00 0. -1.
        -14    1    6    6    0    0 -0.10208227950E+03  0.10897730874E+03  0.14288776783E+03  0.20667307469E+03  0.00000000000E+00 0.  1.
</event>
<event>
12    1  0.1628146E-001  0.2065947E+03  0.7818608E-02  0.1145361E+00
         21   -1    0    0  501  502  0.00000000000E+00  0.00000000000E+00  0.87484533029E+02  0.87484533029E+02  0.00000000000E+00 0.  1.
         21   -1    0    0  502  503 -0.00000000000E+00 -0.00000000000E+00 -0.49213402603E+03  0.49213402603E+03  0.00000000000E+00 0.  1.
         -6    2    1    2    0  503 -0.12263081115E+01 -0.11601383700E+03 -0.25789506782E+03  0.33044099193E+03  0.17094054210E+03 0.  0.
        -24    2    3    3    0    0  0.68367502934E+02 -0.85075400859E+02 -0.17001279131E+03  0.21405426635E+03  0.70731467138E+02 0.  0.
          6    2    1    2  501    0  0.12263081115E+01  0.11601383700E+03 -0.14675442518E+03  0.24917756713E+03  0.16459612524E+03 0.  0.
         24    2    5    5    0    0 -0.21332678654E+01  0.11931604261E+03 -0.17562882250E+03  0.21954629762E+03  0.55805238534E+02 0.  0.
          5    1    5    5  501    0  0.33595759769E+01 -0.33022056095E+01  0.28874397318E+02  0.29631269516E+02  0.47000000000E+01 0. -1.
        -13    1    6    6    0    0  0.10307261492E+02  0.11726476629E+03 -0.14745830250E+03  0.18868284508E+03  0.00000000000E+00 0.  1.
         14    1    6    6    0    0 -0.12440529358E+02  0.20512763241E+01 -0.28170520001E+02  0.30863452535E+02  0.00000000000E+00 0. -1.
         -5    1    3    3    0  503 -0.69593811045E+02 -0.30938436143E+02 -0.87882276509E+02  0.11638672558E+03  0.47000000000E+01 0.  1.
         13    1    4    4    0    0  0.35020943615E+02  0.33937279466E+01 -0.53055466404E+02  0.63662126860E+02  0.00000000000E+00 0. -1.
        -14    1    4    4    0    0  0.33346559319E+02 -0.88469128806E+02 -0.11695732491E+03  0.15039213949E+03  0.00000000000E+00 0.  1.
</event>
<event>
12    1  0.1628146E-001  0.1732392E+03  0.7818608E-02  0.1174907E+00
         21   -1    0    0  501  502  0.00000000000E+00  0.00000000000E+00  0.44259941743E+03  0.44259941743E+03  0.00000000000E+00 0.  1.
         21   -1    0    0  502  503 -0.00000000000E+00 -0.00000000000E+00 -0.12711992750E+03  0.12711992750E+03  0.00000000000E+00 0.  1.
         -6    2    1    2    0  503  0.21075594455E+01  0.77493738783E+01 -0.37452289246E+02  0.17724134996E+03  0.17305296173E+03 0.  0.
        -24    2    3    3    0    0  0.65715342517E+02 -0.13248704836E+02 -0.22447648895E+02  0.10843656372E+03  0.82222606315E+02 0.  0.
          6    2    1    2  501    0 -0.21075594455E+01 -0.77493738783E+01  0.35293177917E+03  0.39247799496E+03  0.17150405587E+03 0.  0.
         24    2    5    5    0    0 -0.62199899705E+01  0.35366829986E+02  0.89167209624E+02  0.12513971250E+03  0.80122752290E+02 0.  0.
          5    1    5    5  501    0  0.41124305249E+01 -0.43116203865E+02  0.26376456955E+03  0.26733828246E+03  0.47000000000E+01 0. -1.
        -13    1    6    6    0    0  0.88437152400E+01 -0.23863617423E+02  0.36288610594E+02  0.44323208306E+02  0.00000000000E+00 0.  1.
         14    1    6    6    0    0 -0.15063705210E+02  0.59230447409E+02  0.52878599030E+02  0.80816504196E+02  0.00000000000E+00 0. -1.
         -5    1    3    3    0  503 -0.63607783072E+02  0.20998078715E+02 -0.15004640350E+02  0.68804786237E+02  0.47000000000E+01 0.  1.
         11    1    4    4    0    0 -0.15145082832E+02 -0.19835956801E+02 -0.56048353295E+01  0.25578367720E+02  0.00000000000E+00 0. -1.
        -12    1    4    4    0    0  0.80860425349E+02  0.65872519642E+01 -0.16842813566E+02  0.82858196003E+02  0.00000000000E+00 0.  1.
</event>
<event>
12    1  0.1628146E-001  0.2014178E+03  0.7818608E-02  0.1148981E+00
         21   -1    0    0  503  502  0.00000000000E+00  0.00000000000E+00  0.56143798285E+03  0.56143798285E+03  0.00000000000E+00 0. -1.
         21   -1    0    0  501  503 -0.00000000000E+00 -0.00000000000E+00 -0.79151220609E+02  0.79151220609E+02  0.00000000000E+00 0. -1.
          6    2    1    2  501    0 -0.54198083463E+02  0.85075330809E+02  0.14058321800E+03  0.24394018496E+03  0.17195327414E+03 0.  0.
         24    2    3    3    0    0  0.17037543888E+02  0.33951327383E+02  0.11774306344E+02  0.88049184402E+02  0.78556056744E+02 0.  0.
         -6    2    1    2    0  502  0.54198083463E+02 -0.85075330809E+02  0.34170354424E+03  0.39664901850E+03  0.17433842827E+03 0.  0.
        -24    2    5    5    0    0  0.98372261839E+01  0.21313821358E+02  0.10701735038E+03  0.13514139539E+03  0.79116581491E+02 0.  0.
          5    1    3    3  501    0 -0.71235627351E+02  0.51124003426E+02  0.12880891166E+03  0.15589100055E+03  0.47000000000E+01 0. -1.
        -13    1    4    4    0    0  0.32519978652E+01  0.11335532114E+02  0.44449649740E+02  0.45987401976E+02  0.00000000000E+00 0.  1.
         14    1    4    4    0    0  0.13785546023E+02  0.22615795269E+02 -0.32675343397E+02  0.42061782427E+02  0.00000000000E+00 0. -1.
         -5    1    5    5    0  502  0.44360857280E+02 -0.10638915217E+03  0.23468619386E+03  0.26150762311E+03  0.47000000000E+01 0.  1.
         11    1    6    6    0    0  0.36160612462E+02  0.24670991358E+02  0.97627642912E+02  0.10699254352E+03  0.00000000000E+00 0. -1.
        -12    1    6    6    0    0 -0.26323386278E+02 -0.33571700005E+01  0.93897074685E+01  0.28148851875E+02  0.00000000000E+00 0.  1.
</event>
<event>
12    1  0.1628146E-001  0.1757797E+03  0.7818608E-02  0.1172124E+00
         21   -1    0    0  503  502  0.00000000000E+00  0.00000000000E+00  0.56786866776E+02  0.56786866776E+02  0.00000000000E+00 0.  1.
         21   -1    0    0  501  503 -0.00000000000E+00 -0.00000000000E+00 -0.60245532374E+03  0.60245532374E+03  0.00000000000E+00 0.  1.
          6    2    1    2  501    0 -0.10884767951E+02  0.29831090866E+02 -0.37775269117E+03  0.41664803934E+03  0.17288759599E+03 0.  0.
         24    2    3    3    0    0 -0.74064085161E+01  0.20818355598E+02 -0.57336988258E+02  0.96052279776E+02  0.73825818050E+02 0.  0.
         -6    2    1    2    0  502  0.10884767951E+02 -0.29831090866E+02 -0.16791576580E+03  0.24259415117E+03  0.17218549772E+03 0.  0.
        -24    2    5    5    0    0  0.43634532253E+02  0.37269571736E+02 -0.10739745665E+03  0.14636732682E+03  0.81216915006E+02 0.  0.
          5    1    3    3  501    0 -0.34783594346E+01  0.90127352680E+01 -0.32041570291E+03  0.32059575956E+03  0.47000000000E+01 0. -1.
        -13    1    4    4    0    0  0.18326088822E+02  0.18266423555E+02 -0.64267660518E+02  0.69280877228E+02  0.00000000000E+00 0.  1.
         14    1    4    4    0    0 -0.25732497338E+02  0.25519320425E+01  0.69306722600E+01  0.26771402548E+02  0.00000000000E+00 0. -1.
         -5    1    5    5    0  502 -0.32749764302E+02 -0.67100662602E+02 -0.60518309147E+02  0.96226824355E+02  0.47000000000E+01 0.  1.
         13    1    6    6    0    0  0.49279317957E+02  0.13819013246E+02 -0.11076058693E+03  0.12201362188E+03  0.00000000000E+00 0. -1.
        -14    1    6    6    0    0 -0.56447857047E+01  0.23450558490E+02  0.33631302835E+01  0.24353704943E+02  0.00000000000E+00 0.  1.
</event>
<event>
12    1  0.1628146E-001  0.2413607E+03  0.7818608E-02  0.1118990E+00
         21   -1    0    0  501  502  0.00000000000E+00  0.00000000000E+00  0.24503990847E+03  0.24503990847E+03  0.00000000000E+00 0. -1.
         21   -1    0    0  502  503 -0.00000000000E+00 -0.00000000000E+00 -0.24015385641E+03  0.24015385641E+03  0.00000000000E+00 0. -1.
         -6    2    1    2    0  503 -0.16761204370E+03 -0.25054441353E+02  0.29629338898E+02  0.24317256037E+03  0.17185305983E+03 0.  0.
        -24    2    3    3    0    0 -0.19422946067E+03 -0.21861348867E+02  0.37132655722E+02  0.21494008813E+03  0.81347436325E+02 0.  0.
          6    2    1    2  501    0  0.16761204370E+03  0.25054441353E+02 -0.24743286847E+02  0.24202120450E+03  0.17099857006E+03 0.  0.
         24    2    5    5    0    0  0.12022466192E+03 -0.31430197806E+02 -0.61136180970E+02  0.15966459484E+03  0.79456425505E+02 0.  0.
          5    1    5    5  501    0  0.47387381776E+02  0.56484639159E+02  0.36392894123E+02  0.82356609662E+02  0.47000000000E+01 0. -1.
        -13    1    6    6    0    0  0.22150151623E+02 -0.21146613111E+02 -0.52366175010E+02  0.60663207533E+02  0.00000000000E+00 0.  1.
         14    1    6    6    0    0  0.98074510299E+02 -0.10283584696E+02 -0.87700059593E+01  0.99001387309E+02  0.00000000000E+00 0. -1.
         -5    1    3    3    0  503  0.26617416971E+02 -0.31930924858E+01 -0.75033168238E+01  0.28232472248E+02  0.47000000000E+01 0.  1.
         13    1    4    4    0    0 -0.60549006772E+02 -0.15989199626E+02 -0.24973214509E+02  0.67420309764E+02  0.00000000000E+00 0. -1.
        -14    1    4    4    0    0 -0.13368045390E+03 -0.58721492407E+01  0.62105870231E+02  0.14751977836E+03  0.00000000000E+00 0.  1.
</event>
<event>
12    1  0.1628146E-001  0.1729442E+03  0.7818608E-02  0.1174888E+00
         21   -1    0    0  503  502  0.00000000000E+00  0.00000000000E+00  0.13544685815E+03  0.13544685815E+03  0.00000000000E+00 0. -1.
         21   -1    0    0  501  503 -0.00000000000E+00 -0.00000000000E+00 -0.31418664991E+03  0.31418664991E+03  0.00000000000E+00 0. -1.
          6    2    1    2  501    0  0.93405344054E+01 -0.12576262229E+02 -0.21211786627E+03  0.27349777141E+03  0.17193496974E+03 0.  0.
         24    2    3    3    0    0  0.60053631750E+01 -0.19596359586E+02 -0.23840958383E+02  0.85001911565E+02  0.78973742328E+02 0.  0.
         -6    2    1    2    0  502 -0.93405344054E+01  0.12576262229E+02  0.33378074513E+02  0.17613573666E+03  0.17223325438E+03 0.  0.
        -24    2    5    5    0    0 -0.58622997649E+02 -0.26399131313E+02 -0.30616931274E+02  0.86328758919E+02  0.48802542438E+02 0.  0.
          5    1    3    3  501    0  0.33351712303E+01  0.70200973562E+01 -0.18827690789E+03  0.18849585984E+03  0.47000000000E+01 0. -1.
        -11    1    4    4    0    0  0.38944482746E+02 -0.10038459403E+02  0.45552090455E+01  0.40474601085E+02  0.00000000000E+00 0.  1.
         12    1    4    4    0    0 -0.32939119571E+02 -0.95579001822E+01 -0.28396167429E+02  0.44527310481E+02  0.00000000000E+00 0. -1.
         -5    1    5    5    0  502  0.49282463244E+02  0.38975393542E+02  0.63995005787E+02  0.89806977740E+02  0.47000000000E+01 0.  1.
         11    1    6    6    0    0 -0.22257821599E+01  0.93539365960E+01  0.47954464840E+01  0.10744605300E+02  0.00000000000E+00 0. -1.
        -12    1    6    6    0    0 -0.56397215489E+02 -0.35753067909E+02 -0.35412377758E+02  0.75584153619E+02  0.00000000000E+00 0.  1.
</event>
<event>
12    1  0.1628146E-001  0.1968377E+03  0.7818608E-02  0.1152958E+00
         21   -1    0    0  501  502  0.00000000000E+00  0.00000000000E+00  0.33956486635E+02  0.33956486635E+02  0.00000000000E+00 0. -1.
         21   -1    0    0  502  503 -0.00000000000E+00 -0.00000000000E+00 -0.14090312838E+04  0.14090312838E+04  0.00000000000E+00 0. -1.
         -6    2    1    2    0  503 -0.81120952404E+02 -0.42923319685E+02 -0.10068879530E+04  0.10254873267E+04  0.17139978741E+03 0.  0.
        -24    2    3    3    0    0 -0.60419390790E+02 -0.87503831175E+02 -0.55313886664E+03  0.56905956682E+03  0.80986181205E+02 0.  0.
          6    2    1    2  501    0  0.81120952404E+02  0.42923319685E+02 -0.36818684421E+03  0.41750044373E+03  0.17413227150E+03 0.  0.
         24    2    5    5    0    0 -0.21908184304E+02  0.18158805620E+02 -0.69874198580E+02  0.10089215466E+03  0.66985912580E+02 0.  0.
          5    1    5    5  501    0  0.10302913671E+03  0.24764514065E+02 -0.29831264563E+03  0.31660828907E+03  0.47000000000E+01 0. -1.
        -13    1    6    6    0    0 -0.16550574118E+01 -0.12053082823E+02  0.82611324991E+01  0.14705860421E+02  0.00000000000E+00 0.  1.
         14    1    6    6    0    0 -0.20253126892E+02  0.30211888443E+02 -0.78135331079E+02  0.86186294241E+02  0.00000000000E+00 0. -1.
         -5    1    3    3    0  503 -0.20701561615E+02  0.44580511490E+02 -0.45374908636E+03  0.45642775993E+03  0.47000000000E+01 0.  1.
         11    1    4    4    0    0 -0.13116626423E+02 -0.24959847571E+02 -0.35272681886E+03  0.35385201514E+03  0.00000000000E+00 0. -1.
        -12    1    4    4    0    0 -0.47302764367E+02 -0.62543983604E+02 -0.20041204779E+03  0.21520755168E+03  0.00000000000E+00 0.  1.
</event>
<event>
12    1  0.1628146E-001  0.2174575E+03  0.7818608E-02  0.1136607E+00
         21   -1    0    0  503  502  0.00000000000E+00  0.00000000000E+00  0.31302770340E+02  0.31302770340E+02  0.00000000000E+00 0.  1.
         21   -1    0    0  501  503 -0.00000000000E+00 -0.00000000000E+00 -0.15321340376E+04  0.15321340376E+04  0.00000000000E+00 0. -1.
          6    2    1    2  501    0 -0.10655475112E+03  0.77512113459E+02 -0.90006080198E+03  0.92595746687E+03  0.17299057912E+03 0.  0.
         24    2    3    3    0    0 -0.31278426815E+02  0.83014922523E+02 -0.31261577242E+03  0.33366483761E+03  0.75721762725E+02 0.  0.
         -6    2    1    2    0  502  0.10655475112E+03 -0.77512113459E+02 -0.60077046527E+03  0.63747934107E+03  0.16760881726E+03 0.  0.
        -24    2    5    5    0    0  0.48541919185E+02  0.33216320135E+01 -0.15616905772E+03  0.18185659726E+03  0.79471354716E+02 0.  0.
          5    1    3    3  501    0 -0.75276324305E+02 -0.55028090643E+01 -0.58744502956E+03  0.59229262925E+03  0.47000000000E+01 0. -1.
        -13    1    4    4    0    0 -0.13256318456E+02 -0.26956897086E+01 -0.60243365759E+01  0.14808421699E+02  0.00000000000E+00 0.  1.
         14    1    4    4    0    0 -0.18022108359E+02  0.85710612232E+02 -0.30659143584E+03  0.31885641592E+03  0.00000000000E+00 0. -1.
         -5    1    5    5    0  502  0.58012831935E+02 -0.80833745473E+02 -0.44460140755E+03  0.45562274380E+03  0.47000000000E+01 0.  1.
         13    1    6    6    0    0 -0.19977780427E+02 -0.75873730215E+00 -0.63245150569E+02  0.66329755491E+02  0.00000000000E+00 0. -1.
        -14    1    6    6    0    0  0.68519699613E+02  0.40803693156E+01 -0.92923907155E+02  0.11552684177E+03  0.00000000000E+00 0.  1.
</event>
<event>
12    1  0.1628146E-001  0.2294058E+03  0.7818608E-02  0.1128444E+00
         21   -1    0    0  501  502  0.00000000000E+00  0.00000000000E+00  0.59509070137E+02  0.59509070137E+02  0.00000000000E+00 0.  1.
         21   -1    0    0  502  503 -0.00000000000E+00 -0.00000000000E+00 -0.12577086323E+04  0.12577086323E+04  0.00000000000E+00 0.  1.
         -6    2    1    2    0  503  0.15112757452E+03  0.21013434527E+02 -0.97873412311E+03  0.10052599187E+04  0.17130648631E+03 0.  0.
        -24    2    3    3    0    0  0.84392482267E+02  0.10562802023E+02 -0.86638820142E+03  0.87408642912E+03  0.78516916331E+02 0.  0.
          6    2    1    2  501    0 -0.15112757452E+03 -0.21013434527E+02 -0.21946543902E+03  0.31195778368E+03  0.16084611174E+03 0.  0.
         24    2    5    5    0    0 -0.13320661737E+03 -0.68418836723E+02 -0.17209110553E+03  0.24242469561E+03  0.82031971268E+02 0.  0.
          5    1    5    5  501    0 -0.17920957154E+02  0.47405402196E+02 -0.47374333495E+02  0.69533088071E+02  0.47000000000E+01 0. -1.
        -13    1    6    6    0    0 -0.10372452889E+03 -0.73447887044E+02 -0.17025279515E+03  0.21246031220E+03  0.00000000000E+00 0.  1.
         14    1    6    6    0    0 -0.29482088473E+02  0.50290503213E+01 -0.18383103815E+01  0.29964383407E+02  0.00000000000E+00 0. -1.
         -5    1    3    3    0  503  0.66735092252E+02  0.10450632504E+02 -0.11234592169E+03  0.13117348961E+03  0.47000000000E+01 0.  1.
         11    1    4    4    0    0  0.23090126842E+01 -0.24293237657E+02 -0.12549171729E+03  0.12784234058E+03  0.00000000000E+00 0. -1.
        -12    1    4    4    0    0  0.82083469583E+02  0.34856039680E+02 -0.74089648413E+03  0.74624408854E+03  0.00000000000E+00 0.  1.
</event>
<event>
12    1  0.1628146E-001  0.2532671E+03  0.7818608E-02  0.1111360E+00
         21   -1    0    0  501  502  0.00000000000E+00  0.00000000000E+00  0.28456633373E+03  0.28456633373E+03  0.00000000000E+00 0. -1.
         21   -1    0    0  502  503 -0.00000000000E+00 -0.00000000000E+00 -0.52165835139E+03  0.52165835139E+03  0.00000000000E+00 0. -1.
         -6    2    1    2    0  503  0.16414806327E+03  0.84676069852E+02 -0.42256152519E+03  0.49230879415E+03  0.17232261239E+03 0.  0.
        -24    2    3    3    0    0  0.11395804453E+03  0.66237116213E+02 -0.15372191714E+03  0.21816310687E+03  0.81184493068E+02 0.  0.
          6    2    1    2  501    0 -0.16414806327E+03 -0.84676069852E+02  0.18546950753E+03  0.31391589097E+03  0.17329057937E+03 0.  0.
         24    2    5    5    0    0 -0.41172901085E+02 -0.90383712113E+02  0.11224451951E+03  0.17059995827E+03  0.81492885592E+02 0.  0.
          5    1    5    5  501    0 -0.12297516219E+03  0.57076422617E+01  0.73224988018E+02  0.14331593270E+03  0.47000000000E+01 0. -1.
        -13    1    6    6    0    0 -0.50592474030E+02 -0.96744578359E+02  0.11534419149E+03  0.15881874694E+03  0.00000000000E+00 0.  1.
         14    1    6    6    0    0  0.94195729454E+01  0.63608662459E+01 -0.30996719809E+01  0.11781211324E+02  0.00000000000E+00 0. -1.
         -5    1    3    3    0  503  0.50190018742E+02  0.18438953639E+02 -0.26883960805E+03  0.27414568728E+03  0.47000000000E+01 0.  1.
         13    1    4    4    0    0  0.91282805178E+02  0.75785810270E+02 -0.87211189080E+02  0.14724751631E+03  0.00000000000E+00 0. -1.
        -14    1    4    4    0    0  0.22675239353E+02 -0.95486940568E+01 -0.66510728057E+02  0.70915590561E+02  0.00000000000E+00 0.  1.
</event>
<event>
12    1  0.1628146E-001  0.1778155E+03  0.7818608E-02  0.1171739E+00
         21   -1    0    0  501  502  0.00000000000E+00  0.00000000000E+00  0.66399091986E+02  0.66399091986E+02  0.00000000000E+00 0. -1.
         21   -1    0    0  502  503 -0.00000000000E+00 -0.00000000000E+00 -0.51070248615E+03  0.51070248615E+03  0.00000000000E+00 0. -1.
         -6    2    1    2    0  503 -0.15121140081E+02  0.71008086299E+01 -0.31967069233E+03  0.36579737084E+03  0.17702907846E+03 0.  0.
        -24    2    3    3    0    0  0.58455576685E+02 -0.16063157573E+02 -0.16852045109E+03  0.19603698675E+03  0.79726270838E+02 0.  0.
          6    2    1    2  501    0  0.15121140081E+02 -0.71008086299E+01 -0.12463270183E+03  0.21130420729E+03  0.16981486181E+03 0.  0.
         24    2    5    5    0    0  0.37969287761E+02 -0.63820681733E+02 -0.87248319338E+02  0.13947897557E+03  0.79544762044E+02 0.  0.
          5    1    5    5  501    0 -0.22848147681E+02  0.56719873103E+02 -0.37384382492E+02  0.71825231720E+02  0.47000000000E+01 0. -1.
        -11    1    6    6    0    0 -0.19560506539E+02 -0.43393139184E+02 -0.34322567860E+02  0.58682336429E+02  0.00000000000E+00 0.  1.
         12    1    6    6    0    0  0.57529794301E+02 -0.20427542550E+02 -0.52925751478E+02  0.80796639140E+02  0.00000000000E+00 0. -1.
         -5    1    3    3    0  503 -0.73576716766E+02  0.23163966203E+02 -0.15115024124E+03  0.16976038409E+03  0.47000000000E+01 0.  1.
         11    1    4    4    0    0  0.26595486936E+02 -0.37087534840E+02 -0.14303493251E+03  0.15013925897E+03  0.00000000000E+00 0. -1.
        -12    1    4    4    0    0  0.31860089749E+02  0.21024377267E+02 -0.25485518586E+02  0.45897727786E+02  0.00000000000E+00 0.  1.
</event>
<event>
12    1  0.1628146E-001  0.3296819E+03  0.7818608E-02  0.1071419E+00
         21   -1    0    0  501  502  0.00000000000E+00  0.00000000000E+00  0.67477303039E+03  0.67477303039E+03  0.00000000000E+00 0.  1.
         21   -1    0    0  502  503 -0.00000000000E+00 -0.00000000000E+00 -0.24932758519E+03  0.24932758519E+03  0.00000000000E+00 0.  1.
         -6    2    1    2    0  503 -0.22830189152E+03  0.16191390894E+03 -0.63405132371E+02  0.33446935962E+03  0.17178962174E+03 0.  0.
        -24    2    3    3    0    0 -0.10868833626E+03  0.13994541695E+03 -0.82341644501E+02  0.21129996922E+03  0.80434174369E+02 0.  0.
          6    2    1    2  501    0  0.22830189152E+03 -0.16191390894E+03  0.48885057757E+03  0.58963125596E+03  0.17421900939E+03 0.  0.
         24    2    5    5    0    0  0.23703638259E+03 -0.17538046296E+03  0.42374423604E+03  0.52241098284E+03  0.80059377655E+02 0.  0.
          5    1    5    5  501    0 -0.87344910734E+01  0.13466554017E+02  0.65106341532E+02  0.67220273125E+02  0.47000000000E+01 0. -1.
        -11    1    6    6    0    0  0.66558834997E+02 -0.95994488946E+02  0.17941457250E+03  0.21409018953E+03  0.00000000000E+00 0.  1.
         12    1    6    6    0    0  0.17047754760E+03 -0.79385974009E+02  0.24432966354E+03  0.30832079331E+03  0.00000000000E+00 0. -1.
         -5    1    3    3    0  503 -0.11961355526E+03  0.21968491985E+02  0.18936512130E+02  0.12316939040E+03  0.47000000000E+01 0.  1.
         11    1    4    4    0    0 -0.70699524527E+02  0.27596126100E+02 -0.35497859631E+02  0.83785839988E+02  0.00000000000E+00 0. -1.
        -12    1    4    4    0    0 -0.37988811737E+02  0.11234929085E+03 -0.46843784870E+02  0.12751412923E+03  0.00000000000E+00 0.  1.
</event>
<event>
12    1  0.1628146E-001  0.2297021E+03  0.7818608E-02  0.1127021E+00
         21   -1    0    0  503  502  0.00000000000E+00  0.00000000000E+00  0.88009166104E+03  0.88009166104E+03  0.00000000000E+00 0.  1.
         21   -1    0    0  501  503 -0.00000000000E+00 -0.00000000000E+00 -0.29865669283E+03  0.29865669283E+03  0.00000000000E+00 0.  1.
          6    2    1    2  501    0  0.27940993672E+02  0.14854917866E+03 -0.23659306713E+03  0.32908198854E+03  0.17167154150E+03 0.  0.
         24    2    3    3    0    0  0.57364997916E+02  0.89221423279E+02 -0.22406396127E+03  0.26151999421E+03  0.83287713811E+02 0.  0.
         -6    2    1    2    0  502 -0.27940993672E+02 -0.14854917866E+03  0.81802803533E+03  0.84966636534E+03  0.17296100192E+03 0.  0.
        -24    2    5    5    0    0 -0.44450257658E+02 -0.11736405521E+03  0.79113539854E+03  0.80505278405E+03  0.80402857013E+02 0.  0.
          5    1    3    3  501    0 -0.29424004244E+02  0.59327755383E+02 -0.12529105857E+02  0.67561994332E+02  0.47000000000E+01 0. -1.
        -11    1    4    4    0    0  0.77330729093E+01  0.83781492457E+02 -0.12655692831E+03  0.15197300747E+03  0.00000000000E+00 0.  1.
         12    1    4    4    0    0  0.49631925007E+02  0.54399308216E+01 -0.97507032958E+02  0.10954698674E+03  0.00000000000E+00 0. -1.
         -5    1    5    5    0  502  0.16509263987E+02 -0.31185123447E+02  0.26892636790E+02  0.44613581288E+02  0.47000000000E+01 0.  1.
         13    1    6    6    0    0 -0.36993875614E+02 -0.33246248120E+02  0.14223863024E+03  0.15068406612E+03  0.00000000000E+00 0. -1.
        -14    1    6    6    0    0 -0.74563820444E+01 -0.84117807094E+02  0.64889676830E+03  0.65436871794E+03  0.00000000000E+00 0.  1.
</event>
<event>
12    1  0.1628146E-001  0.1758260E+03  0.7818608E-02  0.1173480E+00
         21   -1    0    0  503  502  0.00000000000E+00  0.00000000000E+00  0.10270889198E+03  0.10270889198E+03  0.00000000000E+00 0.  1.
         21   -1    0    0  501  503 -0.00000000000E+00 -0.00000000000E+00 -0.29275465510E+03  0.29275465510E+03  0.00000000000E+00 0. -1.
          6    2    1    2  501    0  0.26495198858E+02 -0.26653092269E+02 -0.79298375138E+02  0.19288082595E+03  0.17176262058E+03 0.  0.
         24    2    3    3    0    0  0.11443850589E+02 -0.46135407991E+02  0.12415756852E+02  0.97803616706E+02  0.84569254671E+02 0.  0.
         -6    2    1    2    0  502 -0.26495198858E+02  0.26653092269E+02 -0.11074738798E+03  0.20258272112E+03  0.16541581564E+03 0.  0.
        -24    2    5    5    0    0 -0.60311913031E+02  0.50515420817E+02 -0.11428261627E+03  0.16077878925E+03  0.81240187691E+02 0.  0.
          5    1    3    3  501    0  0.15051348269E+02  0.19482315723E+02 -0.91714131991E+02  0.95077209243E+02  0.47000000000E+01 0. -1.
        -13    1    4    4    0    0  0.39206584369E+02 -0.55267216242E+02  0.76575667594E+01  0.68192813241E+02  0.00000000000E+00 0.  1.
         14    1    4    4    0    0 -0.27762733780E+02  0.91318082504E+01  0.47581900928E+01  0.29610803465E+02  0.00000000000E+00 0. -1.
         -5    1    5    5    0  502  0.33816714173E+02 -0.23862328549E+02  0.35352282931E+01  0.41803931876E+02  0.47000000000E+01 0.  1.
         11    1    6    6    0    0 -0.49141969724E+01 -0.14572181468E+02 -0.54105203582E+02  0.56248296501E+02  0.00000000000E+00 0. -1.
        -12    1    6    6    0    0 -0.55397716058E+02  0.65087602286E+02 -0.60177412691E+02  0.10453049275E+03  0.00000000000E+00 0.  1.
</event>
<event>
12    1  0.1628146E-001  0.1758368E+03  0.7818608E-02  0.1174306E+00
         21   -1    0    0  503  502  0.00000000000E+00  0.00000000000E+00  0.83611111365E+02  0.83611111365E+02  0.00000000000E+00 0.  1.
         21   -1    0    0  501  503 -0.00000000000E+00 -0.00000000000E+00 -0.45110503090E+03  0.45110503090E+03  0.00000000000E+00 0.  1.
          6    2    1    2  501    0 -0.15652847081E+02 -0.18944889526E+02 -0.31399951584E+03  0.35988090501E+03  0.17411102602E+03 0.  0.
         24    2    3    3    0    0  0.53774651869E+01 -0.64743560829E+02 -0.12165352663E+03  0.16098680783E+03  0.83045324692E+02 0.  0.
         -6    2    1    2    0  502  0.15652847081E+02  0.18944889526E+02 -0.53494403694E+02  0.17483523726E+03  0.16462620842E+03 0.  0.
        -24    2    5    5    0    0 -0.22667322991E+02  0.42336580579E+02  0.13863990144E+02  0.93749789332E+02  0.79313423772E+02 0.  0.
          5    1    3    3  501    0 -0.21030312268E+02  0.45798671303E+02 -0.19234598921E+03  0.19889409717E+03  0.47000000000E+01 0. -1.
        -11    1    4    4    0    0  0.15552131218E+02 -0.61777755180E+02 -0.33080844332E+02  0.71782324302E+02  0.00000000000E+00 0.  1.
         12    1    4    4    0    0 -0.10174666031E+02 -0.29658056492E+01 -0.88572682300E+02  0.89204483530E+02  0.00000000000E+00 0. -1.
         -5    1    5    5    0  502  0.38320170072E+02 -0.23391691052E+02 -0.67358393838E+02  0.81085447924E+02  0.47000000000E+01 0.  1.
         13    1    6    6    0    0 -0.51486114435E+02  0.19110735215E+02  0.22776554723E+01  0.54965697435E+02  0.00000000000E+00 0. -1.
        -14    1    6    6    0    0  0.28818791444E+02  0.23225845363E+02  0.11586334671E+02  0.38784091897E+02  0.00000000000E+00 0.  1.
</event>
<event>
12    1  0.1628146E-001  0.1740303E+03  0.7818608E-02  0.1173896E+00
         21   -1    0    0  503  502  0.00000000000E+00  0.00000000000E+00  0.12139519149E+03  0.12139519149E+03  0.00000000000E+00 0.  1.
         21   -1    0    0  501  503 -0.00000000000E+00 -0.00000000000E+00 -0.44625166705E+03  0.44625166705E+03  0.00000000000E+00 0.  1.
          6    2    1    2  501    0 -0.23398345743E+02  0.11327578855E+02 -0.35158986827E+03  0.39230341201E+03  0.17207770041E+03 0.  0.
         24    2    3    3    0    0  0.22422710431E+02  0.20068238370E+02 -0.82777048032E+02  0.11943276382E+03  0.80663704720E+02 0.  0.
         -6    2    1    2    0  502  0.23398345743E+02 -0.11327578855E+02  0.26733392714E+02  0.17534344653E+03  0.17133258105E+03 0.  0.
        -24    2    5    5    0    0 -0.34570845048E+02 -0.45916328795E+02  0.37542689967E+02  0.10681797965E+03  0.81836267206E+02 0.  0.
          5    1    3    3  501    0 -0.45821056173E+02 -0.87406595144E+01 -0.26881282024E+03  0.27287064819E+03  0.47000000000E+01 0. -1.
        -11    1    4    4    0    0  0.43349643309E+02  0.87308223562E+01 -0.13582206929E+02  0.46259001061E+02  0.00000000000E+00 0.  1.
         12    1    4    4    0    0 -0.20926932878E+02  0.11337416013E+02 -0.69194841103E+02  0.73173762763E+02  0.00000000000E+00 0. -1.
         -5    1    5    5    0  502  0.57969190790E+02  0.34588749940E+02 -0.10809297253E+02  0.68525466875E+02  0.47000000000E+01 0.  1.
         11    1    6    6    0    0 -0.24661945156E+02 -0.23731103772E+02 -0.23232495809E+02  0.41365754999E+02  0.00000000000E+00 0. -1.
        -12    1    6    6    0    0 -0.99088998913E+01 -0.22185225023E+02  0.60775185775E+02  0.65452224656E+02  0.00000000000E+00 0.  1.
</event>
<event>
12    1  0.1628146E-001  0.2013126E+03  0.7818608E-02  0.1149203E+00
         21   -1    0    0  501  502  0.00000000000E+00  0.00000000000E+00  0.81408521114E+03  0.81408521114E+03  0.00000000000E+00 0. -1.
         21   -1    0    0  502  503 -0.00000000000E+00 -0.00000000000E+00 -0.51934305771E+02  0.51934305771E+02  0.00000000000E+00 0.  1.
         -6    2    1    2    0  503 -0.82568306212E+02  0.58204735193E+02  0.28268745689E+03  0.34704317760E+03  0.17413056150E+03 0.  0.
        -24    2    3    3    0    0 -0.12082449778E+03  0.37697606721E+02  0.17087182579E+03  0.22700608388E+03  0.79466423428E+02 0.  0.
          6    2    1    2  501    0  0.82568306212E+02 -0.58204735193E+02  0.47946344848E+03  0.51897633931E+03  0.17101440275E+03 0.  0.
         24    2    5    5    0    0 -0.27219014520E+02 -0.50414076459E+02  0.22312538898E+03  0.23996873923E+03  0.67213114359E+02 0.  0.
          5    1    5    5  501    0  0.10978732073E+03 -0.77906587335E+01  0.25633805950E+03  0.27900760009E+03  0.47000000000E+01 0. -1.
        -13    1    6    6    0    0 -0.16295289651E+02 -0.56588217780E+02  0.21897095544E+03  0.22675105773E+03  0.00000000000E+00 0.  1.
         14    1    6    6    0    0 -0.10923724868E+02  0.61741413208E+01  0.41544335401E+01  0.13217681494E+02  0.00000000000E+00 0. -1.
         -5    1    3    3    0  503  0.38256191567E+02  0.20507128472E+02  0.11181563110E+03  0.12003709373E+03  0.47000000000E+01 0.  1.
         11    1    4    4    0    0 -0.14647482188E+02  0.19299531603E+01 -0.73432380786E+01  0.16498381713E+02  0.00000000000E+00 0. -1.
        -12    1    4    4    0    0 -0.10617701559E+03  0.35767653561E+02  0.17821506387E+03  0.21050770216E+03  0.00000000000E+00 0.  1.
</event>
<event>
12    1  0.1628146E-001  0.1807977E+03  0.7818608E-02  0.1168047E+00
         21   -1    0    0  503  502  0.00000000000E+00  0.00000000000E+00  0.13515647837E+04  0.13515647837E+04  0.00000000000E+00 0.  1.
         21   -1    0    0  501  503 -0.00000000000E+00 -0.00000000000E+00 -0.40458309092E+02  0.40458309092E+02  0.00000000000E+00 0.  1.
          6    2    1    2  501    0 -0.27583592387E+02  0.47005163120E+02  0.21117004157E+03  0.27799387083E+03  0.17238754547E+03 0.  0.
         24    2    3    3    0    0 -0.55159242212E+02  0.86281867164E+02  0.13085902943E+03  0.18431876947E+03  0.79763529220E+02 0.  0.
         -6    2    1    2    0  502  0.27583592387E+02 -0.47005163120E+02  0.10999364330E+04  0.11140292219E+04  0.16801967364E+03 0.  0.
        -24    2    5    5    0    0  0.22333744379E+02 -0.54253601065E+02  0.34912649494E+03  0.36315123327E+03  0.80915136957E+02 0.  0.
          5    1    3    3  501    0  0.27575649825E+02 -0.39276704043E+02  0.80311012144E+02  0.93675101363E+02  0.47000000000E+01 0. -1.
        -13    1    4    4    0    0 -0.10513091707E+02  0.66617647345E+02  0.11445979985E+03  0.13285135233E+03  0.00000000000E+00 0.  1.
         14    1    4    4    0    0 -0.44646150505E+02  0.19664219818E+02  0.16399229577E+02  0.51467417136E+02  0.00000000000E+00 0. -1.
         -5    1    5    5    0  502  0.52498480085E+01  0.72484379446E+01  0.75080993806E+03  0.75087798865E+03  0.47000000000E+01 0.  1.
         11    1    6    6    0    0  0.43514862812E+02 -0.38249331247E+02  0.31301448854E+03  0.31833099859E+03  0.00000000000E+00 0. -1.
        -12    1    6    6    0    0 -0.21181118434E+02 -0.16004269818E+02  0.36112006400E+02  0.44820234680E+02  0.00000000000E+00 0.  1.
</event>
<event>
12    1  0.1628146E-001  0.1727599E+03  0.7818608E-02  0.1175064E+00
         21   -1    0    0  501  502  0.00000000000E+00  0.00000000000E+00  0.12558458460E+03  0.12558458460E+03  0.00000000000E+00 0.  1.
         21   -1    0    0  502  503 -0.00000000000E+00 -0.00000000000E+00 -0.24606000769E+03  0.24606000769E+03  0.00000000000E+00 0.  1.
         -6    2    1    2    0  503  0.35543528778E+01 -0.17845989481E+02 -0.95230267785E+02  0.19704995016E+03  0.17154814541E+03 0.  0.
        -24    2    3    3    0    0 -0.44155274710E+02 -0.53663220553E+02 -0.37552090718E+02  0.11393590372E+03  0.82108471637E+02 0.  0.
          6    2    1    2  501    0 -0.35543528778E+01  0.17845989481E+02 -0.25245155308E+02  0.17459464212E+03  0.17179888948E+03 0.  0.
         24    2    5    5    0    0 -0.35488921506E+02 -0.12059367169E+02 -0.68796281902E+02  0.11268391884E+03  0.80992871756E+02 0.  0.
          5    1    5    5  501    0  0.31934568628E+02  0.29905356650E+02  0.43551126594E+02  0.61910723283E+02  0.47000000000E+01 0. -1.
        -13    1    6    6    0    0 -0.25897752195E+02  0.11001756061E+02  0.10125673812E+02  0.29904204977E+02  0.00000000000E+00 0.  1.
         14    1    6    6    0    0 -0.95911693105E+01 -0.23061123230E+02 -0.78921955714E+02  0.82779713862E+02  0.00000000000E+00 0. -1.
         -5    1    3    3    0  503  0.47709627588E+02  0.35817231071E+02 -0.57678177068E+02  0.83114046443E+02  0.47000000000E+01 0.  1.
         11    1    4    4    0    0  0.55839166287E+01  0.17098059327E+02  0.32886082841E+01  0.18284931012E+02  0.00000000000E+00 0. -1.
        -12    1    4    4    0    0 -0.49739191339E+02 -0.70761279880E+02 -0.40840699002E+02  0.95650972709E+02  0.00000000000E+00 0.  1.
</event>
<event>
12    1  0.1628146E-001  0.1928231E+03  0.7818608E-02  0.1156104E+00
         21   -1    0    0  503  502  0.00000000000E+00  0.00000000000E+00  0.10247026908E+03  0.10247026908E+03  0.00000000000E+00 0. -1.
         21   -1    0    0  501  503 -0.00000000000E+00 -0.00000000000E+00 -0.41026864676E+03  0.41026864676E+03  0.00000000000E+00 0. -1.
          6    2    1    2  501    0 -0.81937902905E+02 -0.27865840056E+02 -0.24259564778E+03  0.30989254486E+03  0.17230907132E+03 0.  0.
         24    2    3    3    0    0 -0.40843664876E+02 -0.69608792776E+02 -0.21699582474E+03  0.24579378168E+03  0.82545782235E+02 0.  0.
         -6    2    1    2    0  502  0.81937902905E+02  0.27865840056E+02 -0.65202729898E+02  0.20284637099E+03  0.17147865542E+03 0.  0.
        -24    2    5    5    0    0  0.68084664051E+02  0.82140176057E+02 -0.26560117447E+02  0.13463378218E+03  0.77706405554E+02 0.  0.
          5    1    3    3  501    0 -0.41094238030E+02  0.41742952721E+02 -0.25599823048E+02  0.64098763179E+02  0.47000000000E+01 0. -1.
        -13    1    4    4    0    0 -0.30064318128E+02 -0.56269686856E+01 -0.15864372370E+02  0.34455831317E+02  0.00000000000E+00 0.  1.
         14    1    4    4    0    0 -0.10779346748E+02 -0.63981824091E+02 -0.20113145237E+03  0.21133795036E+03  0.00000000000E+00 0. -1.
         -5    1    5    5    0  502  0.13853238854E+02 -0.54274336001E+02 -0.38642612451E+02  0.68212588810E+02  0.47000000000E+01 0.  1.
         11    1    6    6    0    0  0.39415802143E+02  0.96207082830E+01  0.18476926716E+02  0.44582062619E+02  0.00000000000E+00 0. -1.
        -12    1    6    6    0    0  0.28668861907E+02  0.72519467774E+02 -0.45037044163E+02  0.90051719563E+02  0.00000000000E+00 0.  1.
</event>
<event>
12    1  0.1628146E-001  0.2071956E+03  0.7818608E-02  0.1144062E+00
         21   -1    0    0  503  502  0.00000000000E+00  0.00000000000E+00  0.22464356815E+03  0.22464356815E+03  0.00000000000E+00 0.  1.
         21   -1    0    0  501  503 -0.00000000000E+00 -0.00000000000E+00 -0.19592098232E+03  0.19592098232E+03  0.00000000000E+00 0. -1.
          6    2    1    2  501    0 -0.28252689656E+02 -0.11011574472E+03 -0.22429756982E+02  0.20714810401E+03  0.17170774965E+03 0.  0.
         24    2    3    3    0    0 -0.83557666615E+02 -0.80043758037E+02 -0.34722286590E+01  0.14123571717E+03  0.80910967007E+02 0.  0.
         -6    2    1    2    0  502  0.28252689656E+02  0.11011574472E+03  0.51152342819E+02  0.21341644645E+03  0.17322334061E+03 0.  0.
        -24    2    5    5    0    0 -0.34058342182E+02  0.11164071119E+02  0.35098042071E+02  0.95289696862E+02  0.81016335480E+02 0.  0.
          5    1    3    3  501    0  0.55304976959E+02 -0.30071986682E+02 -0.18957528323E+02  0.65912386845E+02  0.47000000000E+01 0. -1.
        -11    1    4    4    0    0 -0.86812536514E+02 -0.65558374402E+02 -0.28210853993E+02  0.11238402570E+03  0.00000000000E+00 0.  1.
         12    1    4    4    0    0  0.32548698988E+01 -0.14485383635E+02  0.24738625334E+02  0.28851691468E+02  0.00000000000E+00 0. -1.
         -5    1    5    5    0  502  0.62311031837E+02  0.98951673599E+02  0.16054300748E+02  0.11812674959E+03  0.47000000000E+01 0.  1.
         13    1    6    6    0    0 -0.21697928863E+01 -0.33406167899E+02  0.94699079030E+01  0.34790217168E+02  0.00000000000E+00 0. -1.
        -14    1    6    6    0    0 -0.31888549295E+02  0.44570239019E+02  0.25628134168E+02  0.60499479694E+02  0.00000000000E+00 0.  1.
</event>
<event>
12    1  0.1628146E-001  0.2135377E+03  0.7818608E-02  0.1139158E+00
         21   -1    0    0  501  502  0.00000000000E+00  0.00000000000E+00  0.32229258665E+02  0.32229258665E+02  0.00000000000E+00 0. -1.
         21   -1    0    0  502  503 -0.00000000000E+00 -0.00000000000E+00 -0.17938224312E+04  0.17938224312E+04  0.00000000000E+00 0.  1.
         -6    2    1    2    0  503  0.32463511008E+02 -0.12178947402E+03 -0.13042290837E+04  0.13212940681E+04  0.17005280326E+03 0.  0.
        -24    2    3    3    0    0  0.57804594817E+02 -0.10380778134E+03 -0.12541792324E+04  0.12621959342E+04  0.77817753945E+02 0.  0.
          6    2    1    2  501    0 -0.32463511008E+02  0.12178947402E+03 -0.45736408883E+03  0.50475762184E+03  0.17237108668E+03 0.  0.
         24    2    5    5    0    0  0.30550905592E+02  0.11441145733E+03 -0.25330431591E+03  0.29101073238E+03  0.80627727855E+02 0.  0.
          5    1    5    5  501    0 -0.63014416600E+02  0.73780166845E+01 -0.20405977292E+03  0.21374688946E+03  0.47000000000E+01 0. -1.
        -13    1    6    6    0    0  0.50969688651E+02  0.36426524957E+02 -0.11034796909E+03  0.12689158823E+03  0.00000000000E+00 0.  1.
         14    1    6    6    0    0 -0.20418783059E+02  0.77984932377E+02 -0.14295634682E+03  0.16411914415E+03  0.00000000000E+00 0. -1.
         -5    1    3    3    0  503 -0.25341083809E+02 -0.17981692680E+02 -0.50049851363E+02  0.59098133826E+02  0.47000000000E+01 0.  1.
         11    1    4    4    0    0  0.14993322076E+02 -0.96776358557E+02 -0.80826726395E+03  0.81417837926E+03  0.00000000000E+00 0. -1.
        -12    1    4    4    0    0  0.42811272741E+02 -0.70314227815E+01 -0.44591196843E+03  0.44801755498E+03  0.00000000000E+00 0.  1.
</event>
<event>
12    1  0.1628146E-001  0.2030896E+03  0.7818608E-02  0.1147407E+00
         21   -1    0    0  501  502  0.00000000000E+00  0.00000000000E+00  0.78697733458E+02  0.78697733458E+02  0.00000000000E+00 0.  1.
         21   -1    0    0  502  503 -0.00000000000E+00 -0.00000000000E+00 -0.61385188466E+03  0.61385188466E+03  0.00000000000E+00 0. -1.
         -6    2    1    2    0  503  0.10481189648E+03  0.17734672330E+02 -0.40157194160E+03  0.44946613872E+03  0.17163837955E+03 0.  0.
        -24    2    3    3    0    0 -0.13102951785E+02  0.12381254333E+02 -0.18030232831E+03  0.19863770674E+03  0.81381976765E+02 0.  0.
          6    2    1    2  501    0 -0.10481189648E+03 -0.17734672330E+02 -0.13358220960E+03  0.24308347939E+03  0.17304715827E+03 0.  0.
         24    2    5    5    0    0 -0.70376861460E+02  0.25950899909E+01 -0.94036549422E+01  0.11254048146E+03  0.87277111084E+02 0.  0.
          5    1    5    5  501    0 -0.34435035018E+02 -0.20329762321E+02 -0.12417855466E+03  0.13054299793E+03  0.47000000000E+01 0. -1.
        -13    1    6    6    0    0 -0.63064294669E+02  0.38656396228E+02  0.20694044300E+01  0.73998004474E+02  0.00000000000E+00 0.  1.
         14    1    6    6    0    0 -0.73125667911E+01 -0.36061306237E+02 -0.11473059372E+02  0.38542476983E+02  0.00000000000E+00 0. -1.
         -5    1    3    3    0  503  0.11791484826E+03  0.53534179966E+01 -0.22126961329E+03  0.25082843198E+03  0.47000000000E+01 0.  1.
         11    1    4    4    0    0  0.82177312430E+01  0.39997237501E+02 -0.13740607003E+03  0.14334482271E+03  0.00000000000E+00 0. -1.
        -12    1    4    4    0    0 -0.21320683028E+02 -0.27615983168E+02 -0.42896258276E+02  0.55292884038E+02  0.00000000000E+00 0.  1.
</event>
<event>
12    1  0.1628146E-001  0.1940537E+03  0.7818608E-02  0.1155823E+00
         21   -1    0    0  503  502  0.00000000000E+00  0.00000000000E+00  0.77990381672E+03  0.77990381672E+03  0.00000000000E+00 0. -1.
         21   -1    0    0  501  503 -0.00000000000E+00 -0.00000000000E+00 -0.83343528427E+02  0.83343528427E+02  0.00000000000E+00 0.  1.
          6    2    1    2  501    0  0.88937950524E+00 -0.84199049946E+02  0.61834283445E+02  0.19952003292E+03  0.16998380487E+03 0.  0.
         24    2    3    3    0    0 -0.30239605040E+02 -0.87691230224E+02  0.10293914481E+03  0.14762679030E+03  0.50921666383E+02 0.  0.
         -6    2    1    2    0  502 -0.88937950524E+00  0.84199049946E+02  0.63472600485E+03  0.66372731223E+03  0.17483298532E+03 0.  0.
        -24    2    5    5    0    0 -0.51760599548E+02  0.97728783321E+02  0.37484014129E+03  0.39852232209E+03  0.78005351932E+02 0.  0.
          5    1    3    3  501    0  0.31128984545E+02  0.34921802783E+01 -0.41104861368E+02  0.51893242624E+02  0.47000000000E+01 0. -1.
        -11    1    4    4    0    0 -0.23903294757E+02 -0.66312347524E+02  0.40432087510E+02  0.81261606154E+02  0.00000000000E+00 0.  1.
         12    1    4    4    0    0 -0.63363102831E+01 -0.21378882700E+02  0.62507057303E+02  0.66365184142E+02  0.00000000000E+00 0. -1.
         -5    1    5    5    0  502  0.50871220042E+02 -0.13529733375E+02  0.25988586356E+03  0.26520499014E+03  0.47000000000E+01 0.  1.
         11    1    6    6    0    0  0.18082414693E+02  0.10597528871E+02  0.93725283025E+02  0.96040147946E+02  0.00000000000E+00 0. -1.
        -12    1    6    6    0    0 -0.69843014240E+02  0.87131254450E+02  0.28111485826E+03  0.30248217415E+03  0.00000000000E+00 0.  1.
</event>
<event>
12    1  0.1628146E-001  0.1963272E+03  0.7818608E-02  0.1152902E+00
         21   -1    0    0  503  502  0.00000000000E+00  0.00000000000E+00  0.12334982078E+04  0.12334982078E+04  0.00000000000E+00 0.  1.
         21   -1    0    0  501  503 -0.00000000000E+00 -0.00000000000E+00 -0.36628821300E+02  0.36628821300E+02  0.00000000000E+00 0.  1.
          6    2    1    2  501    0 -0.79898169845E+02  0.51225928923E+02  0.35474411079E+03  0.40544760462E+03  0.17186204528E+03 0.  0.
         24    2    3    3    0    0  0.48058907628E+01  0.73360937175E+02  0.19745529895E+03  0.22537373976E+03  0.79998773738E+02 0.  0.
         -6    2    1    2    0  502  0.79898169845E+02 -0.51225928923E+02  0.84212527570E+03  0.86467942448E+03  0.17171987014E+03 0.  0.
        -24    2    5    5    0    0  0.72754813402E+01 -0.31779818098E+01  0.62832083919E+03  0.63377449343E+03  0.82583287494E+02 0.  0.
          5    1    3    3  501    0 -0.84704060608E+02 -0.22135008252E+02  0.15728881184E+03  0.18007386486E+03  0.47000000000E+01 0. -1.
        -11    1    4    4    0    0 -0.19159179988E+02  0.65294032221E+02  0.79074203691E+02  0.10432216692E+03  0.00000000000E+00 0.  1.
         12    1    4    4    0    0  0.23965070751E+02  0.80669049539E+01  0.11838109526E+03  0.12105157284E+03  0.00000000000E+00 0. -1.
         -5    1    5    5    0  502  0.72622688505E+02 -0.48047947113E+02  0.21380443652E+03  0.23090493105E+03  0.47000000000E+01 0.  1.
         13    1    6    6    0    0 -0.32749738128E+02 -0.89394783310E+01  0.15222629864E+03  0.15596571937E+03  0.00000000000E+00 0. -1.
        -14    1    6    6    0    0  0.40025219468E+02  0.57614965212E+01  0.47609454055E+03  0.47780877407E+03  0.00000000000E+00 0.  1.
</event>
<event>
12    1  0.1628146E-001  0.1988656E+03  0.7818608E-02  0.1153557E+00
         21   -1    0    0  503  502  0.00000000000E+00  0.00000000000E+00  0.13497184037E+04  0.13497184037E+04  0.00000000000E+00 0.  1.
         21   -1    0    0  501  503 -0.00000000000E+00 -0.00000000000E+00 -0.28377157162E+02  0.28377157162E+02  0.00000000000E+00 0.  1.
          6    2    1    2  501    0  0.36410971461E+02  0.58566756108E+02  0.51273474078E+03  0.54539391751E+03  0.17263194110E+03 0.  0.
         24    2    3    3    0    0  0.74450244749E+02  0.24076272331E+02  0.21026966786E+03  0.23856531695E+03  0.81102228067E+02 0.  0.
         -6    2    1    2    0  502 -0.36410971461E+02 -0.58566756108E+02  0.80860650576E+03  0.83270164335E+03  0.18652539218E+03 0.  0.
        -24    2    5    5    0    0  0.16149724216E+02  0.37146149726E+02  0.37732433724E+03  0.38778593678E+03  0.79772346465E+02 0.  0.
          5    1    3    3  501    0 -0.38039273288E+02  0.34490483777E+02  0.30246507292E+03  0.30682860056E+03  0.47000000000E+01 0. -1.
        -11    1    4    4    0    0  0.74737890098E+02  0.45729741989E+02  0.18845345707E+03  0.20782604986E+03  0.00000000000E+00 0.  1.
         12    1    4    4    0    0 -0.28764534828E+00 -0.21653469658E+02  0.21816210790E+02  0.30739267091E+02  0.00000000000E+00 0. -1.
         -5    1    5    5    0  502 -0.52560695677E+02 -0.95712905833E+02  0.43128216852E+03  0.44491570658E+03  0.47000000000E+01 0.  1.
         13    1    6    6    0    0  0.18563770619E+02  0.10761408431E+02  0.19537915486E+02  0.29019848941E+02  0.00000000000E+00 0. -1.
        -14    1    6    6    0    0 -0.24140464028E+01  0.26384741294E+02  0.35778642175E+03  0.35876608784E+03  0.00000000000E+00 0.  1.
</event>
<event>
12    1  0.1628146E-001  0.2362175E+03  0.7818608E-02  0.1122757E+00
         21   -1    0    0  501  502  0.00000000000E+00  0.00000000000E+00  0.78098572865E+03  0.78098572865E+03  0.00000000000E+00 0. -1.
         21   -1    0    0  502  503 -0.00000000000E+00 -0.00000000000E+00 -0.33746525521E+03  0.33746525521E+03  0.00000000000E+00 0.  1.
         -6    2    1    2    0  503 -0.15697069214E+03  0.46245714944E+00 -0.27567868692E+03  0.36145287672E+03  0.17323230534E+03 0.  0.
        -24    2    3    3    0    0 -0.32849546533E+02 -0.37490503960E+02 -0.16655256459E+03  0.19181477187E+03  0.81046402399E+02 0.  0.
          6    2    1    2  501    0  0.15697069214E+03 -0.46245714944E+00  0.71919916036E+03  0.75699810714E+03  0.17651824238E+03 0.  0.
         24    2    5    5    0    0  0.13673565867E+03 -0.39044901398E+02  0.36063503524E+03  0.39576634856E+03  0.79700874106E+02 0.  0.
          5    1    5    5  501    0  0.20235033471E+02  0.38582444249E+02  0.35856412512E+03  0.36123175858E+03  0.47000000000E+01 0. -1.
        -13    1    6    6    0    0  0.30538429379E+02 -0.46137885460E+02  0.14745238008E+03  0.15749128400E+03  0.00000000000E+00 0.  1.
         14    1    6    6    0    0  0.10619722929E+03  0.70929840613E+01  0.21318265516E+03  0.23827506456E+03  0.00000000000E+00 0. -1.
         -5    1    3    3    0  503 -0.12412114561E+03  0.37952961109E+02 -0.10912612233E+03  0.16963810485E+03  0.47000000000E+01 0.  1.
         13    1    4    4    0    0 -0.47667413669E+02 -0.37300311050E+02 -0.63587462260E+02  0.87788728701E+02  0.00000000000E+00 0. -1.
        -14    1    4    4    0    0  0.14817867136E+02 -0.19019291051E+00 -0.10296510233E+03  0.10402604317E+03  0.00000000000E+00 0.  1.
</event>
<event>
12    1  0.1628146E-001  0.1766110E+03  0.7818608E-02  0.1171427E+00
         21   -1    0    0  501  502  0.00000000000E+00  0.00000000000E+00  0.76096272420E+02  0.76096272420E+02  0.00000000000E+00 0. -1.
         21   -1    0    0  502  503 -0.00000000000E+00 -0.00000000000E+00 -0.55119432104E+03  0.55119432104E+03  0.00000000000E+00 0. -1.
         -6    2    1    2    0  503 -0.35209595065E+02 -0.10256174517E+02 -0.39853377691E+03  0.43591353523E+03  0.17276149499E+03 0.  0.
        -24    2    3    3    0    0 -0.27329730950E+02 -0.90751672117E+01 -0.41132558722E+03  0.42012722953E+03  0.80553568711E+02 0.  0.
          6    2    1    2  501    0  0.35209595065E+02  0.10256174517E+02 -0.76564271707E+02  0.19137705823E+03  0.17151730530E+03 0.  0.
         24    2    5    5    0    0  0.16558275625E+02  0.60225426604E+02 -0.63052665063E+01  0.10304124623E+03  0.81709629405E+02 0.  0.
          5    1    5    5  501    0  0.18651319440E+02 -0.49969252086E+02 -0.70259005200E+02  0.88335812006E+02  0.47000000000E+01 0. -1.
        -13    1    6    6    0    0 -0.21928027532E+02 -0.85129517806E+01  0.30055428103E+01  0.23713751855E+02  0.00000000000E+00 0.  1.
         14    1    6    6    0    0  0.38486303157E+02  0.68738378384E+02 -0.93108093166E+01  0.79327494374E+02  0.00000000000E+00 0. -1.
         -5    1    3    3    0  503 -0.78798641157E+01 -0.11810073057E+01  0.12791810307E+02  0.15786305700E+02  0.47000000000E+01 0.  1.
         11    1    4    4    0    0 -0.22170362300E+02 -0.34815545309E+02 -0.10721471734E+03  0.11488534621E+03  0.00000000000E+00 0. -1.
        -12    1    4    4    0    0 -0.51593686498E+01  0.25740378097E+02 -0.30411086988E+03  0.30524188332E+03  0.00000000000E+00 0.  1.
</event>
<event>
12    1  0.1628146E-001  0.1740806E+03  0.7818608E-02  0.1174095E+00
         21   -1    0    0  503  502  0.00000000000E+00  0.00000000000E+00  0.49570996441E+03  0.49570996441E+03  0.00000000000E+00 0. -1.
         21   -1    0    0  501  503 -0.00000000000E+00 -0.00000000000E+00 -0.14085326299E+03  0.14085326299E+03  0.00000000000E+00 0. -1.
          6    2    1    2  501    0 -0.79491360882E+01  0.16330070822E+02 -0.63300990700E+02  0.18361743118E+03  0.17140153334E+03 0.  0.
         24    2    3    3    0    0  0.57000337840E+02  0.35136362924E+01 -0.64704094776E+02  0.11723404577E+03  0.79346187381E+02 0.  0.
         -6    2    1    2    0  502  0.79491360882E+01 -0.16330070822E+02  0.41815769212E+03  0.45294579623E+03  0.17313052551E+03 0.  0.
        -24    2    5    5    0    0 -0.58742087620E+01 -0.66856186120E+02  0.35909902809E+03  0.37386363018E+03  0.79483621237E+02 0.  0.
          5    1    3    3  501    0 -0.64949473928E+02  0.12816434530E+02  0.14031040767E+01  0.66383385411E+02  0.47000000000E+01 0. -1.
        -11    1    4    4    0    0  0.55588252976E+02 -0.19571867055E+02 -0.12653564238E+02  0.60276235258E+02  0.00000000000E+00 0.  1.
         12    1    4    4    0    0  0.14120848639E+01  0.23085503348E+02 -0.52050530538E+02  0.56957810507E+02  0.00000000000E+00 0. -1.
         -5    1    5    5    0  502  0.13823344850E+02  0.50526115298E+02  0.59058664030E+02  0.79082166049E+02  0.47000000000E+01 0.  1.
         11    1    6    6    0    0 -0.31044461766E+02 -0.22692464502E+01  0.16114425162E+03  0.16412305724E+03  0.00000000000E+00 0. -1.
        -12    1    6    6    0    0  0.25170253004E+02 -0.64586939670E+02  0.19795477647E+03  0.20974057295E+03  0.00000000000E+00 0.  1.
</event>
<event>
12    1  0.1628146E-001  0.1916926E+03  0.7818608E-02  0.1157095E+00
         21   -1    0    0  503  502  0.00000000000E+00  0.00000000000E+00  0.32569635674E+03  0.32569635674E+03  0.00000000000E+00 0.  1.
         21   -1    0    0  501  503 -0.00000000000E+00 -0.00000000000E+00 -0.15373398074E+03  0.15373398074E+03  0.00000000000E+00 0.  1.
          6    2    1    2  501    0  0.82602932908E+02  0.60921479527E+01 -0.38391522931E+02  0.19483444196E+03  0.17212260732E+03 0.  0.
         24    2    3    3    0    0  0.74299636655E+02 -0.38815807974E+02 -0.73017716956E+02  0.13733024606E+03  0.80628199391E+02 0.  0.
         -6    2    1    2    0  502 -0.82602932908E+02 -0.60921479527E+01  0.21035389893E+03  0.28459589552E+03  0.17287481645E+03 0.  0.
        -24    2    5    5    0    0 -0.85308348942E+02 -0.51191970938E+01  0.55096195774E+02  0.12924046337E+03  0.79773341450E+02 0.  0.
          5    1    3    3  501    0  0.83032962528E+01  0.44907955927E+02  0.34626194025E+02  0.57504195906E+02  0.47000000000E+01 0. -1.
        -13    1    4    4    0    0  0.71622692329E+02  0.18489507881E+01 -0.28858641748E+02  0.77240208952E+02  0.00000000000E+00 0.  1.
         14    1    4    4    0    0  0.26769443259E+01 -0.40664758762E+02 -0.44159075208E+02  0.60090037105E+02  0.00000000000E+00 0. -1.
         -5    1    5    5    0  502  0.27054160342E+01 -0.97295085895E+00  0.15525770315E+03  0.15535543215E+03  0.47000000000E+01 0.  1.
         11    1    6    6    0    0  0.11916081967E+02 -0.14305471012E+02  0.13969941922E+02  0.23276571647E+02  0.00000000000E+00 0. -1.
        -12    1    6    6    0    0 -0.97224430908E+02  0.91862739187E+01  0.41126253853E+02  0.10596389173E+03  0.00000000000E+00 0.  1.
</event>
<event>
12    1  0.1628146E-001  0.1995966E+03  0.7818608E-02  0.1150472E+00
         21   -1    0    0  501  502  0.00000000000E+00  0.00000000000E+00  0.26033832378E+03  0.26033832378E+03  0.00000000000E+00 0. -1.
         21   -1    0    0  502  503 -0.00000000000E+00 -0.00000000000E+00 -0.15712587942E+03  0.15712587942E+03  0.00000000000E+00 0. -1.
         -6    2    1    2    0  503 -0.93586903249E+02  0.36740104596E+02  0.12287607062E+02  0.19813314821E+03  0.17028627480E+03 0.  0.
        -24    2    3    3    0    0 -0.75870826769E+02 -0.41299826141E+02  0.69659981069E+01  0.11779324730E+03  0.79778856768E+02 0.  0.
          6    2    1    2  501    0  0.93586903249E+02 -0.36740104596E+02  0.90924837302E+02  0.21933105499E+03  0.17242517769E+03 0.  0.
         24    2    5    5    0    0 -0.10792685587E+02  0.52133663593E+01  0.64796551444E+02  0.10374572023E+03  0.80130644171E+02 0.  0.
          5    1    5    5  501    0  0.10437958884E+03 -0.41953470955E+02  0.26128285858E+02  0.11558533477E+03  0.47000000000E+01 0. -1.
        -11    1    6    6    0    0 -0.29490391257E+02 -0.25878094425E+02  0.14714388893E+02  0.41903128618E+02  0.00000000000E+00 0.  1.
         12    1    6    6    0    0  0.18697705669E+02  0.31091460784E+02  0.50082162551E+02  0.61842591608E+02  0.00000000000E+00 0. -1.
         -5    1    3    3    0  503 -0.17716076481E+02  0.78039930736E+02  0.53216089553E+01  0.80339900903E+02  0.47000000000E+01 0.  1.
         11    1    4    4    0    0 -0.44045401818E+02  0.18314952227E+02 -0.85380346627E+01  0.48459601033E+02  0.00000000000E+00 0. -1.
        -12    1    4    4    0    0 -0.31825424951E+02 -0.59614778368E+02  0.15504032770E+02  0.69333646271E+02  0.00000000000E+00 0.  1.
</event>
<event>
12    1  0.1628146E-001  0.1881423E+03  0.7818608E-02  0.1160320E+00
         21   -1    0    0  501  502  0.00000000000E+00  0.00000000000E+00  0.11547218673E+03  0.11547218673E+03  0.00000000000E+00 0.  1.
         21   -1    0    0  502  503 -0.00000000000E+00 -0.00000000000E+00 -0.32616236433E+03  0.32616236433E+03  0.00000000000E+00 0.  1.
         -6    2    1    2    0  503 -0.19278497191E+02  0.75611930094E+02 -0.16096858518E+03  0.24703300752E+03  0.17036900236E+03 0.  0.
        -24    2    3    3    0    0  0.28727660181E+02  0.38674614307E+02 -0.16046338729E+03  0.18627692414E+03  0.81422291518E+02 0.  0.
          6    2    1    2  501    0  0.19278497191E+02 -0.75611930094E+02 -0.49721592422E+02  0.19460154353E+03  0.17119783750E+03 0.  0.
         24    2    5    5    0    0  0.48518939707E+02 -0.95093595797E+02 -0.14992757170E+01  0.13475155936E+03  0.82212258518E+02 0.  0.
          5    1    5    5  501    0 -0.29240442515E+02  0.19481665702E+02 -0.48222316705E+02  0.59849984172E+02  0.47000000000E+01 0. -1.
        -13    1    6    6    0    0  0.23603123026E+02 -0.97511235977E+02 -0.21625402970E+02  0.10263141143E+03  0.00000000000E+00 0.  1.
         14    1    6    6    0    0  0.24915816681E+02  0.24176401806E+01  0.20126127253E+02  0.32120147931E+02  0.00000000000E+00 0. -1.
         -5    1    3    3    0  503 -0.48006157372E+02  0.36937315787E+02 -0.50519789244E+00  0.60756083383E+02  0.47000000000E+01 0.  1.
         13    1    4    4    0    0 -0.14371834439E+02  0.23610317927E+02 -0.12620626832E+03  0.12919759634E+03  0.00000000000E+00 0. -1.
        -14    1    4    4    0    0  0.43099494620E+02  0.15064296380E+02 -0.34257118973E+02  0.57079327801E+02  0.00000000000E+00 0.  1.
</event>
<event>
12    1  0.1628146E-001  0.2004729E+03  0.7818608E-02  0.1149423E+00
         21   -1    0    0  503  502  0.00000000000E+00  0.00000000000E+00  0.99935866668E+02  0.99935866668E+02  0.00000000000E+00 0. -1.
         21   -1    0    0  501  503 -0.00000000000E+00 -0.00000000000E+00 -0.79701480016E+03  0.79701480016E+03  0.00000000000E+00 0. -1.
          6    2    1    2  501    0  0.61077719762E+02 -0.83366554920E+02 -0.66469157770E+03  0.69426527836E+03  0.17178158500E+03 0.  0.
         24    2    3    3    0    0  0.74668457740E+02 -0.19205784462E+02 -0.55921165588E+03  0.56996959649E+03  0.78761818904E+02 0.  0.
         -6    2    1    2    0  502 -0.61077719762E+02  0.83366554920E+02 -0.32387355791E+02  0.20268538846E+03  0.17132412425E+03 0.  0.
        -24    2    5    5    0    0 -0.49782258275E+02  0.39422838260E+02  0.45781128023E+02  0.11218102644E+03  0.80350716198E+02 0.  0.
          5    1    3    3  501    0 -0.13590737978E+02 -0.64160770458E+02 -0.10547992182E+03  0.12429568187E+03  0.47000000000E+01 0. -1.
        -11    1    4    4    0    0  0.10975913122E+02  0.17318930251E+02 -0.34402108643E+02  0.40048983670E+02  0.00000000000E+00 0.  1.
         12    1    4    4    0    0  0.63692544619E+02 -0.36524714713E+02 -0.52480954724E+03  0.52992061282E+03  0.00000000000E+00 0. -1.
         -5    1    5    5    0  502 -0.11295461487E+02  0.43943716660E+02 -0.78168483814E+02  0.90504362027E+02  0.47000000000E+01 0.  1.
         13    1    6    6    0    0 -0.41141081932E+02  0.62135758523E+02  0.46553943263E+02  0.87867575038E+02  0.00000000000E+00 0. -1.
        -14    1    6    6    0    0 -0.86411763429E+01 -0.22712920263E+02 -0.77281524006E+00  0.24313451397E+02  0.00000000000E+00 0.  1.
</event>
<event>
12    1  0.1628146E-001  0.2702184E+03  0.7818608E-02  0.1101320E+00
         21   -1    0    0  501  502  0.00000000000E+00  0.00000000000E+00  0.22304278634E+03  0.22304278634E+03  0.00000000000E+00 0. -1.
         21   -1    0    0  502  503 -0.00000000000E+00 -0.00000000000E+00 -0.44860123595E+03  0.44860123595E+03  0.00000000000E+00 0. -1.
         -6    2    1    2    0  503  0.91875662733E+02 -0.18500547807E+03 -0.28818228479E+03  0.39426393448E+03  0.17241478025E+03 0.  0.
        -24    2    3    3    0    0  0.40870110277E+02 -0.19336545155E+03 -0.25828699672E+03  0.33437008015E+03  0.77657028377E+02 0.  0.
          6    2    1    2  501    0 -0.91875662733E+02  0.18500547807E+03  0.62623835174E+02  0.27738008782E+03  0.17421195157E+03 0.  0.
         24    2    5    5    0    0  0.13629358351E+02  0.56426963923E+02  0.50022194082E+02  0.11051296963E+03  0.79631243174E+02 0.  0.
          5    1    5    5  501    0 -0.10550502108E+03  0.12857851414E+03  0.12601641093E+02  0.16686711818E+03  0.47000000000E+01 0. -1.
        -13    1    6    6    0    0 -0.33028226665E+02  0.15996608472E+02  0.21164436018E+02  0.42363765074E+02  0.00000000000E+00 0.  1.
         14    1    6    6    0    0  0.46657585016E+02  0.40430355451E+02  0.28857758064E+02  0.68149204558E+02  0.00000000000E+00 0. -1.
         -5    1    3    3    0  503  0.51005552456E+02  0.83599734858E+01 -0.29895288071E+02  0.59893854333E+02  0.47000000000E+01 0.  1.
         11    1    4    4    0    0  0.62974746769E+02 -0.14077128840E+03 -0.20291622276E+03  0.25486735340E+03  0.00000000000E+00 0. -1.
        -12    1    4    4    0    0 -0.22104636492E+02 -0.52594163148E+02 -0.55370773957E+02  0.79502726747E+02  0.00000000000E+00 0.  1.
</event>
<event>
12    1  0.1628146E-001  0.1738081E+03  0.7818608E-02  0.1174054E+00
         21   -1    0    0  503  502  0.00000000000E+00  0.00000000000E+00  0.45622089582E+02  0.45622089582E+02  0.00000000000E+00 0.  1.
         21   -1    0    0  501  503 -0.00000000000E+00 -0.00000000000E+00 -0.76058452205E+03  0.76058452205E+03  0.00000000000E+00 0.  1.
          6    2    1    2  501    0  0.28551902481E+02  0.14123631259E+01 -0.50338838567E+03  0.53239495005E+03  0.17095996640E+03 0.  0.
         24    2    3    3    0    0  0.45231168973E+02 -0.53257718401E+02 -0.25019362738E+03  0.27278622260E+03  0.83266012532E+02 0.  0.
         -6    2    1    2    0  502 -0.28551902481E+02 -0.14123631259E+01 -0.21157404680E+03  0.27381166158E+03  0.17144107685E+03 0.  0.
        -24    2    5    5    0    0 -0.58905135177E+02  0.34825073221E+02 -0.68060685982E+02  0.12264074751E+03  0.75669645815E+02 0.  0.
          5    1    3    3  501    0 -0.16679266493E+02  0.54670081526E+02 -0.25319475829E+03  0.25960872745E+03  0.47000000000E+01 0. -1.
        -11    1    4    4    0    0  0.66230098952E+02 -0.54923980999E+02 -0.21742996372E+03  0.23383511032E+03  0.00000000000E+00 0.  1.
         12    1    4    4    0    0 -0.20998929978E+02  0.16662625983E+01 -0.32763663659E+02  0.38951112277E+02  0.00000000000E+00 0. -1.
         -5    1    5    5    0  502  0.30353232696E+02 -0.36237436347E+02 -0.14351336081E+03  0.15117091407E+03  0.47000000000E+01 0.  1.
         13    1    6    6    0    0  0.10807052453E+01 -0.20065080583E+02 -0.19128218998E+02  0.27742821498E+02  0.00000000000E+00 0. -1.
        -14    1    6    6    0    0 -0.59985840422E+02  0.54890153804E+02 -0.48932466984E+02  0.94897926010E+02  0.00000000000E+00 0.  1.
</event>
<event>
12    1  0.1628146E-001  0.1758247E+03  0.7818608E-02  0.1172075E+00
         21   -1    0    0  503  502  0.00000000000E+00  0.00000000000E+00  0.15201019482E+03  0.15201019482E+03  0.00000000000E+00 0. -1.
         21   -1    0    0  501  503 -0.00000000000E+00 -0.00000000000E+00 -0.73839155519E+03  0.73839155519E+03  0.00000000000E+00 0. -1.
          6    2    1    2  501    0 -0.26266157497E+02 -0.12991620531E+02 -0.67227619637E+03  0.69471772730E+03  0.17268104467E+03 0.  0.
         24    2    3    3    0    0 -0.82065951468E+02 -0.29434594906E+02 -0.44541841712E+03  0.46047313202E+03  0.77696352760E+02 0.  0.
         -6    2    1    2    0  502  0.26266157497E+02  0.12991620531E+02  0.85894836008E+02  0.19568402271E+03  0.17336556941E+03 0.  0.
        -24    2    5    5    0    0  0.20225529790E+02  0.28433010713E+02  0.12502013715E+03  0.15293118768E+03  0.80872772424E+02 0.  0.
          5    1    3    3  501    0  0.55799793971E+02  0.16442974375E+02 -0.22685777925E+03  0.23424459528E+03  0.47000000000E+01 0. -1.
        -13    1    4    4    0    0 -0.43553767169E+02  0.12320419216E+02 -0.92141186055E+02  0.10265827552E+03  0.00000000000E+00 0.  1.
         14    1    4    4    0    0 -0.38512184298E+02 -0.41755014122E+02 -0.35327723107E+03  0.35781485650E+03  0.00000000000E+00 0. -1.
         -5    1    5    5    0  502  0.60406277065E+01 -0.15441390182E+02 -0.39125301140E+02  0.42752835030E+02  0.47000000000E+01 0.  1.
         13    1    6    6    0    0  0.40259940682E+02 -0.96266147279E+01  0.83260526073E+02  0.92983061558E+02  0.00000000000E+00 0. -1.
        -14    1    6    6    0    0 -0.20034410892E+02  0.38059625441E+02  0.41759611075E+02  0.59948126122E+02  0.00000000000E+00 0.  1.
</event>
<event>
12    1  0.1628146E-001  0.1787222E+03  0.7818608E-02  0.1169328E+00
         21   -1    0    0  503  502  0.00000000000E+00  0.00000000000E+00  0.45528101460E+02  0.45528101460E+02  0.00000000000E+00 0.  1.
         21   -1    0    0  501  503 -0.00000000000E+00 -0.00000000000E+00 -0.76787202564E+03  0.76787202564E+03  0.00000000000E+00 0.  1.
          6    2    1    2  501    0  0.38507704100E+02 -0.36060406571E+02 -0.48360847052E+03  0.51517831366E+03  0.16955337186E+03 0.  0.
         24    2    3    3    0    0  0.47667866984E+02 -0.85356957270E+02 -0.36200976487E+03  0.38356374870E+03  0.80697235121E+02 0.  0.
         -6    2    1    2    0  502 -0.38507704100E+02  0.36060406571E+02 -0.23873545366E+03  0.29822181344E+03  0.17075841701E+03 0.  0.
        -24    2    5    5    0    0 -0.46714441880E+02 -0.25122446116E+02 -0.20857842278E+03  0.22935797301E+03  0.79288996418E+02 0.  0.
          5    1    3    3  501    0 -0.91601628841E+01  0.49296550699E+02 -0.12159870565E+03  0.13161456497E+03  0.47000000000E+01 0. -1.
        -11    1    4    4    0    0  0.30819940344E+02 -0.76852255825E+02 -0.15530657815E+03  0.17600077035E+03  0.00000000000E+00 0.  1.
         12    1    4    4    0    0  0.16847926640E+02 -0.85047014450E+01 -0.20670318672E+03  0.20756297835E+03  0.00000000000E+00 0. -1.
         -5    1    5    5    0  502  0.82067377798E+01  0.61182852687E+02 -0.30157030880E+02  0.68863840434E+02  0.47000000000E+01 0.  1.
         13    1    6    6    0    0 -0.35662830494E+02 -0.23557422667E+02 -0.21307865983E+03  0.21732304276E+03  0.00000000000E+00 0. -1.
        -14    1    6    6    0    0 -0.11051611385E+02 -0.15650234487E+01  0.45002370435E+01  0.12034930247E+02  0.00000000000E+00 0.  1.
</event>
<event>
12    1  0.1628146E-001  0.2035566E+03  0.7818608E-02  0.1146961E+00
         21   -1    0    0  501  502  0.00000000000E+00  0.00000000000E+00  0.10621162731E+04  0.10621162731E+04  0.00000000000E+00 0. -1.
         21   -1    0    0  502  503 -0.00000000000E+00 -0.00000000000E+00 -0.39325969881E+02  0.39325969881E+02  0.00000000000E+00 0. -1.
         -6    2    1    2    0  503 -0.89905423764E+02  0.62072626674E+02  0.57161944277E+03  0.60647717285E+03  0.17067447855E+03 0.  0.
        -24    2    3    3    0    0 -0.97332156318E+02  0.75101681175E+02  0.31005403599E+03  0.34444002921E+03  0.85974515551E+02 0.  0.
          6    2    1    2  501    0  0.89905423764E+02 -0.62072626674E+02  0.45117086042E+03  0.49496507011E+03  0.17175354182E+03 0.  0.
         24    2    5    5    0    0  0.77367097856E+01  0.45322693923E+01  0.29885126351E+03  0.30946234954E+03  0.79840277637E+02 0.  0.
          5    1    5    5  501    0  0.82168713978E+02 -0.66604896066E+02  0.15231959691E+03  0.18550272057E+03  0.47000000000E+01 0. -1.
        -13    1    6    6    0    0 -0.25808975246E+02  0.23474682331E+02  0.20604670278E+03  0.20897944310E+03  0.00000000000E+00 0.  1.
         14    1    6    6    0    0  0.33545685032E+02 -0.18942412938E+02  0.92804560733E+02  0.10048290643E+03  0.00000000000E+00 0. -1.
         -5    1    3    3    0  503  0.74267325542E+01 -0.13029054501E+02  0.26156540678E+03  0.26203714363E+03  0.47000000000E+01 0.  1.
         13    1    4    4    0    0 -0.71316267933E+02  0.31756482386E+02  0.26654337847E+03  0.27774062873E+03  0.00000000000E+00 0. -1.
        -14    1    4    4    0    0 -0.26015888385E+02  0.43345198789E+02  0.43510657521E+02  0.66699400480E+02  0.00000000000E+00 0.  1.
</event>
<event>
12    1  0.1628146E-001  0.2216083E+03  0.7818608E-02  0.1132739E+00
         21   -1    0    0  503  502  0.00000000000E+00  0.00000000000E+00  0.19026050617E+03  0.19026050617E+03  0.00000000000E+00 0. -1.
         21   -1    0    0  501  503 -0.00000000000E+00 -0.00000000000E+00 -0.25782277387E+03  0.25782277387E+03  0.00000000000E+00 0. -1.
          6    2    1    2  501    0  0.37508807312E+02  0.13512033099E+03 -0.32232408276E+02  0.22367640158E+03  0.17125358393E+03 0.  0.
         24    2    3    3    0    0  0.76640087952E+02  0.42313781590E+02 -0.32052499313E+02  0.12284766013E+03  0.80000160581E+02 0.  0.
         -6    2    1    2    0  502 -0.37508807312E+02 -0.13512033099E+03 -0.35329859417E+02  0.22440687846E+03  0.17159788362E+03 0.  0.
        -24    2    5    5    0    0 -0.38759653749E+02 -0.10343216506E+03  0.40847606133E+02  0.14175822007E+03  0.78907176495E+02 0.  0.
          5    1    3    3  501    0 -0.39131280640E+02  0.92806549397E+02 -0.17990896227E+00  0.10082874145E+03  0.47000000000E+01 0. -1.
        -13    1    4    4    0    0  0.27630399496E+01 -0.15510570474E+02  0.11410449336E+02  0.19452777186E+02  0.00000000000E+00 0.  1.
         14    1    4    4    0    0  0.73877048003E+02  0.57824352064E+02 -0.43462948650E+02  0.10339488294E+03  0.00000000000E+00 0. -1.
         -5    1    5    5    0  502  0.12508464375E+01 -0.31688165930E+02 -0.76177465549E+02  0.82648658394E+02  0.47000000000E+01 0.  1.
         13    1    6    6    0    0 -0.39248370953E+02 -0.39233115318E+02 -0.14095286691E+02  0.57256869167E+02  0.00000000000E+00 0. -1.
        -14    1    6    6    0    0  0.48871720323E+00 -0.64199049740E+02  0.54942892823E+02  0.84501350899E+02  0.00000000000E+00 0.  1.
</event>
<event>
12    1  0.1628146E-001  0.2144724E+03  0.7818608E-02  0.1138108E+00
         21   -1    0    0  503  502  0.00000000000E+00  0.00000000000E+00  0.31251166376E+02  0.31251166376E+02  0.00000000000E+00 0. -1.
         21   -1    0    0  501  503 -0.00000000000E+00 -0.00000000000E+00 -0.14712161057E+04  0.14712161057E+04  0.00000000000E+00 0.  1.
          6    2    1    2  501    0 -0.29474655757E+02  0.12400015448E+03 -0.73476552524E+03  0.76537525397E+03  0.17226174466E+03 0.  0.
         24    2    3    3    0    0  0.44719826883E+01  0.17847999059E+02 -0.16327213650E+03  0.18309745280E+03  0.80798124770E+02 0.  0.
         -6    2    1    2    0  502  0.29474655757E+02 -0.12400015448E+03 -0.70519941409E+03  0.73709201811E+03  0.17249242268E+03 0.  0.
        -24    2    5    5    0    0  0.23731401576E+02  0.17217147771E+02 -0.25004280549E+03  0.26047378538E+03  0.66824985525E+02 0.  0.
          5    1    3    3  501    0 -0.33946638445E+02  0.10615215542E+03 -0.57149338874E+03  0.58227780117E+03  0.47000000000E+01 0. -1.
        -13    1    4    4    0    0  0.21638775958E+02  0.59356165659E+01 -0.16045156477E+03  0.16201287852E+03  0.00000000000E+00 0.  1.
         14    1    4    4    0    0 -0.17166793270E+02  0.11912382493E+02 -0.28205717287E+01  0.21084574283E+02  0.00000000000E+00 0. -1.
         -5    1    5    5    0  502  0.57432541811E+01 -0.14121730225E+03 -0.45515660860E+03  0.47661823274E+03  0.47000000000E+01 0.  1.
         11    1    6    6    0    0  0.28491965189E+02 -0.20301723657E+02 -0.12903255061E+03  0.13369125319E+03  0.00000000000E+00 0. -1.
        -12    1    6    6    0    0 -0.47605636133E+01  0.37518871428E+02 -0.12101025489E+03  0.12678253218E+03  0.00000000000E+00 0.  1.
</event>
<event>
12    1  0.1628146E-001  0.2027456E+03  0.7818608E-02  0.1149360E+00
         21   -1    0    0  503  502  0.00000000000E+00  0.00000000000E+00  0.35672947786E+03  0.35672947786E+03  0.00000000000E+00 0.  1.
         21   -1    0    0  501  503 -0.00000000000E+00 -0.00000000000E+00 -0.49050791768E+03  0.49050791768E+03  0.00000000000E+00 0.  1.
          6    2    1    2  501    0  0.77098836827E+01  0.10791311320E+03 -0.44024112179E+03  0.48468343990E+03  0.17146751672E+03 0.  0.
         24    2    3    3    0    0  0.36059849229E+02  0.31008661268E+02 -0.83335136445E+02  0.11845675102E+03  0.69465150223E+02 0.  0.
         -6    2    1    2    0  502 -0.77098836827E+01 -0.10791311320E+03  0.30646268197E+03  0.36255395564E+03  0.16069011484E+03 0.  0.
        -24    2    5    5    0    0 -0.66875118979E+01 -0.10993070629E+03  0.13562997167E+03  0.19164163650E+03  0.78749886516E+02 0.  0.
          5    1    3    3  501    0 -0.28349965547E+02  0.76904451931E+02 -0.35690598534E+03  0.36622668888E+03  0.47000000000E+01 0. -1.
        -11    1    4    4    0    0  0.36990180349E+02  0.43199589052E+02 -0.31121494563E+02  0.64830743944E+02  0.00000000000E+00 0.  1.
         12    1    4    4    0    0 -0.93033111934E+00 -0.12190927784E+02 -0.52213641882E+02  0.53626007075E+02  0.00000000000E+00 0. -1.
         -5    1    5    5    0  502 -0.10223717849E+01  0.20175930895E+01  0.17083271030E+03  0.17091231914E+03  0.47000000000E+01 0.  1.
         13    1    6    6    0    0 -0.10306143869E+02 -0.11473606275E+02 -0.80729330790E+01  0.17407828437E+02  0.00000000000E+00 0. -1.
        -14    1    6    6    0    0  0.36186319707E+01 -0.98457100014E+02  0.14370290474E+03  0.17423380806E+03  0.00000000000E+00 0.  1.
</event>
<event>
12    1  0.1628146E-001  0.2371006E+03  0.7818608E-02  0.1121910E+00
         21   -1    0    0  503  502  0.00000000000E+00  0.00000000000E+00  0.35975050278E+02  0.35975050278E+02  0.00000000000E+00 0.  1.
         21   -1    0    0  501  503 -0.00000000000E+00 -0.00000000000E+00 -0.18574132288E+04  0.18574132288E+04  0.00000000000E+00 0. -1.
          6    2    1    2  501    0 -0.23885235046E+02 -0.16112633337E+03 -0.52774692726E+03  0.57814922689E+03  0.17090204670E+03 0.  0.
         24    2    3    3    0    0 -0.19373220703E+01 -0.84240810464E+01 -0.16329238413E+03  0.18236027712E+03  0.80722670920E+02 0.  0.
         -6    2    1    2    0  502  0.23885235046E+02  0.16112633337E+03 -0.12936912512E+04  0.13152390522E+04  0.17229193551E+03 0.  0.
        -24    2    5    5    0    0 -0.66939515827E+01  0.17489390016E+03 -0.12057527616E+04  0.12210058282E+04  0.79892583728E+02 0.  0.
          5    1    3    3  501    0 -0.21947912976E+02 -0.15270225233E+03 -0.36445454313E+03  0.39578894977E+03  0.47000000000E+01 0. -1.
        -13    1    4    4    0    0 -0.30673920885E+02 -0.26316279185E+02 -0.50977676559E+02  0.65055049612E+02  0.00000000000E+00 0.  1.
         14    1    4    4    0    0  0.28736598814E+02  0.17892198139E+02 -0.11231470757E+03  0.11730522751E+03  0.00000000000E+00 0. -1.
         -5    1    5    5    0  502  0.30579186629E+02 -0.13767566785E+02 -0.87938489599E+02  0.94233223987E+02  0.47000000000E+01 0.  1.
         11    1    6    6    0    0  0.13542548370E+02  0.22737372576E+01 -0.18960388694E+03  0.19010051142E+03  0.00000000000E+00 0. -1.
        -12    1    6    6    0    0 -0.20236499953E+02  0.17262016290E+03 -0.10161488747E+04  0.10309053168E+04  0.00000000000E+00 0.  1.
</event>
<event>
12    1  0.1628146E-001  0.2553535E+03  0.7818608E-02  0.1110072E+00
         21   -1    0    0  501  502  0.00000000000E+00  0.00000000000E+00  0.18363618867E+03  0.18363618867E+03  0.00000000000E+00 0. -1.
         21   -1    0    0  502  503 -0.00000000000E+00 -0.00000000000E+00 -0.44791247441E+03  0.44791247441E+03  0.00000000000E+00 0. -1.
         -6    2    1    2    0  503  0.17023660754E+03 -0.83736293225E+02 -0.27676644906E+03  0.37657011720E+03  0.17091844983E+03 0.  0.
        -24    2    3    3    0    0  0.17784734621E+03 -0.92044626464E+02 -0.18204225239E+03  0.28106244641E+03  0.75860564939E+02 0.  0.
          6    2    1    2  501    0 -0.17023660754E+03  0.83736293225E+02  0.12490163319E+02  0.25497854589E+03  0.16989933883E+03 0.  0.
         24    2    5    5    0    0 -0.10301559078E+03 -0.16307829123E+02 -0.14492705132E+02  0.13137572755E+03  0.78558169871E+02 0.  0.
          5    1    5    5  501    0 -0.67221016761E+02  0.10004412235E+03  0.26982868452E+02  0.12360281834E+03  0.47000000000E+01 0. -1.
        -13    1    6    6    0    0 -0.33242606603E+01 -0.21058310295E+02 -0.22814346576E+02  0.31224950778E+02  0.00000000000E+00 0.  1.
         14    1    6    6    0    0 -0.99691330116E+02  0.47504811713E+01  0.83216414437E+01  0.10015077677E+03  0.00000000000E+00 0. -1.
         -5    1    3    3    0  503 -0.76107386749E+01  0.83083332392E+01 -0.94724196667E+02  0.95507670784E+02  0.47000000000E+01 0.  1.
         11    1    4    4    0    0  0.10043864276E+03 -0.37729468209E+02 -0.14295578884E+03  0.17873945086E+03  0.00000000000E+00 0. -1.
        -12    1    4    4    0    0  0.77408703447E+02 -0.54315158255E+02 -0.39086463552E+02  0.10232299555E+03  0.00000000000E+00 0.  1.
</event>
<event>
12    1  0.1628146E-001  0.2534638E+03  0.7818608E-02  0.1111157E+00
         21   -1    0    0  503  502  0.00000000000E+00  0.00000000000E+00  0.19619305626E+04  0.19619305626E+04  0.00000000000E+00 0. -1.
         21   -1    0    0  501  503 -0.00000000000E+00 -0.00000000000E+00 -0.35711001855E+02  0.35711001855E+02  0.00000000000E+00 0.  1.
          6    2    1    2  501    0  0.13470783208E+03 -0.12786218088E+03  0.12515993010E+04  0.12769777228E+04  0.17226827040E+03 0.  0.
         24    2    3    3    0    0  0.12379310893E+03 -0.29629761774E+02  0.63629438592E+03  0.65376751120E+03  0.79616308286E+02 0.  0.
         -6    2    1    2    0  502 -0.13470783208E+03  0.12786218088E+03  0.67462025973E+03  0.72066384163E+03  0.17247881162E+03 0.  0.
        -24    2    5    5    0    0 -0.19560827397E+02  0.25987367533E+02  0.19527622543E+03  0.21724542370E+03  0.89469551585E+02 0.  0.
          5    1    3    3  501    0  0.10914723155E+02 -0.98232419109E+02  0.61530491509E+03  0.62321021163E+03  0.47000000000E+01 0. -1.
        -11    1    4    4    0    0  0.17294018949E+02 -0.22820449124E+02  0.48153770868E+02  0.56023581093E+02  0.00000000000E+00 0.  1.
         12    1    4    4    0    0  0.10649908998E+03 -0.68093126498E+01  0.58814061506E+03  0.59774393011E+03  0.00000000000E+00 0. -1.
         -5    1    5    5    0  502 -0.11514700468E+03  0.10187481335E+03  0.47934403430E+03  0.50341841792E+03  0.47000000000E+01 0.  1.
         11    1    6    6    0    0 -0.96360433043E+01 -0.18134456457E+02  0.15600253920E+03  0.15734835264E+03  0.00000000000E+00 0. -1.
        -12    1    6    6    0    0 -0.99247840924E+01  0.44121823990E+02  0.39273686229E+02  0.59897071060E+02  0.00000000000E+00 0.  1.
</event>
<event>
12    1  0.1628146E-001  0.1907055E+03  0.7818608E-02  0.1158073E+00
         21   -1    0    0  503  502  0.00000000000E+00  0.00000000000E+00  0.11823802074E+03  0.11823802074E+03  0.00000000000E+00 0.  1.
         21   -1    0    0  501  503 -0.00000000000E+00 -0.00000000000E+00 -0.30599757139E+03  0.30599757139E+03  0.00000000000E+00 0.  1.
          6    2    1    2  501    0 -0.78290656281E+02  0.17440312030E+02 -0.89056761625E+02  0.21047496684E+03  0.17301737927E+03 0.  0.
         24    2    3    3    0    0 -0.10484343944E+03  0.50482148300E+02 -0.41496278034E+02  0.14659302231E+03  0.78911209645E+02 0.  0.
         -6    2    1    2    0  502  0.78290656281E+02 -0.17440312030E+02 -0.98702789023E+02  0.21376062529E+03  0.17180737184E+03 0.  0.
        -24    2    5    5    0    0 -0.61871515824E+01 -0.15322025648E+02  0.20673089547E+01  0.82163931539E+02  0.80458638847E+02 0.  0.
          5    1    3    3  501    0  0.26552783159E+02 -0.33041836270E+02 -0.47560483592E+02  0.63881944531E+02  0.47000000000E+01 0. -1.
        -11    1    4    4    0    0 -0.13884745922E+02 -0.20765233850E+02 -0.92440999303E+01  0.26635211463E+02  0.00000000000E+00 0.  1.
         12    1    4    4    0    0 -0.90958693518E+02  0.71247382150E+02 -0.32252178103E+02  0.11995781084E+03  0.00000000000E+00 0. -1.
         -5    1    5    5    0  502  0.84477807864E+02 -0.21182863827E+01 -0.10077009798E+03  0.13159669375E+03  0.47000000000E+01 0.  1.
         13    1    6    6    0    0 -0.35474893541E+02 -0.60565011072E+01 -0.22833507926E+02  0.42620633051E+02  0.00000000000E+00 0. -1.
        -14    1    6    6    0    0  0.29287741959E+02 -0.92655245405E+01  0.24900816881E+02  0.39543298489E+02  0.00000000000E+00 0.  1.
</event>
<event>
12    1  0.1628146E-001  0.2068481E+03  0.7818608E-02  0.1146110E+00
         21   -1    0    0  501  502  0.00000000000E+00  0.00000000000E+00  0.85374179579E+03  0.85374179579E+03  0.00000000000E+00 0. -1.
         21   -1    0    0  502  503 -0.00000000000E+00 -0.00000000000E+00 -0.55462215194E+02  0.55462215194E+02  0.00000000000E+00 0.  1.
         -6    2    1    2    0  503 -0.24343080714E+02  0.10400288444E+03  0.22165208929E+03  0.29659858953E+03  0.16562575004E+03 0.  0.
        -24    2    3    3    0    0 -0.46306108368E+02  0.11051436117E+03  0.23016786251E+03  0.27171119701E+03  0.80573258272E+02 0.  0.
          6    2    1    2  501    0  0.24343080714E+02 -0.10400288444E+03  0.57662749131E+03  0.61260542146E+03  0.17713540897E+03 0.  0.
         24    2    5    5    0    0  0.69109947117E+02 -0.70934367628E+02  0.51030885607E+03  0.52589988235E+03  0.79672381478E+02 0.  0.
          5    1    5    5  501    0 -0.44766866403E+02 -0.33068516808E+02  0.66318635239E+02  0.86705539104E+02  0.47000000000E+01 0. -1.
        -13    1    6    6    0    0  0.66995749999E+02 -0.39368538252E+02  0.45966310788E+03  0.46618503308E+03  0.00000000000E+00 0.  1.
         14    1    6    6    0    0  0.21141971172E+01 -0.31565829376E+02  0.50645748198E+02  0.59714849277E+02  0.00000000000E+00 0. -1.
         -5    1    3    3    0  503  0.21963027653E+02 -0.65114767337E+01 -0.85157732271E+01  0.24887392523E+02  0.47000000000E+01 0.  1.
         13    1    4    4    0    0 -0.35074714295E+02  0.23106566897E+01  0.65889188835E+02  0.74679046074E+02  0.00000000000E+00 0. -1.
        -14    1    4    4    0    0 -0.11231394072E+02  0.10820370448E+03  0.16427867368E+03  0.19703215093E+03  0.00000000000E+00 0.  1.
</event>
<event>
12    1  0.1628146E-001  0.3937963E+03  0.7818608E-02  0.1045968E+00
         21   -1    0    0  503  502  0.00000000000E+00  0.00000000000E+00  0.69775963999E+03  0.69775963999E+03  0.00000000000E+00 0.  1.
         21   -1    0    0  501  503 -0.00000000000E+00 -0.00000000000E+00 -0.31637424023E+03  0.31637424023E+03  0.00000000000E+00 0. -1.
          6    2    1    2  501    0  0.26009201983E+03  0.24008969644E+03 -0.86028333646E+02  0.40308358699E+03  0.17258210450E+03 0.  0.
         24    2    3    3    0    0  0.34286182515E+02  0.83354888909E+02 -0.45328293118E+02  0.12517594162E+03  0.74099813670E+02 0.  0.
         -6    2    1    2    0  502 -0.26009201983E+03 -0.24008969644E+03  0.46741373340E+03  0.61105029323E+03  0.17209282832E+03 0.  0.
        -24    2    5    5    0    0 -0.55089180612E+02 -0.10613400026E+03  0.21999726046E+03  0.26290191435E+03  0.80121021765E+02 0.  0.
          5    1    3    3  501    0  0.22580583732E+03  0.15673480753E+03 -0.40700040528E+02  0.27790764537E+03  0.47000000000E+01 0. -1.
        -11    1    4    4    0    0 -0.34508236877E+01  0.19513767557E+02  0.18664686905E+02  0.27222524601E+02  0.00000000000E+00 0.  1.
         12    1    4    4    0    0  0.37737006202E+02  0.63841121352E+02 -0.63992980023E+02  0.97953417015E+02  0.00000000000E+00 0. -1.
         -5    1    5    5    0  502 -0.20500283922E+03 -0.13395569618E+03  0.24741647295E+03  0.34814837888E+03  0.47000000000E+01 0.  1.
         11    1    6    6    0    0 -0.21613280363E+02  0.66797794148E+01  0.61260927407E+02  0.65304322735E+02  0.00000000000E+00 0. -1.
        -12    1    6    6    0    0 -0.33475900249E+02 -0.11281377968E+03  0.15873633305E+03  0.19759759162E+03  0.00000000000E+00 0.  1.
</event>
<event>
12    1  0.1628146E-001  0.2826952E+03  0.7818608E-02  0.1094461E+00
         21   -1    0    0  503  502  0.00000000000E+00  0.00000000000E+00  0.11418275432E+03  0.11418275432E+03  0.00000000000E+00 0.  1.
         21   -1    0    0  501  503 -0.00000000000E+00 -0.00000000000E+00 -0.71355651903E+03  0.71355651903E+03  0.00000000000E+00 0. -1.
          6    2    1    2  501    0 -0.19227773144E+03 -0.11219220063E+03 -0.23493226169E+03  0.36757278944E+03  0.17423768841E+03 0.  0.
         24    2    3    3    0    0 -0.20516726211E+03 -0.54463029540E+02 -0.19473154842E+03  0.29590002931E+03  0.67650752913E+02 0.  0.
         -6    2    1    2    0  502  0.19227773144E+03  0.11219220063E+03 -0.36444150302E+03  0.46016648392E+03  0.17139943965E+03 0.  0.
        -24    2    5    5    0    0  0.11855565561E+03  0.11772393145E+03 -0.33159887018E+03  0.37913394081E+03  0.76618319374E+02 0.  0.
          5    1    3    3  501    0  0.12889530677E+02 -0.57729171090E+02 -0.40200713273E+02  0.71672760122E+02  0.47000000000E+01 0. -1.
        -13    1    4    4    0    0 -0.42894874834E+02  0.10322392707E+02 -0.18838778808E+02  0.47973134828E+02  0.00000000000E+00 0.  1.
         14    1    4    4    0    0 -0.16227238728E+03 -0.64785422247E+02 -0.17589276961E+03  0.24792689449E+03  0.00000000000E+00 0. -1.
         -5    1    5    5    0  502  0.73722075828E+02 -0.55317308161E+01 -0.32842632841E+02  0.81032543106E+02  0.47000000000E+01 0.  1.
         13    1    6    6    0    0  0.12242156166E+03  0.89536641886E+02 -0.30274349100E+03  0.33861109010E+03  0.00000000000E+00 0. -1.
        -14    1    6    6    0    0 -0.38659060493E+01  0.28187289559E+02 -0.28855379178E+02  0.40522850712E+02  0.00000000000E+00 0.  1.
</event>
<event>
12    1  0.1628146E-001  0.2263219E+03  0.7818608E-02  0.1129881E+00
         21   -1    0    0  503  502  0.00000000000E+00  0.00000000000E+00  0.12193762931E+03  0.12193762931E+03  0.00000000000E+00 0.  1.
         21   -1    0    0  501  503 -0.00000000000E+00 -0.00000000000E+00 -0.46963550095E+03  0.46963550095E+03  0.00000000000E+00 0. -1.
          6    2    1    2  501    0 -0.46159954513E+02  0.13520580011E+03 -0.27711734844E+03  0.35779269382E+03  0.17552845113E+03 0.  0.
         24    2    3    3    0    0  0.34016099195E+02  0.30202127561E+02 -0.89529459353E+02  0.12830352856E+03  0.79856169678E+02 0.  0.
         -6    2    1    2    0  502  0.46159954513E+02 -0.13520580011E+03 -0.70580523202E+02  0.23378043645E+03  0.17105651822E+03 0.  0.
        -24    2    5    5    0    0  0.17869212042E+02 -0.16104477627E+03 -0.72415426305E+02  0.19513492353E+03  0.81110515423E+02 0.  0.
          5    1    3    3  501    0 -0.80176053708E+02  0.10500367255E+03 -0.18758788909E+03  0.22948916526E+03  0.47000000000E+01 0. -1.
        -13    1    4    4    0    0 -0.26256144116E+02  0.12159640866E+02 -0.26187180145E+02  0.39025765512E+02  0.00000000000E+00 0.  1.
         14    1    4    4    0    0  0.60272243311E+02  0.18042486695E+02 -0.63342279208E+02  0.89277763050E+02  0.00000000000E+00 0. -1.
         -5    1    5    5    0  502  0.28290742471E+02  0.25838976164E+02  0.18349031032E+01  0.38645512910E+02  0.47000000000E+01 0.  1.
         13    1    6    6    0    0 -0.19553667292E+02 -0.13117340638E+03 -0.60621047042E+02  0.14582084827E+03  0.00000000000E+00 0. -1.
        -14    1    6    6    0    0  0.37422879334E+02 -0.29871369893E+02 -0.11794379263E+02  0.49314075264E+02  0.00000000000E+00 0.  1.
</event>
<event>
12    1  0.1628146E-001  0.1766191E+03  0.7818608E-02  0.1173141E+00
         21   -1    0    0  503  502  0.00000000000E+00  0.00000000000E+00  0.22349055616E+02  0.22349055616E+02  0.00000000000E+00 0. -1.
         21   -1    0    0  501  503 -0.00000000000E+00 -0.00000000000E+00 -0.18777187133E+04  0.18777187133E+04  0.00000000000E+00 0.  1.
          6    2    1    2  501    0 -0.41173193929E+02  0.94081819958E+01 -0.14542208557E+04  0.14649070257E+04  0.17149504601E+03 0.  0.
         24    2    3    3    0    0  0.13194822333E+02  0.45592498465E+02 -0.11454007373E+04  0.11492218320E+04  0.80716732370E+02 0.  0.
         -6    2    1    2    0  502  0.41173193929E+02 -0.94081819958E+01 -0.40114880193E+03  0.43516074323E+03  0.16328124624E+03 0.  0.
        -24    2    5    5    0    0  0.80974259730E+02  0.18938843489E+02 -0.32516217782E+03  0.34469674079E+03  0.78548651800E+02 0.  0.
          5    1    3    3  501    0 -0.54368016262E+02 -0.36184316469E+02 -0.30882011844E+03  0.31568519367E+03  0.47000000000E+01 0. -1.
        -13    1    4    4    0    0  0.24983471553E+02  0.12532285494E+02 -0.11967081824E+03  0.12289156508E+03  0.00000000000E+00 0.  1.
         14    1    4    4    0    0 -0.11788649220E+02  0.33060212971E+02 -0.10257299191E+04  0.10263302669E+04  0.00000000000E+00 0. -1.
         -5    1    5    5    0  502 -0.39801065801E+02 -0.28347025485E+02 -0.75986624112E+02  0.90464002436E+02  0.47000000000E+01 0.  1.
         13    1    6    6    0    0 -0.10472661178E+02  0.10828208127E+02 -0.15102089322E+02  0.21330724912E+02  0.00000000000E+00 0. -1.
        -14    1    6    6    0    0  0.91446920908E+02  0.81106353619E+01 -0.31006008850E+03  0.32336601588E+03  0.00000000000E+00 0.  1.
</event>
<event>
12    1  0.1628146E-001  0.2035234E+03  0.7818608E-02  0.1147027E+00
         21   -1    0    0  503  502  0.00000000000E+00  0.00000000000E+00  0.17092615944E+03  0.17092615944E+03  0.00000000000E+00 0. -1.
         21   -1    0    0  501  503 -0.00000000000E+00 -0.00000000000E+00 -0.28105138523E+03  0.28105138523E+03  0.00000000000E+00 0.  1.
          6    2    1    2  501    0 -0.23740944134E+02 -0.10671567144E+03  0.30341488029E+02  0.20468684726E+03  0.17036499813E+03 0.  0.
         24    2    3    3    0    0  0.47389529183E+02 -0.84239445317E+02  0.37111314311E+01  0.12533956711E+03  0.79713129180E+02 0.  0.
         -6    2    1    2    0  502  0.23740944134E+02  0.10671567144E+03 -0.14046671382E+03  0.24729069740E+03  0.17166806451E+03 0.  0.
        -24    2    5    5    0    0 -0.47065210831E+01  0.64938437762E+01 -0.81138976623E+01  0.78788380022E+02  0.77958015262E+02 0.  0.
          5    1    3    3  501    0 -0.71130473317E+02 -0.22476226124E+02  0.26630356598E+02  0.79347280153E+02  0.47000000000E+01 0. -1.
        -13    1    4    4    0    0  0.24678365976E+01  0.90235112197E+00  0.26323040082E+02  0.26453863501E+02  0.00000000000E+00 0.  1.
         14    1    4    4    0    0  0.44921692586E+02 -0.85141796439E+02 -0.22611908650E+02  0.98885703610E+02  0.00000000000E+00 0. -1.
         -5    1    5    5    0  502  0.28447465217E+02  0.10022182766E+03 -0.13235281616E+03  0.16850231738E+03  0.47000000000E+01 0.  1.
         13    1    6    6    0    0  0.36292244502E+02  0.85698039976E+01 -0.28133885695E+01  0.37396306058E+02  0.00000000000E+00 0. -1.
        -14    1    6    6    0    0 -0.40998765586E+02 -0.20759602213E+01 -0.53005090928E+01  0.41392073964E+02  0.00000000000E+00 0.  1.
</event>
<event>
12    1  0.1628146E-001  0.1875281E+03  0.7818608E-02  0.1162754E+00
         21   -1    0    0  501  502  0.00000000000E+00  0.00000000000E+00  0.64217304520E+02  0.64217304520E+02  0.00000000000E+00 0. -1.
         21   -1    0    0  502  503 -0.00000000000E+00 -0.00000000000E+00 -0.78287850201E+03  0.78287850201E+03  0.00000000000E+00 0. -1.
         -6    2    1    2    0  503 -0.63570334391E+02  0.49108689988E+02 -0.60921390774E+03  0.63742322168E+03  0.16945184360E+03 0.  0.
        -24    2    3    3    0    0 -0.44832422564E+02  0.42899207359E+02 -0.60890706882E+03  0.61712910518E+03  0.78931780040E+02 0.  0.
          6    2    1    2  501    0  0.63570334391E+02 -0.49108689988E+02 -0.10944728975E+03  0.20967258485E+03  0.15978433202E+03 0.  0.
         24    2    5    5    0    0  0.52831998113E+02 -0.41228014202E+02 -0.14067516104E+03  0.17539887974E+03  0.80525132118E+02 0.  0.
          5    1    5    5  501    0  0.10738336278E+02 -0.78806757863E+01  0.31227871288E+02  0.34273705111E+02  0.47000000000E+01 0. -1.
        -13    1    6    6    0    0  0.62363562097E+01  0.21421793624E+02 -0.13230861547E+02  0.25939180367E+02  0.00000000000E+00 0.  1.
         14    1    6    6    0    0  0.46595641903E+02 -0.62649807826E+02 -0.12744429949E+03  0.14945969938E+03  0.00000000000E+00 0. -1.
         -5    1    3    3    0  503 -0.18737911827E+02  0.62094826296E+01 -0.30683892302E+00  0.20294116494E+02  0.47000000000E+01 0.  1.
         11    1    4    4    0    0 -0.67036602159E+02  0.35999184692E+02 -0.42498133039E+03  0.43173947991E+03  0.00000000000E+00 0. -1.
        -12    1    4    4    0    0  0.22204179594E+02  0.69000226667E+01 -0.18392573843E+03  0.18538962528E+03  0.00000000000E+00 0.  1.
</event>
<event>
12    1  0.1628146E-001  0.2606741E+03  0.7818608E-02  0.1106751E+00
         21   -1    0    0  501  502  0.00000000000E+00  0.00000000000E+00  0.22484753273E+03  0.22484753273E+03  0.00000000000E+00 0. -1.
         21   -1    0    0  502  503 -0.00000000000E+00 -0.00000000000E+00 -0.36142230658E+03  0.36142230658E+03  0.00000000000E+00 0. -1.
         -6    2    1    2    0  503  0.89757962671E+02 -0.17451108172E+03  0.50464525478E+02  0.26543551259E+03  0.17146058878E+03 0.  0.
        -24    2    3    3    0    0  0.19808751428E+02 -0.10576563675E+03 -0.32313079519E+02  0.13701024153E+03  0.78415015307E+02 0.  0.
          6    2    1    2  501    0 -0.89757962671E+02  0.17451108172E+03 -0.18703929933E+03  0.32083432672E+03  0.17158192272E+03 0.  0.
         24    2    5    5    0    0 -0.59837029537E+02  0.87907278481E+02 -0.22778247212E+02  0.13268740483E+03  0.76019333991E+02 0.  0.
          5    1    5    5  501    0 -0.29920933134E+02  0.86603803235E+02 -0.16426105212E+03  0.18814692189E+03  0.47000000000E+01 0. -1.
        -13    1    6    6    0    0 -0.70441960779E+02  0.52379390832E+02 -0.33710696709E+02  0.94032342813E+02  0.00000000000E+00 0.  1.
         14    1    6    6    0    0  0.10604931242E+02  0.35527887649E+02  0.10932449497E+02  0.38655062016E+02  0.00000000000E+00 0. -1.
         -5    1    3    3    0  503  0.69949211243E+02 -0.68745444965E+02  0.82777604997E+02  0.12842527106E+03  0.47000000000E+01 0.  1.
         13    1    4    4    0    0 -0.15497901695E+02 -0.38609849862E+02  0.18669259913E+02  0.45600950966E+02  0.00000000000E+00 0. -1.
        -14    1    4    4    0    0  0.35306653122E+02 -0.67155786889E+02 -0.50982339432E+02  0.91409290564E+02  0.00000000000E+00 0.  1.
</event>
<event>
12    1  0.1628146E-001  0.1881322E+03  0.7818608E-02  0.1160866E+00
         21   -1    0    0  501  502  0.00000000000E+00  0.00000000000E+00  0.18653134817E+04  0.18653134817E+04  0.00000000000E+00 0. -1.
         21   -1    0    0  502  503 -0.00000000000E+00 -0.00000000000E+00 -0.29027430017E+02  0.29027430017E+02  0.00000000000E+00 0. -1.
         -6    2    1    2    0  503 -0.71787794613E+02 -0.19806190368E+02  0.35711813544E+03  0.40364228618E+03  0.17276562128E+03 0.  0.
        -24    2    3    3    0    0  0.18486533922E+02  0.19532447951E+01  0.24244945284E+03  0.25601463233E+03  0.80101109131E+02 0.  0.
          6    2    1    2  501    0  0.71787794613E+02  0.19806190368E+02  0.14791679163E+04  0.14906986256E+04  0.16940748246E+03 0.  0.
         24    2    5    5    0    0  0.29096344849E+02 -0.19165700735E+02  0.37615991795E+03  0.38616700423E+03  0.80092133912E+02 0.  0.
          5    1    5    5  501    0  0.42691449764E+02  0.38971891103E+02  0.11030079983E+04  0.11045316213E+04  0.47000000000E+01 0. -1.
        -13    1    6    6    0    0 -0.56812754781E+01  0.26689390059E+02  0.81724827903E+02  0.86160013513E+02  0.00000000000E+00 0.  1.
         14    1    6    6    0    0  0.34777620327E+02 -0.45855090794E+02  0.29443509005E+03  0.30000699072E+03  0.00000000000E+00 0. -1.
         -5    1    3    3    0  503 -0.90274328535E+02 -0.21759435163E+02  0.11466868261E+03  0.14762765385E+03  0.47000000000E+01 0.  1.
         13    1    4    4    0    0 -0.23127258746E+02 -0.13186068260E+02  0.35459414252E+02  0.44340867744E+02  0.00000000000E+00 0. -1.
        -14    1    4    4    0    0  0.41613792667E+02  0.15139313055E+02  0.20699003858E+03  0.21167376458E+03  0.00000000000E+00 0.  1.
</event>
<event>
12    1  0.1628146E-001  0.2999273E+03  0.7818608E-02  0.1085792E+00
         21   -1    0    0  503  502  0.00000000000E+00  0.00000000000E+00  0.24672851958E+03  0.24672851958E+03  0.00000000000E+00 0. -1.
         21   -1    0    0  501  503 -0.00000000000E+00 -0.00000000000E+00 -0.36359019943E+03  0.36359019943E+03  0.00000000000E+00 0.  1.
          6    2    1    2  501    0 -0.24387464455E+03  0.18254204032E+02 -0.27032625804E+02  0.30114311108E+03  0.17363280876E+03 0.  0.
         24    2    3    3    0    0 -0.49054790767E+02 -0.99079351312E+01  0.26127838287E+02  0.97192120767E+02  0.79114503916E+02 0.  0.
         -6    2    1    2    0  502  0.24387464455E+03 -0.18254204032E+02 -0.89829054043E+02  0.30917560792E+03  0.16646993532E+03 0.  0.
        -24    2    5    5    0    0  0.10091002427E+03 -0.17182392912E+02  0.19415648943E+02  0.12918525663E+03  0.76379286989E+02 0.  0.
          5    1    3    3  501    0 -0.19481985378E+03  0.28162139163E+02 -0.53160464091E+02  0.20395099032E+03  0.47000000000E+01 0. -1.
        -13    1    4    4    0    0 -0.18904790737E+02  0.99815710948E+01 -0.26070881489E+02  0.33715185539E+02  0.00000000000E+00 0.  1.
         14    1    4    4    0    0 -0.30150000029E+02 -0.19889506226E+02  0.52198719776E+02  0.63476935228E+02  0.00000000000E+00 0. -1.
         -5    1    5    5    0  502  0.14296462027E+03 -0.10718111195E+01 -0.10924470299E+03  0.17999035130E+03  0.47000000000E+01 0.  1.
         13    1    6    6    0    0  0.54121259922E+02 -0.44078814382E+02 -0.49415496173E+01  0.69974792357E+02  0.00000000000E+00 0. -1.
        -14    1    6    6    0    0  0.46788764352E+02  0.26896421469E+02  0.24357198560E+02  0.59210464271E+02  0.00000000000E+00 0.  1.
</event>
<event>
12    1  0.1628146E-001  0.1992303E+03  0.7818608E-02  0.1150777E+00
         21   -1    0    0  501  502  0.00000000000E+00  0.00000000000E+00  0.46212628643E+03  0.46212628643E+03  0.00000000000E+00 0.  1.
         21   -1    0    0  502  503 -0.00000000000E+00 -0.00000000000E+00 -0.91998630024E+02  0.91998630024E+02  0.00000000000E+00 0.  1.
         -6    2    1    2    0  503  0.59246262798E+01  0.97599096446E+02  0.11003812370E+03  0.22759859277E+03  0.17358584603E+03 0.  0.
        -24    2    3    3    0    0  0.38980107817E+02  0.11396183602E+03  0.42953668700E+02  0.15089906078E+03  0.80117164295E+02 0.  0.
          6    2    1    2  501    0 -0.59246262798E+01 -0.97599096446E+02  0.26008953271E+03  0.32652632368E+03  0.17149982568E+03 0.  0.
         24    2    5    5    0    0  0.42181651971E+02 -0.93843348177E+02  0.11204597180E+03  0.17074665370E+03  0.77551622764E+02 0.  0.
          5    1    5    5  501    0 -0.48106278251E+02 -0.37557482684E+01  0.14804356091E+03  0.15577966998E+03  0.47000000000E+01 0. -1.
        -11    1    6    6    0    0 -0.34001379940E+01  0.33760653409E+01  0.42606368467E+02  0.42874950606E+02  0.00000000000E+00 0.  1.
         12    1    6    6    0    0  0.45581789965E+02 -0.97219413518E+02  0.69439603331E+02  0.12787170309E+03  0.00000000000E+00 0. -1.
         -5    1    3    3    0  503 -0.33055481537E+02 -0.16362739574E+02  0.67084454999E+02  0.76699531996E+02  0.47000000000E+01 0.  1.
         13    1    4    4    0    0 -0.16381931080E+02  0.65200555429E+02  0.37366200933E+02  0.76913672818E+02  0.00000000000E+00 0. -1.
        -14    1    4    4    0    0  0.55362038897E+02  0.48761280590E+02  0.55874677668E+01  0.73985387960E+02  0.00000000000E+00 0.  1.
</event>
<event>
12    1  0.1628146E-001  0.2049739E+03  0.7818608E-02  0.1145972E+00
         21   -1    0    0  503  502  0.00000000000E+00  0.00000000000E+00  0.29977143989E+03  0.29977143989E+03  0.00000000000E+00 0.  1.
         21   -1    0    0  501  503 -0.00000000000E+00 -0.00000000000E+00 -0.16959451399E+03  0.16959451399E+03  0.00000000000E+00 0.  1.
          6    2    1    2  501    0 -0.10837696553E+03  0.12292044674E+02 -0.34442620043E+02  0.20784756903E+03  0.17354439448E+03 0.  0.
         24    2    3    3    0    0 -0.35491895162E+02  0.45542000742E+02 -0.69048290219E+02  0.12045514676E+03  0.80050156437E+02 0.  0.
         -6    2    1    2    0  502  0.10837696553E+03 -0.12292044674E+02  0.16461954595E+03  0.26151838485E+03  0.17145147911E+03 0.  0.
        -24    2    5    5    0    0  0.12417362938E+03 -0.31651950291E+02  0.76450475058E+02  0.16975665211E+03  0.80942631591E+02 0.  0.
          5    1    3    3  501    0 -0.72885070365E+02 -0.33249956068E+02  0.34605670176E+02  0.87392422263E+02  0.47000000000E+01 0. -1.
        -11    1    4    4    0    0  0.14679314747E+02 -0.46729365546E+01 -0.41580118285E+02  0.44342134073E+02  0.00000000000E+00 0.  1.
         12    1    4    4    0    0 -0.50171209908E+02  0.50214937297E+02 -0.27468171934E+02  0.76113012690E+02  0.00000000000E+00 0. -1.
         -5    1    5    5    0  502 -0.15796663855E+02  0.19359905617E+02  0.88169070887E+02  0.91761732740E+02  0.47000000000E+01 0.  1.
         13    1    6    6    0    0  0.83172065097E+02 -0.54158795959E+02  0.72314803086E+02  0.12280145902E+03  0.00000000000E+00 0. -1.
        -14    1    6    6    0    0  0.41001564284E+02  0.22506845667E+02  0.41356719721E+01  0.46955193092E+02  0.00000000000E+00 0.  1.
</event>
<event>
12    1  0.1628146E-001  0.1850898E+03  0.7818608E-02  0.1163271E+00
         21   -1    0    0  503  502  0.00000000000E+00  0.00000000000E+00  0.76383475802E+03  0.76383475802E+03  0.00000000000E+00 0. -1.
         21   -1    0    0  501  503 -0.00000000000E+00 -0.00000000000E+00 -0.45893942295E+02  0.45893942295E+02  0.00000000000E+00 0. -1.
          6    2    1    2  501    0  0.23220697718E+02 -0.62293161903E+02  0.28806997209E+03  0.34170394941E+03  0.17134071728E+03 0.  0.
         24    2    3    3    0    0  0.46084971378E+02  0.17578325191E+02  0.10282798535E+03  0.13863028516E+03  0.78815856833E+02 0.  0.
         -6    2    1    2    0  502 -0.23220697718E+02  0.62293161903E+02  0.42987084363E+03  0.46802475090E+03  0.17273849146E+03 0.  0.
        -24    2    5    5    0    0 -0.64516963867E+02  0.82637272250E+02  0.26041370035E+03  0.29236292286E+03  0.81666553372E+02 0.  0.
          5    1    3    3  501    0 -0.22864273660E+02 -0.79871487095E+02  0.18524198674E+03  0.20307366425E+03  0.47000000000E+01 0. -1.
        -13    1    4    4    0    0  0.17444451948E+02 -0.97692596693E+01  0.96473554085E+02  0.98523570662E+02  0.00000000000E+00 0.  1.
         14    1    4    4    0    0  0.28640519430E+02  0.27347584861E+02  0.63544312655E+01  0.40106714496E+02  0.00000000000E+00 0. -1.
         -5    1    5    5    0  502  0.41296266149E+02 -0.20344110347E+02  0.16945714328E+03  0.17566182804E+03  0.47000000000E+01 0.  1.
         11    1    6    6    0    0 -0.13076835786E+02  0.71112583795E+02  0.99235467628E+02  0.12278306579E+03  0.00000000000E+00 0. -1.
        -12    1    6    6    0    0 -0.51440128081E+02  0.11524688455E+02  0.16117823272E+03  0.16957985707E+03  0.00000000000E+00 0.  1.
</event>
<event>
12    1  0.1628146E-001  0.2119499E+03  0.7818608E-02  0.1140309E+00
         21   -1    0    0  501  502  0.00000000000E+00  0.00000000000E+00  0.16082877194E+04  0.16082877194E+04  0.00000000000E+00 0. -1.
         21   -1    0    0  502  503 -0.00000000000E+00 -0.00000000000E+00 -0.30135023261E+02  0.30135023261E+02  0.00000000000E+00 0.  1.
         -6    2    1    2    0  503  0.12179417148E+03  0.43024204685E+01  0.56084605130E+03  0.59955903450E+03  0.17340822229E+03 0.  0.
        -24    2    3    3    0    0  0.14980271334E+03 -0.19461500769E+02  0.50011597407E+03  0.52842933149E+03  0.79384935129E+02 0.  0.
          6    2    1    2  501    0 -0.12179417148E+03 -0.43024204685E+01  0.10173066449E+04  0.10388637082E+04  0.17167604224E+03 0.  0.
         24    2    5    5    0    0 -0.51789287219E+02 -0.36893784640E+02  0.28752362487E+03  0.30499163003E+03  0.79415224679E+02 0.  0.
          5    1    5    5  501    0 -0.70004884264E+02  0.32591364172E+02  0.72978301999E+03  0.73387207816E+03  0.47000000000E+01 0. -1.
        -13    1    6    6    0    0 -0.60870042071E+02 -0.26764372991E+02  0.28292141131E+03  0.29063038152E+03  0.00000000000E+00 0.  1.
         14    1    6    6    0    0  0.90807548518E+01 -0.10129411649E+02  0.46022135609E+01  0.14361248508E+02  0.00000000000E+00 0. -1.
         -5    1    3    3    0  503 -0.28008541853E+02  0.23763921237E+02  0.60730077238E+02  0.71129703012E+02  0.47000000000E+01 0.  1.
         13    1    4    4    0    0  0.28332800531E+02 -0.38150989044E+02  0.12744689355E+03  0.13601822020E+03  0.00000000000E+00 0. -1.
        -14    1    4    4    0    0  0.12146991280E+03  0.18689488276E+02  0.37266908051E+03  0.39241111128E+03  0.00000000000E+00 0.  1.
</event>
<event>
12    1  0.1628146E-001  0.1843142E+03  0.7818608E-02  0.1163719E+00
         21   -1    0    0  501  502  0.00000000000E+00  0.00000000000E+00  0.26998829370E+03  0.26998829370E+03  0.00000000000E+00 0. -1.
         21   -1    0    0  502  503 -0.00000000000E+00 -0.00000000000E+00 -0.14812699017E+03  0.14812699017E+03  0.00000000000E+00 0. -1.
         -6    2    1    2    0  503 -0.58763893705E+02  0.24722832349E+02 -0.20310202141E+02  0.18542981590E+03  0.17293726802E+03 0.  0.
        -24    2    3    3    0    0 -0.70607109656E+01  0.31671957456E+02 -0.71290351040E+02  0.11233689540E+03  0.80525135134E+02 0.  0.
          6    2    1    2  501    0  0.58763893705E+02 -0.24722832349E+02  0.14217150567E+03  0.23268546797E+03  0.17281601876E+03 0.  0.
         24    2    5    5    0    0 -0.13706595202E+02 -0.48719514020E+02  0.11950713555E+03  0.15291344176E+03  0.80864722997E+02 0.  0.
          5    1    5    5  501    0  0.72470488907E+02  0.23996681671E+02  0.22664370120E+02  0.79772026216E+02  0.47000000000E+01 0. -1.
        -13    1    6    6    0    0 -0.30871044926E+02  0.10679848617E+02  0.31677325125E+02  0.45503115370E+02  0.00000000000E+00 0.  1.
         14    1    6    6    0    0  0.17164449724E+02 -0.59399362637E+02  0.87829810423E+02  0.10741032639E+03  0.00000000000E+00 0. -1.
         -5    1    3    3    0  503 -0.51703182739E+02 -0.69491251065E+01  0.50980148899E+02  0.73092920497E+02  0.47000000000E+01 0.  1.
         13    1    4    4    0    0 -0.35459745411E+02  0.40382781133E+01 -0.63313860807E+01  0.36246209242E+02  0.00000000000E+00 0. -1.
        -14    1    4    4    0    0  0.28399034445E+02  0.27633679342E+02 -0.64958964959E+02  0.76090686158E+02  0.00000000000E+00 0.  1.
</event>
<event>
12    1  0.1628146E-001  0.2038497E+03  0.7818608E-02  0.1146802E+00
         21   -1    0    0  503  502  0.00000000000E+00  0.00000000000E+00  0.75937087595E+03  0.75937087595E+03  0.00000000000E+00 0. -1.
         21   -1    0    0  501  503 -0.00000000000E+00 -0.00000000000E+00 -0.10449475964E+03  0.10449475964E+03  0.00000000000E+00 0. -1.
          6    2    1    2  501    0 -0.11057419091E+02 -0.10655343660E+03  0.27735442412E+02  0.20442638249E+03  0.17188656063E+03 0.  0.
         24    2    3    3    0    0 -0.73827656935E+02 -0.71207492496E+02  0.12728572342E+02  0.13069216606E+03  0.79983722086E+02 0.  0.
         -6    2    1    2    0  502  0.11057419091E+02  0.10655343660E+03  0.62714067390E+03  0.65943925310E+03  0.17343241423E+03 0.  0.
        -24    2    5    5    0    0  0.48290990732E+02  0.58672676070E+02  0.20929324052E+03  0.23718639797E+03  0.81726520490E+02 0.  0.
          5    1    3    3  501    0  0.62770237844E+02 -0.35345944101E+02  0.15006870070E+02  0.73734216431E+02  0.47000000000E+01 0. -1.
        -11    1    4    4    0    0 -0.15310640915E+02  0.16655315943E+02  0.10896135449E+02  0.25110576300E+02  0.00000000000E+00 0.  1.
         12    1    4    4    0    0 -0.58517016020E+02 -0.87862808439E+02  0.18324368930E+01  0.10558158976E+03  0.00000000000E+00 0. -1.
         -5    1    5    5    0  502 -0.37233571642E+02  0.47880760527E+02  0.41784743338E+03  0.42225285514E+03  0.47000000000E+01 0.  1.
         13    1    6    6    0    0  0.34695934317E+01  0.57289088481E+02  0.68189320129E+02  0.89128340707E+02  0.00000000000E+00 0. -1.
        -14    1    6    6    0    0  0.44821397301E+02  0.13835875882E+01  0.14110392039E+03  0.14805805726E+03  0.00000000000E+00 0.  1.
</event>
<event>
12    1  0.1628146E-001  0.1734715E+03  0.7818608E-02  0.1174475E+00
         21   -1    0    0  503  502  0.00000000000E+00  0.00000000000E+00  0.95239253268E+02  0.95239253268E+02  0.00000000000E+00 0. -1.
         21   -1    0    0  501  503 -0.00000000000E+00 -0.00000000000E+00 -0.46862544828E+03  0.46862544828E+03  0.00000000000E+00 0. -1.
          6    2    1    2  501    0  0.16203810313E+02  0.12451430809E+02 -0.34807338624E+03  0.38855608196E+03  0.17147345282E+03 0.  0.
         24    2    3    3    0    0  0.71323811120E+02  0.30459738048E+02 -0.18433932920E+03  0.21479347075E+03  0.78360481833E+02 0.  0.
         -6    2    1    2    0  502 -0.16203810313E+02 -0.12451430809E+02 -0.25312808764E+02  0.17530861958E+03  0.17226367062E+03 0.  0.
        -24    2    5    5    0    0  0.23351565091E+02 -0.60224221950E+02  0.89201080293E+01  0.10430967671E+03  0.81416753966E+02 0.  0.
          5    1    3    3  501    0 -0.55120000806E+02 -0.18008307239E+02 -0.16373405705E+03  0.17376261122E+03  0.47000000000E+01 0. -1.
        -13    1    4    4    0    0  0.12709214954E+02  0.25096324964E+02 -0.85342842023E+01  0.29397001179E+02  0.00000000000E+00 0.  1.
         14    1    4    4    0    0  0.58614596166E+02  0.53634130838E+01 -0.17580504499E+03  0.18539646957E+03  0.00000000000E+00 0. -1.
         -5    1    5    5    0  502 -0.39555375404E+02  0.47772791141E+02 -0.34232916793E+02  0.70998942872E+02  0.47000000000E+01 0.  1.
         11    1    6    6    0    0  0.46936815320E+02 -0.11796208147E+02  0.13515150328E+02  0.50248128795E+02  0.00000000000E+00 0. -1.
        -12    1    6    6    0    0 -0.23585250229E+02 -0.48428013803E+02 -0.45950422986E+01  0.54061547915E+02  0.00000000000E+00 0.  1.
</event>
<event>
12    1  0.1628146E-001  0.2484438E+03  0.7818608E-02  0.1114341E+00
         21   -1    0    0  503  502  0.00000000000E+00  0.00000000000E+00  0.82997851966E+02  0.82997851966E+02  0.00000000000E+00 0. -1.
         21   -1    0    0  501  503 -0.00000000000E+00 -0.00000000000E+00 -0.83042198766E+03  0.83042198766E+03  0.00000000000E+00 0. -1.
          6    2    1    2  501    0 -0.14383510388E+03 -0.10620909698E+03 -0.22553485746E+03  0.33554474430E+03  0.17249751914E+03 0.  0.
         24    2    3    3    0    0 -0.34886905302E+02  0.21725991152E+01 -0.12349248946E+03  0.15101551386E+03  0.79583127137E+02 0.  0.
         -6    2    1    2    0  502  0.14383510388E+03  0.10620909698E+03 -0.52188927823E+03  0.57787509532E+03  0.17205318269E+03 0.  0.
        -24    2    5    5    0    0  0.12297631194E+03  0.38677408198E+02 -0.45784626497E+03  0.48238051046E+03  0.80303420369E+02 0.  0.
          5    1    3    3  501    0 -0.10894819857E+03 -0.10838169609E+03 -0.10204236801E+03  0.18452923045E+03  0.47000000000E+01 0. -1.
        -11    1    4    4    0    0 -0.24713777014E+02 -0.10117255574E+02 -0.13077800345E+03  0.13347664897E+03  0.00000000000E+00 0.  1.
         12    1    4    4    0    0 -0.10173128288E+02  0.12289854689E+02  0.72855139899E+01  0.17538864888E+02  0.00000000000E+00 0. -1.
         -5    1    5    5    0  502  0.20858791940E+02  0.67531688780E+02 -0.64043013263E+02  0.95494584865E+02  0.47000000000E+01 0.  1.
         11    1    6    6    0    0  0.10663231576E+03  0.69678220026E+00 -0.27577953486E+03  0.29567767606E+03  0.00000000000E+00 0. -1.
        -12    1    6    6    0    0  0.16343996176E+02  0.37980625997E+02 -0.18206673010E+03  0.18670283440E+03  0.00000000000E+00 0.  1.
</event>
<event>
12    1  0.1628146E-001  0.1768829E+03  0.7818608E-02  0.1171134E+00
         21   -1    0    0  501  502  0.00000000000E+00  0.00000000000E+00  0.39211641207E+03  0.39211641207E+03  0.00000000000E+00 0. -1.
         21   -1    0    0  502  503 -0.00000000000E+00 -0.00000000000E+00 -0.11674412974E+03  0.11674412974E+03  0.00000000000E+00 0. -1.
         -6    2    1    2    0  503 -0.30966133343E+02  0.21137250736E+02  0.28151127405E+03  0.33187112602E+03  0.17170952822E+03 0.  0.
        -24    2    3    3    0    0 -0.27284082967E+02 -0.53412787002E+02  0.13943605455E+03  0.17131358612E+03  0.79426598070E+02 0.  0.
          6    2    1    2  501    0  0.30966133343E+02 -0.21137250736E+02 -0.61389917304E+01  0.17698941580E+03  0.17286376515E+03 0.  0.
         24    2    5    5    0    0  0.48582120110E+02 -0.29314290057E+02 -0.50636311900E+02  0.12821146520E+03  0.10322109150E+03 0.  0.
          5    1    5    5  501    0 -0.17615986767E+02  0.81770393211E+01  0.44497320170E+02  0.48777950594E+02  0.47000000000E+01 0. -1.
        -11    1    6    6    0    0  0.77069065757E+02 -0.35240853584E+02 -0.22373602228E+02  0.87647799372E+02  0.00000000000E+00 0.  1.
         12    1    6    6    0    0 -0.28486945647E+02  0.59265635273E+01 -0.28262709672E+02  0.40563665830E+02  0.00000000000E+00 0. -1.
         -5    1    3    3    0  503 -0.36820503762E+01  0.74550037738E+02  0.14207521950E+03  0.16055753990E+03  0.47000000000E+01 0.  1.
         11    1    4    4    0    0  0.81620917175E+01 -0.24599502002E+02  0.14452471442E+01  0.25958504951E+02  0.00000000000E+00 0. -1.
        -12    1    4    4    0    0 -0.35446174684E+02 -0.28813285000E+02  0.13799080741E+03  0.14535508117E+03  0.00000000000E+00 0.  1.
</event>
<event>
12    1  0.1628146E-001  0.2023445E+03  0.7818608E-02  0.1147861E+00
         21   -1    0    0  503  502  0.00000000000E+00  0.00000000000E+00  0.48303182218E+03  0.48303182218E+03  0.00000000000E+00 0.  1.
         21   -1    0    0  501  503 -0.00000000000E+00 -0.00000000000E+00 -0.93965819575E+02  0.93965819575E+02  0.00000000000E+00 0. -1.
          6    2    1    2  501    0 -0.17959815935E+02  0.10420666993E+03  0.10323505893E+03  0.22679395784E+03  0.17203614991E+03 0.  0.
         24    2    3    3    0    0 -0.58241438730E+02  0.86352464331E+02  0.12159695938E+03  0.17882906255E+03  0.79656762435E+02 0.  0.
         -6    2    1    2    0  502  0.17959815935E+02 -0.10420666993E+03  0.28583094367E+03  0.35020368391E+03  0.17251581614E+03 0.  0.
        -24    2    5    5    0    0  0.77053626396E+02 -0.87016274363E+02  0.19475789548E+03  0.24018560248E+03  0.79053098880E+02 0.  0.
          5    1    3    3  501    0  0.40281622795E+02  0.17854205602E+02 -0.18361900443E+02  0.47964895294E+02  0.47000000000E+01 0. -1.
        -11    1    4    4    0    0  0.53770115995E+01  0.62646091787E+02  0.65074463234E+02  0.90488291149E+02  0.00000000000E+00 0.  1.
         12    1    4    4    0    0 -0.63618450330E+02  0.23706372544E+02  0.56522496142E+02  0.88340771400E+02  0.00000000000E+00 0. -1.
         -5    1    5    5    0  502 -0.59093810461E+02 -0.17190395570E+02  0.91073048191E+02  0.11001808143E+03  0.47000000000E+01 0.  1.
         13    1    6    6    0    0  0.57348337412E+02 -0.24061594814E+02  0.45681224766E+02  0.77165837292E+02  0.00000000000E+00 0. -1.
        -14    1    6    6    0    0  0.19705288985E+02 -0.62954679548E+02  0.14907667071E+03  0.16301976519E+03  0.00000000000E+00 0.  1.
</event>
<event>
12    1  0.1628146E-001  0.1798600E+03  0.7818608E-02  0.1167959E+00
         21   -1    0    0  501  502  0.00000000000E+00  0.00000000000E+00  0.22808346086E+04  0.22808346086E+04  0.00000000000E+00 0.  1.
         21   -1    0    0  502  503 -0.00000000000E+00 -0.00000000000E+00 -0.17115240128E+02  0.17115240128E+02  0.00000000000E+00 0.  1.
         -6    2    1    2    0  503 -0.17757201968E+02 -0.46896644958E+02  0.65554889128E+03  0.67975273909E+03  0.17264073656E+03 0.  0.
        -24    2    3    3    0    0  0.27767522468E+02  0.14381436273E+02  0.19372905045E+03  0.21164253929E+03  0.79270161078E+02 0.  0.
          6    2    1    2  501    0  0.17757201968E+02  0.46896644958E+02  0.16081704772E+04  0.16181971096E+04  0.17272807641E+03 0.  0.
         24    2    5    5    0    0 -0.23978433134E+02  0.75341993844E+02  0.13780634136E+04  0.13825652955E+04  0.78591622713E+02 0.  0.
          5    1    5    5  501    0  0.41735635101E+02 -0.28445348886E+02  0.23010706360E+03  0.23563181413E+03  0.47000000000E+01 0. -1.
        -11    1    6    6    0    0  0.19428715103E+02  0.59462077844E+02  0.93725874398E+03  0.93934400878E+03  0.00000000000E+00 0.  1.
         12    1    6    6    0    0 -0.43407148236E+02  0.15879916000E+02  0.44080466963E+03  0.44322128674E+03  0.00000000000E+00 0. -1.
         -5    1    3    3    0  503 -0.45524724436E+02 -0.61278081230E+02  0.46181984083E+03  0.46811019980E+03  0.47000000000E+01 0.  1.
         13    1    4    4    0    0  0.48058686815E+02  0.10258161657E+02  0.18050372358E+03  0.18707341202E+03  0.00000000000E+00 0. -1.
        -14    1    4    4    0    0 -0.20291164347E+02  0.41232746157E+01  0.13225326868E+02  0.24569127272E+02  0.00000000000E+00 0.  1.
</event>
<event>
12    1  0.1628146E-001  0.1791420E+03  0.7818608E-02  0.1168808E+00
         21   -1    0    0  501  502  0.00000000000E+00  0.00000000000E+00  0.24269826949E+03  0.24269826949E+03  0.00000000000E+00 0. -1.
         21   -1    0    0  502  503 -0.00000000000E+00 -0.00000000000E+00 -0.37732496936E+03  0.37732496936E+03  0.00000000000E+00 0. -1.
         -6    2    1    2    0  503 -0.30579303567E+02 -0.37701299693E+02 -0.31747836286E+03  0.36453307218E+03  0.17243946190E+03 0.  0.
        -24    2    3    3    0    0  0.12312539104E+02 -0.25587895835E+02 -0.30652566908E+03  0.31839744363E+03  0.81317939426E+02 0.  0.
          6    2    1    2  501    0  0.30579303567E+02  0.37701299693E+02  0.18285166299E+03  0.25549016666E+03  0.17170909352E+03 0.  0.
         24    2    5    5    0    0  0.18489488819E+02  0.88438753734E+02  0.10162798733E+03  0.15884737929E+03  0.82103396642E+02 0.  0.
          5    1    5    5  501    0  0.12089814748E+02 -0.50737454042E+02  0.81223675662E+02  0.96642787373E+02  0.47000000000E+01 0. -1.
        -11    1    6    6    0    0 -0.94176538122E+01  0.57426537875E+02  0.10164792507E+03  0.11712728174E+03  0.00000000000E+00 0.  1.
         12    1    6    6    0    0  0.27907142631E+02  0.31012215860E+02 -0.19937743570E-01  0.41720097554E+02  0.00000000000E+00 0. -1.
         -5    1    3    3    0  503 -0.42891842670E+02 -0.12113403858E+02 -0.10952693784E+02  0.46135628551E+02  0.47000000000E+01 0.  1.
         13    1    4    4    0    0 -0.10856756553E+02  0.26083146662E+02 -0.12905278769E+03  0.13210912805E+03  0.00000000000E+00 0. -1.
        -14    1    4    4    0    0  0.23169295657E+02 -0.51671042497E+02 -0.17747288139E+03  0.18628831558E+03  0.00000000000E+00 0.  1.
</event>
<event>
12    1  0.1628146E-001  0.1947855E+03  0.7818608E-02  0.1154488E+00
         21   -1    0    0  501  502  0.00000000000E+00  0.00000000000E+00  0.65107021344E+02  0.65107021344E+02  0.00000000000E+00 0.  1.
         21   -1    0    0  502  503 -0.00000000000E+00 -0.00000000000E+00 -0.66077389703E+03  0.66077389703E+03  0.00000000000E+00 0. -1.
         -6    2    1    2    0  503  0.72552587360E+02  0.55871376578E+02 -0.42632631023E+03  0.46871688683E+03  0.17191831941E+03 0.  0.
        -24    2    3    3    0    0  0.89371280632E+02  0.23215559032E+02 -0.41060841840E+03  0.42848738289E+03  0.80473449391E+02 0.  0.
          6    2    1    2  501    0 -0.72552587360E+02 -0.55871376578E+02 -0.16934056546E+03  0.25716403155E+03  0.17050402740E+03 0.  0.
         24    2    5    5    0    0 -0.75069275343E+02  0.84823851657E+01 -0.10884940930E+03  0.16868233659E+03  0.10439439552E+03 0.  0.
          5    1    5    5  501    0  0.25166879829E+01 -0.64353761744E+02 -0.60491156158E+02  0.88481694956E+02  0.47000000000E+01 0. -1.
        -13    1    6    6    0    0  0.24537373756E+01 -0.37148489223E+02 -0.20068717121E+02  0.42294024229E+02  0.00000000000E+00 0.  1.
         14    1    6    6    0    0 -0.77523012718E+02  0.45630874388E+02 -0.88780692177E+02  0.12638831236E+03  0.00000000000E+00 0. -1.
         -5    1    3    3    0  503 -0.16818693272E+02  0.32655817547E+02 -0.15717891835E+02  0.40229503934E+02  0.47000000000E+01 0.  1.
         13    1    4    4    0    0  0.86979304315E+02  0.18502067231E+02 -0.21312020003E+03  0.23092844245E+03  0.00000000000E+00 0. -1.
        -14    1    4    4    0    0  0.23919763172E+01  0.47134918007E+01 -0.19748821837E+03  0.19755894045E+03  0.00000000000E+00 0.  1.
</event>
<event>
12    1  0.1628146E-001  0.2106963E+03  0.7818608E-02  0.1142704E+00
         21   -1    0    0  503  502  0.00000000000E+00  0.00000000000E+00  0.64010009983E+03  0.64010009983E+03  0.00000000000E+00 0. -1.
         21   -1    0    0  501  503 -0.00000000000E+00 -0.00000000000E+00 -0.11926067181E+03  0.11926067181E+03  0.00000000000E+00 0. -1.
          6    2    1    2  501    0 -0.10583693758E+03  0.19743506349E+02  0.11156170937E+02  0.21099149322E+03  0.18111235921E+03 0.  0.
         24    2    3    3    0    0 -0.10455176570E+03  0.68061483172E+02  0.42642409792E+02  0.15311445296E+03  0.77860281223E+02 0.  0.
         -6    2    1    2    0  502  0.10583693758E+03 -0.19743506349E+02  0.50968325709E+03  0.54836927842E+03  0.17129092084E+03 0.  0.
        -24    2    5    5    0    0  0.62292029806E+02 -0.51930546556E+02  0.15429807902E+03  0.18885171371E+03  0.72663566781E+02 0.  0.
          5    1    3    3  501    0 -0.12851718891E+01 -0.48317976823E+02 -0.31486238855E+02  0.57877040251E+02  0.47000000000E+01 0. -1.
        -11    1    4    4    0    0 -0.39001883126E+02  0.38816914811E+02  0.57745637118E+02  0.79765019708E+02  0.00000000000E+00 0.  1.
         12    1    4    4    0    0 -0.65549882570E+02  0.29244568361E+02 -0.15103227325E+02  0.73349433257E+02  0.00000000000E+00 0. -1.
         -5    1    5    5    0  502  0.43544907779E+02  0.32187040207E+02  0.35538517806E+03  0.35951756471E+03  0.47000000000E+01 0.  1.
         11    1    6    6    0    0  0.98464987084E+01  0.18366309713E+02  0.35859856389E+02  0.41475344116E+02  0.00000000000E+00 0. -1.
        -12    1    6    6    0    0  0.52445531098E+02 -0.70296856269E+02  0.11843822264E+03  0.14737636959E+03  0.00000000000E+00 0.  1.
</event>
<event>
12    1  0.1628146E-001  0.1907153E+03  0.7818608E-02  0.1158024E+00
         21   -1    0    0  501  502  0.00000000000E+00  0.00000000000E+00  0.10719370844E+04  0.10719370844E+04  0.00000000000E+00 0. -1.
         21   -1    0    0  502  503 -0.00000000000E+00 -0.00000000000E+00 -0.34094170593E+02  0.34094170593E+02  0.00000000000E+00 0. -1.
         -6    2    1    2    0  503  0.36983847818E+01  0.81901137947E+02  0.46363439379E+03  0.50097938561E+03  0.17117832589E+03 0.  0.
        -24    2    3    3    0    0  0.54600672052E+02  0.31775052286E+02  0.36327486954E+03  0.37770006285E+03  0.81840205884E+02 0.  0.
          6    2    1    2  501    0 -0.36983847818E+01 -0.81901137947E+02  0.57420851997E+03  0.60505186934E+03  0.17219426743E+03 0.  0.
         24    2    5    5    0    0 -0.64766408456E+02 -0.86445644841E+01  0.36188322154E+03  0.37224303913E+03  0.57758098879E+02 0.  0.
          5    1    5    5  501    0  0.61068023674E+02 -0.73256573463E+02  0.21232529843E+03  0.23280883021E+03  0.47000000000E+01 0. -1.
        -13    1    6    6    0    0 -0.16252403318E+02  0.20692125234E+02  0.17444914094E+03  0.17642224189E+03  0.00000000000E+00 0.  1.
         14    1    6    6    0    0 -0.48514005138E+02 -0.29336689718E+02  0.18743408061E+03  0.19582079724E+03  0.00000000000E+00 0. -1.
         -5    1    3    3    0  503 -0.50902287270E+02  0.50126085660E+02  0.10035952425E+03  0.12327932276E+03  0.47000000000E+01 0.  1.
         13    1    4    4    0    0  0.44554779462E+02  0.17790366818E+01  0.71840039314E+02  0.84553442230E+02  0.00000000000E+00 0. -1.
        -14    1    4    4    0    0  0.10045892591E+02  0.29996015605E+02  0.29143483023E+03  0.29314662062E+03  0.00000000000E+00 0.  1.
</event>
<event>
12    1  0.1628146E-001  0.2084158E+03  0.7818608E-02  0.1143139E+00
         21   -1    0    0  501  502  0.00000000000E+00  0.00000000000E+00  0.12889981054E+04  0.12889981054E+04  0.00000000000E+00 0. -1.
         21   -1    0    0  502  503 -0.00000000000E+00 -0.00000000000E+00 -0.34529408760E+02  0.34529408760E+02  0.00000000000E+00 0.  1.
         -6    2    1    2    0  503  0.11594305050E+03 -0.25616354017E+01  0.74211367839E+03  0.77040474106E+03  0.17129331701E+03 0.  0.
        -24    2    3    3    0    0  0.12537391434E+03  0.35546227976E+02  0.67862954831E+03  0.69561520157E+03  0.79751439489E+02 0.  0.
          6    2    1    2  501    0 -0.11594305050E+03  0.25616354017E+01  0.51235501825E+03  0.55312277310E+03  0.17316981395E+03 0.  0.
         24    2    5    5    0    0 -0.11856737320E+03 -0.47963963423E+02  0.35159263686E+03  0.38452159732E+03  0.88773378523E+02 0.  0.
          5    1    5    5  501    0  0.26243227004E+01  0.50525598825E+02  0.16076238139E+03  0.16860117578E+03  0.47000000000E+01 0. -1.
        -11    1    6    6    0    0 -0.96531078922E+02 -0.19521879052E+01  0.28313916187E+03  0.29914853371E+03  0.00000000000E+00 0.  1.
         12    1    6    6    0    0 -0.22036294281E+02 -0.46011775518E+02  0.68453474993E+02  0.85373063613E+02  0.00000000000E+00 0. -1.
         -5    1    3    3    0  503 -0.94308638357E+01 -0.38107863378E+02  0.63484130082E+02  0.74789539483E+02  0.47000000000E+01 0.  1.
         11    1    4    4    0    0  0.30840345101E+02 -0.22647000643E+02  0.24665265051E+03  0.24960277147E+03  0.00000000000E+00 0. -1.
        -12    1    4    4    0    0  0.94533569237E+02  0.58193228619E+02  0.43197689780E+03  0.44601243010E+03  0.00000000000E+00 0.  1.
</event>
<event>
12    1  0.1628146E-001  0.2777092E+03  0.7818608E-02  0.1096986E+00
         21   -1    0    0  501  502  0.00000000000E+00  0.00000000000E+00  0.73485119314E+02  0.73485119314E+02  0.00000000000E+00 0.  1.
         21   -1    0    0  502  503 -0.00000000000E+00 -0.00000000000E+00 -0.10845722582E+04  0.10845722582E+04  0.00000000000E+00 0. -1.
         -6    2    1    2    0  503  0.21731017688E+03  0.14587206896E+02 -0.39959876872E+03  0.48646194107E+03  0.17184162643E+03 0.  0.
        -24    2    3    3    0    0  0.54027140664E+02 -0.28191932520E+02 -0.20746016895E+03  0.23066761704E+03  0.80337481072E+02 0.  0.
          6    2    1    2  501    0 -0.21731017688E+03 -0.14587206896E+02 -0.61148837015E+03  0.67159543642E+03  0.17229597736E+03 0.  0.
         24    2    5    5    0    0 -0.17802121375E+03 -0.48089461764E+02 -0.33829974240E+03  0.39353044396E+03  0.80095853406E+02 0.  0.
          5    1    5    5  501    0 -0.39288963132E+02  0.33502254867E+02 -0.27318862774E+03  0.27806499246E+03  0.47000000000E+01 0. -1.
        -13    1    6    6    0    0 -0.56403157098E+02  0.10138633370E+02 -0.53388038119E+02  0.78322350778E+02  0.00000000000E+00 0.  1.
         14    1    6    6    0    0 -0.12161805665E+03 -0.58228095134E+02 -0.28491170429E+03  0.31520809318E+03  0.00000000000E+00 0. -1.
         -5    1    3    3    0  503  0.16328303621E+03  0.42779139416E+02 -0.19213859977E+03  0.25579432403E+03  0.47000000000E+01 0.  1.
         11    1    4    4    0    0  0.73928240991E+02 -0.25222373838E+02 -0.14055153979E+03  0.16079890639E+03  0.00000000000E+00 0. -1.
        -12    1    4    4    0    0 -0.19901100327E+02 -0.29695586817E+01 -0.66908629157E+02  0.69868710655E+02  0.00000000000E+00 0.  1.
</event>
<event>
12    1  0.1628146E-001  0.1783030E+03  0.7818608E-02  0.1169720E+00
         21   -1    0    0  501  502  0.00000000000E+00  0.00000000000E+00  0.52128837632E+02  0.52128837632E+02  0.00000000000E+00 0.  1.
         21   -1    0    0  502  503 -0.00000000000E+00 -0.00000000000E+00 -0.10020343926E+04  0.10020343926E+04  0.00000000000E+00 0. -1.
         -6    2    1    2    0  503  0.32552332074E+02  0.22793229916E+02 -0.80536216330E+03  0.82463160317E+03  0.17271329198E+03 0.  0.
        -24    2    3    3    0    0  0.52813118728E+02 -0.40986217188E+02 -0.55569439377E+03  0.56610809846E+03  0.84929525872E+02 0.  0.
          6    2    1    2  501    0 -0.32552332074E+02 -0.22793229916E+02 -0.14454339171E+03  0.22953162710E+03  0.17381826745E+03 0.  0.
         24    2    5    5    0    0 -0.39256876363E+02  0.23331103710E+02 -0.15426457081E+02  0.92179241337E+02  0.78572222912E+02 0.  0.
          5    1    5    5  501    0  0.67045442886E+01 -0.46124333626E+02 -0.12911693463E+03  0.13735238576E+03  0.47000000000E+01 0. -1.
        -11    1    6    6    0    0 -0.42101449614E+02 -0.20586417613E+02 -0.84215309661E+01  0.47615699444E+02  0.00000000000E+00 0.  1.
         12    1    6    6    0    0  0.28445732514E+01  0.43917521323E+02 -0.70049261148E+01  0.44563541893E+02  0.00000000000E+00 0. -1.
         -5    1    3    3    0  503 -0.20260786653E+02  0.63779447104E+02 -0.24966776952E+03  0.25852350471E+03  0.47000000000E+01 0.  1.
         11    1    4    4    0    0  0.45807793639E+02  0.10976248323E+02 -0.15504969295E+03  0.16204702796E+03  0.00000000000E+00 0. -1.
        -12    1    4    4    0    0  0.70053250883E+01 -0.51962465511E+02 -0.40064470082E+03  0.40406107051E+03  0.00000000000E+00 0.  1.
</event>
<event>
12    1  0.1628146E-001  0.2172980E+03  0.7818608E-02  0.1136071E+00
         21   -1    0    0  501  502  0.00000000000E+00  0.00000000000E+00  0.32498743790E+02  0.32498743790E+02  0.00000000000E+00 0.  1.
         21   -1    0    0  502  503 -0.00000000000E+00 -0.00000000000E+00 -0.14713001817E+04  0.14713001817E+04  0.00000000000E+00 0. -1.
         -6    2    1    2    0  503  0.10814356553E+03 -0.75466512939E+02 -0.62223528066E+03  0.65881447375E+03  0.17166694785E+03 0.  0.
        -24    2    3    3    0    0  0.66910326100E+02  0.17539464019E+02 -0.41189022584E+03  0.42511076417E+03  0.79252628566E+02 0.  0.
          6    2    1    2  501    0 -0.10814356553E+03  0.75466512939E+02 -0.81656615727E+03  0.84498445176E+03  0.17270845137E+03 0.  0.
         24    2    5    5    0    0  0.14354426203E+02  0.20084763626E+02 -0.25085194341E+03  0.26349708483E+03  0.76776096015E+02 0.  0.
          5    1    5    5  501    0 -0.12249799174E+03  0.55381749313E+02 -0.56571421386E+03  0.58148736693E+03  0.47000000000E+01 0. -1.
        -11    1    6    6    0    0 -0.50822752190E+01 -0.27067207742E+02 -0.61271568036E+02  0.67176396940E+02  0.00000000000E+00 0.  1.
         12    1    6    6    0    0  0.19436701422E+02  0.47151971367E+02 -0.18958037538E+03  0.19632068789E+03  0.00000000000E+00 0. -1.
         -5    1    3    3    0  503  0.41233239433E+02 -0.93005976958E+02 -0.21034505482E+03  0.23370370958E+03  0.47000000000E+01 0.  1.
         11    1    4    4    0    0  0.19549823883E+02  0.36679340153E+02 -0.28979475597E+03  0.29276026061E+03  0.00000000000E+00 0. -1.
        -12    1    4    4    0    0  0.47360502217E+02 -0.19139876134E+02 -0.12209546987E+03  0.13235050356E+03  0.00000000000E+00 0.  1.
</event>
<event>
12    1  0.1628146E-001  0.2005818E+03  0.7818608E-02  0.1149363E+00
         21   -1    0    0  503  502  0.00000000000E+00  0.00000000000E+00  0.39599908446E+02  0.39599908446E+02  0.00000000000E+00 0. -1.
         21   -1    0    0  501  503 -0.00000000000E+00 -0.00000000000E+00 -0.13310283114E+04  0.13310283114E+04  0.00000000000E+00 0. -1.
          6    2    1    2  501    0 -0.76911347684E+02 -0.66877413833E+02 -0.97990567148E+03  0.10001157602E+04  0.17212920973E+03 0.  0.
         24    2    3    3    0    0 -0.81165491920E+02  0.44950662919E+01 -0.76251124318E+03  0.77121718848E+03  0.82124984810E+02 0.  0.
         -6    2    1    2    0  502  0.76911347684E+02  0.66877413833E+02 -0.31152273145E+03  0.37051245966E+03  0.17275742146E+03 0.  0.
        -24    2    5    5    0    0  0.48169564534E+02 -0.31187900582E+02 -0.15316371451E+03  0.18198510293E+03  0.79790113140E+02 0.  0.
          5    1    3    3  501    0  0.42541442360E+01 -0.71372480125E+02 -0.21739442829E+03  0.22889857168E+03  0.47000000000E+01 0. -1.
        -11    1    4    4    0    0 -0.12260917635E+02 -0.13417920233E+02 -0.28774077806E+02  0.34034074663E+02  0.00000000000E+00 0.  1.
         12    1    4    4    0    0 -0.68904574286E+02  0.17912986525E+02 -0.73373716538E+03  0.73718311382E+03  0.00000000000E+00 0. -1.
         -5    1    5    5    0  502  0.28741783151E+02  0.98065314415E+02 -0.15835901693E+03  0.18852735673E+03  0.47000000000E+01 0.  1.
         11    1    6    6    0    0 -0.50186164352E+00  0.10674709514E+02  0.46189948789E+01  0.11642010222E+02  0.00000000000E+00 0. -1.
        -12    1    6    6    0    0  0.48671426177E+02 -0.41862610096E+02 -0.15778270939E+03  0.17034309271E+03  0.00000000000E+00 0.  1.
</event>
<event>
12    1  0.1628146E-001  0.1790621E+03  0.7818608E-02  0.1168906E+00
         21   -1    0    0  503  502  0.00000000000E+00  0.00000000000E+00  0.97176824182E+02  0.97176824182E+02  0.00000000000E+00 0. -1.
         21   -1    0    0  501  503 -0.00000000000E+00 -0.00000000000E+00 -0.33171269394E+03  0.33171269394E+03  0.00000000000E+00 0. -1.
          6    2    1    2  501    0 -0.40294177010E+02  0.85045699947E+01 -0.13812862881E+03  0.22552381459E+03  0.17345179284E+03 0.  0.
         24    2    3    3    0    0 -0.29741001685E+02 -0.60409090521E+02 -0.58677072769E+02  0.11971690616E+03  0.79720470098E+02 0.  0.
         -6    2    1    2    0  502  0.40294177010E+02 -0.85045699947E+01 -0.96407240948E+02  0.20336570353E+03  0.17426217276E+03 0.  0.
        -24    2    5    5    0    0 -0.25226536131E+01  0.53022177324E+02 -0.27928855471E+02  0.10172810764E+03  0.82163689347E+02 0.  0.
          5    1    3    3  501    0 -0.10553175325E+02  0.68913660515E+02 -0.79451556040E+02  0.10580690843E+03  0.47000000000E+01 0. -1.
        -11    1    4    4    0    0 -0.40266755616E+01 -0.51703988668E+02  0.33911270109E+01  0.51971302684E+02  0.00000000000E+00 0.  1.
         12    1    4    4    0    0 -0.25714326123E+02 -0.87051018531E+01 -0.62068199780E+02  0.67745603475E+02  0.00000000000E+00 0. -1.
         -5    1    5    5    0  502  0.42816830623E+02 -0.61526747319E+02 -0.68478385477E+02  0.10163759589E+03  0.47000000000E+01 0.  1.
         11    1    6    6    0    0  0.22496180318E+02 -0.22033207391E+01  0.15274918973E+02  0.27281053880E+02  0.00000000000E+00 0. -1.
        -12    1    6    6    0    0 -0.25018833931E+02  0.55225498063E+02 -0.43203774444E+02  0.74447053762E+02  0.00000000000E+00 0.  1.
</event>
<event>
12    1  0.1628146E-001  0.2207909E+03  0.7818608E-02  0.1133318E+00
         21   -1    0    0  503  502  0.00000000000E+00  0.00000000000E+00  0.12723300140E+03  0.12723300140E+03  0.00000000000E+00 0.  1.
         21   -1    0    0  501  503 -0.00000000000E+00 -0.00000000000E+00 -0.40459850039E+03  0.40459850039E+03  0.00000000000E+00 0. -1.
          6    2    1    2  501    0 -0.22776252994E+02 -0.13815530629E+03 -0.20026308953E+03  0.29808372111E+03  0.17071307333E+03 0.  0.
         24    2    3    3    0    0 -0.80646096828E+02 -0.94368080768E+02 -0.13650189528E+03  0.20136857319E+03  0.80668502234E+02 0.  0.
         -6    2    1    2    0  502  0.22776252994E+02  0.13815530629E+03 -0.77102409464E+02  0.23374778068E+03  0.17055086358E+03 0.  0.
        -24    2    5    5    0    0 -0.41692886890E+02  0.81484727718E+02 -0.84226820398E+02  0.14748845246E+03  0.79250417445E+02 0.  0.
          5    1    3    3  501    0  0.57869843834E+02 -0.43787225526E+02 -0.63761194250E+02  0.96715147919E+02  0.47000000000E+01 0. -1.
        -13    1    4    4    0    0 -0.26965147015E+02 -0.72620986260E+02 -0.36112708754E+02  0.85469611748E+02  0.00000000000E+00 0.  1.
         14    1    4    4    0    0 -0.53680949813E+02 -0.21747094509E+02 -0.10038918652E+03  0.11589896144E+03  0.00000000000E+00 0. -1.
         -5    1    5    5    0  502  0.64469139884E+02  0.56670578577E+02  0.71244109340E+01  0.86259328219E+02  0.47000000000E+01 0.  1.
         11    1    6    6    0    0  0.37111629204E+01 -0.14440618196E+02 -0.11559032988E+02  0.18865720970E+02  0.00000000000E+00 0. -1.
        -12    1    6    6    0    0 -0.45404049811E+02  0.95925345914E+02 -0.72667787410E+02  0.12862273149E+03  0.00000000000E+00 0.  1.
</event>
<event>
12    1  0.1628146E-001  0.1763922E+03  0.7818608E-02  0.1171820E+00
         21   -1    0    0  501  502  0.00000000000E+00  0.00000000000E+00  0.11523831240E+03  0.11523831240E+03  0.00000000000E+00 0.  1.
         21   -1    0    0  502  503 -0.00000000000E+00 -0.00000000000E+00 -0.43015255672E+03  0.43015255672E+03  0.00000000000E+00 0.  1.
         -6    2    1    2    0  503  0.23875400786E+02  0.34369678280E+02 -0.32482696596E+03  0.36872040203E+03  0.16938378763E+03 0.  0.
        -24    2    3    3    0    0 -0.25454299204E+02  0.68997542694E+02 -0.17487265655E+03  0.20703894605E+03  0.82922234231E+02 0.  0.
          6    2    1    2  501    0 -0.23875400786E+02 -0.34369678280E+02  0.99127216368E+01  0.17667046709E+03  0.17135601053E+03 0.  0.
         24    2    5    5    0    0  0.53788870656E+02 -0.27244920209E+02  0.37417566452E+01  0.98295266645E+02  0.77539863414E+02 0.  0.
          5    1    5    5  501    0 -0.77664271441E+02 -0.71247580706E+01  0.61709649916E+01  0.78375200446E+02  0.47000000000E+01 0. -1.
        -11    1    6    6    0    0  0.29822499264E+02 -0.53557651448E+02  0.10138342368E+02  0.62133642071E+02  0.00000000000E+00 0.  1.
         12    1    6    6    0    0  0.23966371392E+02  0.26312731239E+02 -0.63965857226E+01  0.36161624574E+02  0.00000000000E+00 0. -1.
         -5    1    3    3    0  503  0.49329699990E+02 -0.34627864413E+02 -0.14995430941E+03  0.16168145597E+03  0.47000000000E+01 0.  1.
         13    1    4    4    0    0  0.22191385779E+02  0.54217883232E+02 -0.72936178769E+02  0.93550642106E+02  0.00000000000E+00 0. -1.
        -14    1    4    4    0    0 -0.47645684984E+02  0.14779659461E+02 -0.10193647778E+03  0.11348830395E+03  0.00000000000E+00 0.  1.
</event>
<event>
12    1  0.1628146E-001  0.1884867E+03  0.7818608E-02  0.1159991E+00
         21   -1    0    0  501  502  0.00000000000E+00  0.00000000000E+00  0.17483505055E+03  0.17483505055E+03  0.00000000000E+00 0. -1.
         21   -1    0    0  502  503 -0.00000000000E+00 -0.00000000000E+00 -0.38056157535E+03  0.38056157535E+03  0.00000000000E+00 0. -1.
         -6    2    1    2    0  503 -0.49924511278E+02 -0.52861999247E+02 -0.29293851117E+03  0.34833922057E+03  0.17389765228E+03 0.  0.
        -24    2    3    3    0    0 -0.96973750385E+02 -0.60960997668E+02 -0.21126975869E+03  0.25362333063E+03  0.81053879620E+02 0.  0.
          6    2    1    2  501    0  0.49924511278E+02  0.52861999247E+02  0.87211986369E+02  0.20705740533E+03  0.17314730938E+03 0.  0.
         24    2    5    5    0    0  0.90483933355E+02  0.52503167726E+02  0.28477601660E+02  0.13552410241E+03  0.81313490399E+02 0.  0.
          5    1    5    5  501    0 -0.40559422077E+02  0.35883152103E+00  0.58734384709E+02  0.71533302918E+02  0.47000000000E+01 0. -1.
        -11    1    6    6    0    0  0.78993026673E+02  0.68403176427E+02  0.41001363997E+02  0.11224974235E+03  0.00000000000E+00 0.  1.
         12    1    6    6    0    0  0.11490906683E+02 -0.15900008701E+02 -0.12523762337E+02  0.23274360059E+02  0.00000000000E+00 0. -1.
         -5    1    3    3    0  503  0.47049239107E+02  0.80989984204E+01 -0.81668752476E+02  0.94715889939E+02  0.47000000000E+01 0.  1.
         13    1    4    4    0    0  0.97579904725E+01 -0.43923241905E+01 -0.52503858264E+00  0.10713848765E+02  0.00000000000E+00 0. -1.
        -14    1    4    4    0    0 -0.10673174086E+03 -0.56568673477E+02 -0.21074472011E+03  0.24290948186E+03  0.00000000000E+00 0.  1.
</event>
<event>
12    1  0.1628146E-001  0.2348176E+03  0.7818608E-02  0.1123610E+00
         21   -1    0    0  503  502  0.00000000000E+00  0.00000000000E+00  0.28346421337E+02  0.28346421337E+02  0.00000000000E+00 0. -1.
         21   -1    0    0  501  503 -0.00000000000E+00 -0.00000000000E+00 -0.23083051213E+04  0.23083051213E+04  0.00000000000E+00 0. -1.
          6    2    1    2  501    0  0.44747669868E+02 -0.15525915810E+03 -0.16092104455E+04  0.16259880912E+04  0.16784294618E+03 0.  0.
         24    2    3    3    0    0  0.33826624626E+02 -0.10568061153E+02 -0.66744011626E+03  0.67309343498E+03  0.79514394693E+02 0.  0.
         -6    2    1    2    0  502 -0.44747669868E+02  0.15525915810E+03 -0.67074825447E+03  0.71066345148E+03  0.17038650257E+03 0.  0.
        -24    2    5    5    0    0 -0.54441078213E+02  0.82607597803E+02 -0.22088410060E+03  0.25484324754E+03  0.79796295071E+02 0.  0.
          5    1    3    3  501    0  0.10921045242E+02 -0.14469109694E+03 -0.94177032922E+03  0.95289465618E+03  0.47000000000E+01 0. -1.
        -13    1    4    4    0    0  0.62667833630E+01  0.15394604414E+02 -0.28206635830E+02  0.32739589546E+02  0.00000000000E+00 0.  1.
         14    1    4    4    0    0  0.27559841263E+02 -0.25962665566E+02 -0.63923348043E+03  0.64035384543E+03  0.00000000000E+00 0. -1.
         -5    1    5    5    0  502  0.96934083450E+01  0.72651560292E+02 -0.44986415387E+03  0.45582020394E+03  0.47000000000E+01 0.  1.
         11    1    6    6    0    0 -0.22890885690E+02  0.64917348691E+02 -0.20327470036E+03  0.21461327689E+03  0.00000000000E+00 0. -1.
        -12    1    6    6    0    0 -0.31550192523E+02  0.17690249112E+02 -0.17609400234E+02  0.40229970650E+02  0.00000000000E+00 0.  1.
</event>
<event>
12    1  0.1628146E-001  0.1950509E+03  0.7818608E-02  0.1154862E+00
         21   -1    0    0  503  502  0.00000000000E+00  0.00000000000E+00  0.61286076456E+03  0.61286076456E+03  0.00000000000E+00 0. -1.
         21   -1    0    0  501  503 -0.00000000000E+00 -0.00000000000E+00 -0.65907481197E+02  0.65907481197E+02  0.00000000000E+00 0. -1.
          6    2    1    2  501    0 -0.85426199244E+02  0.72228810509E+01  0.37041885172E+03  0.41863463801E+03  0.17519996833E+03 0.  0.
         24    2    3    3    0    0 -0.76168144936E+02 -0.62031890967E+01  0.10149619877E+03  0.14917693409E+03  0.78180646215E+02 0.  0.
         -6    2    1    2    0  502  0.85426199244E+02 -0.72228810509E+01  0.17653443164E+03  0.26013360775E+03  0.17074918096E+03 0.  0.
        -24    2    5    5    0    0  0.42781042028E+02 -0.55264134694E+02  0.16290238939E+03  0.19429673311E+03  0.79559348230E+02 0.  0.
          5    1    3    3  501    0 -0.92580543081E+01  0.13426070148E+02  0.26892265295E+03  0.26945770392E+03  0.47000000000E+01 0. -1.
        -13    1    4    4    0    0 -0.13856862086E+02 -0.29632144088E+02  0.67810718164E+01  0.33407477084E+02  0.00000000000E+00 0.  1.
         14    1    4    4    0    0 -0.62311282850E+02  0.23428954991E+02  0.94715126950E+02  0.11576945701E+03  0.00000000000E+00 0. -1.
         -5    1    5    5    0  502  0.42645157216E+02  0.48041253643E+02  0.13632042256E+02  0.65836874635E+02  0.47000000000E+01 0.  1.
         13    1    6    6    0    0  0.29528826894E+02 -0.14797476491E+02  0.84648815343E+01  0.34096497586E+02  0.00000000000E+00 0. -1.
        -14    1    6    6    0    0  0.13252215135E+02 -0.40466658203E+02  0.15443750785E+03  0.16020023553E+03  0.00000000000E+00 0.  1.
</event>
<event>
12    1  0.1628146E-001  0.1872228E+03  0.7818608E-02  0.1161136E+00
         21   -1    0    0  503  502  0.00000000000E+00  0.00000000000E+00  0.87266951790E+03  0.87266951790E+03  0.00000000000E+00 0.  1.
         21   -1    0    0  501  503 -0.00000000000E+00 -0.00000000000E+00 -0.97152880901E+02  0.97152880901E+02  0.00000000000E+00 0.  1.
          6    2    1    2  501    0 -0.72433004866E+02 -0.25970185599E+02  0.16207196920E+02  0.18792303711E+03  0.17067924277E+03 0.  0.
         24    2    3    3    0    0  0.19145054211E+02 -0.35669862725E+02 -0.15422249214E+02  0.90439005069E+02  0.79388258953E+02 0.  0.
         -6    2    1    2    0  502  0.72433004866E+02  0.25970185599E+02  0.75930944008E+03  0.78189936169E+03  0.16998469132E+03 0.  0.
        -24    2    5    5    0    0 -0.18756770619E+02 -0.19114416481E+02  0.29232273944E+03  0.30393820733E+03  0.78795130070E+02 0.  0.
          5    1    3    3  501    0 -0.91578059077E+02  0.96996771254E+01  0.31629446134E+02  0.97484032043E+02  0.47000000000E+01 0. -1.
        -11    1    4    4    0    0 -0.72263131237E+01 -0.35273835310E+02 -0.40398195902E+02  0.54115407150E+02  0.00000000000E+00 0.  1.
         12    1    4    4    0    0  0.26371367334E+02 -0.39602741429E+00  0.24975946689E+02  0.36323597919E+02  0.00000000000E+00 0. -1.
         -5    1    5    5    0  502  0.91189775485E+02  0.45084602080E+02  0.46698670064E+03  0.47796115436E+03  0.47000000000E+01 0.  1.
         13    1    6    6    0    0  0.37883101436E+01 -0.47069301100E+02  0.15911827684E+03  0.16597739733E+03  0.00000000000E+00 0. -1.
        -14    1    6    6    0    0 -0.22545080763E+02  0.27954884620E+02  0.13320446260E+03  0.13796081000E+03  0.00000000000E+00 0.  1.
</event>
<event>
12    1  0.1628146E-001  0.1879941E+03  0.7818608E-02  0.1161733E+00
         21   -1    0    0  503  502  0.00000000000E+00  0.00000000000E+00  0.24628465376E+03  0.24628465376E+03  0.00000000000E+00 0. -1.
         21   -1    0    0  501  503 -0.00000000000E+00 -0.00000000000E+00 -0.24585533306E+03  0.24585533306E+03  0.00000000000E+00 0. -1.
          6    2    1    2  501    0 -0.49327640954E+02 -0.30683623622E+02 -0.16215790806E+03  0.24826793926E+03  0.17879340479E+03 0.  0.
         24    2    3    3    0    0 -0.41601588769E+02  0.38215457768E+01 -0.18553699956E+03  0.20561854868E+03  0.78164652865E+02 0.  0.
         -6    2    1    2    0  502  0.49327640954E+02  0.30683623622E+02  0.16258722876E+03  0.24387204756E+03  0.17223317829E+03 0.  0.
        -24    2    5    5    0    0 -0.34039951665E+02  0.38785723135E+02  0.10764706831E+03  0.14359088908E+03  0.79795999160E+02 0.  0.
          5    1    3    3  501    0 -0.77260521845E+01 -0.34505169398E+02  0.23379091493E+02  0.42649390578E+02  0.47000000000E+01 0. -1.
        -13    1    4    4    0    0 -0.24263424707E+02  0.32099114508E+02 -0.41470827381E+02  0.57783184876E+02  0.00000000000E+00 0.  1.
         14    1    4    4    0    0 -0.17338164062E+02 -0.28277568732E+02 -0.14406617218E+03  0.14783536381E+03  0.00000000000E+00 0. -1.
         -5    1    5    5    0  502  0.83367592619E+02 -0.81020995133E+01  0.54940160451E+02  0.10028115848E+03  0.47000000000E+01 0.  1.
         11    1    6    6    0    0  0.14122426621E+02  0.39086989580E+02  0.73888506996E+02  0.84774684630E+02  0.00000000000E+00 0. -1.
        -12    1    6    6    0    0 -0.48162378286E+02 -0.30126644505E+00  0.33758561315E+02  0.58816204448E+02  0.00000000000E+00 0.  1.
</event>
<event>
12    1  0.1628146E-001  0.2197131E+03  0.7818608E-02  0.1135660E+00
         21   -1    0    0  501  502  0.00000000000E+00  0.00000000000E+00  0.65228487704E+02  0.65228487704E+02  0.00000000000E+00 0.  1.
         21   -1    0    0  502  503 -0.00000000000E+00 -0.00000000000E+00 -0.13742395087E+04  0.13742395087E+04  0.00000000000E+00 0.  1.
         -6    2    1    2    0  503 -0.13762302429E+03  0.20781764053E+02 -0.11602820090E+04  0.11809014342E+04  0.17000552389E+03 0.  0.
        -24    2    3    3    0    0  0.24842843890E+00  0.97540380313E+01 -0.42933021599E+03  0.43696409675E+03  0.80734035658E+02 0.  0.
          6    2    1    2  501    0  0.13762302429E+03 -0.20781764053E+02 -0.14872901195E+03  0.25856656224E+03  0.15926195272E+03 0.  0.
         24    2    5    5    0    0  0.14824641413E+03 -0.35378598644E+02 -0.83966652191E+02  0.19117088558E+03  0.79166055012E+02 0.  0.
          5    1    5    5  501    0 -0.10623389844E+02  0.14596834591E+02 -0.64762359761E+02  0.67395676669E+02  0.47000000000E+01 0. -1.
        -11    1    6    6    0    0  0.12036665989E+03 -0.59723285212E+02 -0.70842578290E+02  0.15190021234E+03  0.00000000000E+00 0.  1.
         12    1    6    6    0    0  0.27879754240E+02  0.24344686568E+02 -0.13124073901E+02  0.39270673235E+02  0.00000000000E+00 0. -1.
         -5    1    3    3    0  503 -0.13787145273E+03  0.11027726022E+02 -0.73095179306E+03  0.74393733741E+03  0.47000000000E+01 0.  1.
         11    1    4    4    0    0  0.80965110868E+01  0.44739659818E+02 -0.24031528038E+03  0.24457846315E+03  0.00000000000E+00 0. -1.
        -12    1    4    4    0    0 -0.78480826479E+01 -0.34985621786E+02 -0.18901493561E+03  0.19238563360E+03  0.00000000000E+00 0.  1.
</event>
<event>
12    1  0.1628146E-001  0.1719686E+03  0.7818608E-02  0.1175978E+00
         21   -1    0    0  503  502  0.00000000000E+00  0.00000000000E+00  0.99302440822E+02  0.99302440822E+02  0.00000000000E+00 0. -1.
         21   -1    0    0  501  503 -0.00000000000E+00 -0.00000000000E+00 -0.44181057515E+03  0.44181057515E+03  0.00000000000E+00 0. -1.
          6    2    1    2  501    0 -0.98909426200E+01 -0.13180594955E+02 -0.32610252289E+03  0.36836365268E+03  0.17052086779E+03 0.  0.
         24    2    3    3    0    0  0.16624405183E+02 -0.69494161247E+02 -0.18537097886E+03  0.21440996190E+03  0.80643801162E+02 0.  0.
         -6    2    1    2    0  502  0.98909426200E+01  0.13180594955E+02 -0.16405611441E+02  0.17274936330E+03  0.17117721695E+03 0.  0.
        -24    2    5    5    0    0 -0.53087304967E+02 -0.11336071210E+02 -0.33443635818E+02  0.10289443603E+03  0.80759022588E+02 0.  0.
          5    1    3    3  501    0 -0.26515347803E+02  0.56313566292E+02 -0.14073154403E+03  0.15395369078E+03  0.47000000000E+01 0. -1.
        -11    1    4    4    0    0  0.33057820343E+02 -0.63400738657E+02 -0.78788268940E+02  0.10639579160E+03  0.00000000000E+00 0.  1.
         12    1    4    4    0    0 -0.16433415159E+02 -0.60934225904E+01 -0.10658270992E+03  0.10801417030E+03  0.00000000000E+00 0. -1.
         -5    1    5    5    0  502  0.62978247587E+02  0.24516666166E+02  0.17038024378E+02  0.69854927269E+02  0.47000000000E+01 0.  1.
         13    1    6    6    0    0 -0.42967732098E+02  0.52364556669E+00  0.19873977170E+02  0.47344220079E+02  0.00000000000E+00 0. -1.
        -14    1    6    6    0    0 -0.10119572869E+02 -0.11859716777E+02 -0.53317612988E+02  0.55550215948E+02  0.00000000000E+00 0.  1.
</event>
<event>
12    1  0.1628146E-001  0.2510189E+03  0.7818608E-02  0.1112930E+00
         21   -1    0    0  501  502  0.00000000000E+00  0.00000000000E+00  0.53520973777E+03  0.53520973777E+03  0.00000000000E+00 0. -1.
         21   -1    0    0  502  503 -0.00000000000E+00 -0.00000000000E+00 -0.12626438233E+03  0.12626438233E+03  0.00000000000E+00 0.  1.
         -6    2    1    2    0  503  0.18002358931E+03  0.19797734346E+02  0.11522664576E+03  0.27620221063E+03  0.17381035145E+03 0.  0.
        -24    2    3    3    0    0  0.20192834723E+03  0.27076003081E+02  0.71310517364E+02  0.22636740403E+03  0.68182434409E+02 0.  0.
          6    2    1    2  501    0 -0.18002358931E+03 -0.19797734346E+02  0.29371870968E+03  0.38527190947E+03  0.17135728993E+03 0.  0.
         24    2    5    5    0    0 -0.39235709582E+02  0.10442866431E+02  0.18132374837E+03  0.20254140205E+03  0.80599152945E+02 0.  0.
          5    1    5    5  501    0 -0.14078787973E+03 -0.30240600777E+02  0.11239496132E+03  0.18273050742E+03  0.47000000000E+01 0. -1.
        -11    1    6    6    0    0 -0.18336759087E+02  0.37247749083E+02  0.41711701102E+02  0.58851487274E+02  0.00000000000E+00 0.  1.
         12    1    6    6    0    0 -0.20898950495E+02 -0.26804882652E+02  0.13961204726E+03  0.14368991477E+03  0.00000000000E+00 0. -1.
         -5    1    3    3    0  503 -0.21904757923E+02 -0.72782687354E+01  0.43916128401E+02  0.49834806603E+02  0.47000000000E+01 0.  1.
         13    1    4    4    0    0  0.76772464791E+02  0.34487332476E+02  0.53514438103E+02  0.99735563050E+02  0.00000000000E+00 0. -1.
        -14    1    4    4    0    0  0.12515588244E+03 -0.74113293949E+01  0.17796079260E+02  0.12663184098E+03  0.00000000000E+00 0.  1.
</event>
<event>
12    1  0.1628146E-001  0.1757434E+03  0.7818608E-02  0.1172184E+00
         21   -1    0    0  503  502  0.00000000000E+00  0.00000000000E+00  0.33014523546E+03  0.33014523546E+03  0.00000000000E+00 0.  1.
         21   -1    0    0  501  503 -0.00000000000E+00 -0.00000000000E+00 -0.99928188116E+02  0.99928188116E+02  0.00000000000E+00 0.  1.
          6    2    1    2  501    0  0.30235408324E+02 -0.17460827445E+02  0.17094204786E+03  0.24460300394E+03  0.17143624296E+03 0.  0.
         24    2    3    3    0    0 -0.22561378458E+02 -0.37076851439E+02  0.16406526178E+03  0.18766734483E+03  0.80111881030E+02 0.  0.
         -6    2    1    2    0  502 -0.30235408324E+02  0.17460827445E+02  0.59274999479E+02  0.18547041963E+03  0.17224021186E+03 0.  0.
        -24    2    5    5    0    0 -0.83368044037E+01 -0.51850802513E+02  0.58294962749E+02  0.11262331006E+03  0.80794178363E+02 0.  0.
          5    1    3    3  501    0  0.52796786782E+02  0.19616023994E+02  0.68767860811E+01  0.56935659113E+02  0.47000000000E+01 0. -1.
        -11    1    4    4    0    0  0.34444382180E+01  0.23039971113E+02  0.63633367457E+02  0.67763632410E+02  0.00000000000E+00 0.  1.
         12    1    4    4    0    0 -0.26005816676E+02 -0.60116822552E+02  0.10043189432E+03  0.11990371242E+03  0.00000000000E+00 0. -1.
         -5    1    5    5    0  502 -0.21898603920E+02  0.69311629958E+02  0.98003672997E+00  0.72847109573E+02  0.47000000000E+01 0.  1.
         13    1    6    6    0    0 -0.24550256585E+02  0.13527939343E+02  0.24656795493E+02  0.37331994392E+02  0.00000000000E+00 0. -1.
        -14    1    6    6    0    0  0.16213452181E+02 -0.65378741856E+02  0.33638167256E+02  0.75291315666E+02  0.00000000000E+00 0.  1.
</event>
<event>
12    1  0.1628146E-001  0.2270323E+03  0.7818608E-02  0.1128806E+00
         21   -1    0    0  501  502  0.00000000000E+00  0.00000000000E+00  0.23799920326E+03  0.23799920326E+03  0.00000000000E+00 0.  1.
         21   -1    0    0  502  503 -0.00000000000E+00 -0.00000000000E+00 -0.24530050917E+03  0.24530050917E+03  0.00000000000E+00 0.  1.
         -6    2    1    2    0  503 -0.14271512889E+03  0.40904708024E+02 -0.86807163282E+02  0.24306206940E+03  0.17176403242E+03 0.  0.
        -24    2    3    3    0    0 -0.15882091905E+03 -0.44463953317E+01 -0.47534759269E+02  0.18076816304E+03  0.71928580354E+02 0.  0.
          6    2    1    2  501    0  0.14271512889E+03 -0.40904708024E+02  0.79505857371E+02  0.24023764303E+03  0.17132466436E+03 0.  0.
         24    2    5    5    0    0  0.10155781536E+03 -0.50972978392E+02  0.11827943346E+03  0.18261147945E+03  0.80278849396E+02 0.  0.
          5    1    5    5  501    0  0.41157313529E+02  0.10068270368E+02 -0.38773576093E+02  0.57626163573E+02  0.47000000000E+01 0. -1.
        -13    1    6    6    0    0  0.59861884122E+02 -0.13453308162E+01  0.16785509103E+02  0.62185274796E+02  0.00000000000E+00 0.  1.
         14    1    6    6    0    0  0.41695931239E+02 -0.49627647576E+02  0.10149392436E+03  0.12042620466E+03  0.00000000000E+00 0. -1.
         -5    1    3    3    0  503  0.16105790162E+02  0.45351103356E+02 -0.39272404013E+02  0.62293906357E+02  0.47000000000E+01 0.  1.
         11    1    4    4    0    0 -0.39952132889E+02  0.19980916120E+02  0.11046546547E+02  0.46015607374E+02  0.00000000000E+00 0. -1.
        -12    1    4    4    0    0 -0.11886878616E+03 -0.24427311451E+02 -0.58581305816E+02  0.13475255567E+03  0.00000000000E+00 0.  1.
</event>
<event>
12    1  0.1628146E-001  0.2095928E+03  0.7818608E-02  0.1142340E+00
         21   -1    0    0  503  502  0.00000000000E+00  0.00000000000E+00  0.39798685447E+02  0.39798685447E+02  0.00000000000E+00 0. -1.
         21   -1    0    0  501  503 -0.00000000000E+00 -0.00000000000E+00 -0.11194377877E+04  0.11194377877E+04  0.00000000000E+00 0. -1.
          6    2    1    2  501    0  0.11702910529E+03  0.29252233056E+02 -0.44608360948E+03  0.49191218559E+03  0.16862831040E+03 0.  0.
         24    2    3    3    0    0  0.55895402184E+02 -0.46376627703E+02 -0.19986552917E+03  0.22714344252E+03  0.79829982775E+02 0.  0.
         -6    2    1    2    0  502 -0.11702910529E+03 -0.29252233056E+02 -0.63355549277E+03  0.66732428755E+03  0.17139905983E+03 0.  0.
        -24    2    5    5    0    0 -0.16711569881E+02  0.25163699189E+02 -0.37331685599E+03  0.38312200103E+03  0.80650507623E+02 0.  0.
          5    1    3    3  501    0  0.61133703101E+02  0.75628860758E+02 -0.24621808031E+03  0.26476874307E+03  0.47000000000E+01 0. -1.
        -11    1    4    4    0    0  0.11331402686E+02 -0.23512968188E+02 -0.16268334369E+03  0.16476386338E+03  0.00000000000E+00 0.  1.
         12    1    4    4    0    0  0.44563999499E+02 -0.22863659515E+02 -0.37182185471E+02  0.62379579144E+02  0.00000000000E+00 0. -1.
         -5    1    5    5    0  502 -0.10031753540E+03 -0.54415932244E+02 -0.26023863678E+03  0.28420228653E+03  0.47000000000E+01 0.  1.
         13    1    6    6    0    0 -0.46426160554E+02  0.41409154848E+01 -0.15731886757E+03  0.16407852284E+03  0.00000000000E+00 0. -1.
        -14    1    6    6    0    0  0.29714590673E+02  0.21022783704E+02 -0.21599798842E+03  0.21904347818E+03  0.00000000000E+00 0.  1.
</event>
<event>
12    1  0.1628146E-001  0.2489833E+03  0.7818608E-02  0.1114080E+00
         21   -1    0    0  501  502  0.00000000000E+00  0.00000000000E+00  0.49446967809E+03  0.49446967809E+03  0.00000000000E+00 0. -1.
         21   -1    0    0  502  503 -0.00000000000E+00 -0.00000000000E+00 -0.26031417176E+03  0.26031417176E+03  0.00000000000E+00 0.  1.
         -6    2    1    2    0  503  0.17109084566E+03 -0.52013039616E+02 -0.15514806982E+03  0.29266920095E+03  0.17206656810E+03 0.  0.
        -24    2    3    3    0    0  0.72000808823E+02 -0.96678337718E+02 -0.89268040704E+02  0.16548393258E+03  0.69895145726E+02 0.  0.
          6    2    1    2  501    0 -0.17109084566E+03  0.52013039616E+02  0.38930357615E+03  0.46211464891E+03  0.17324907092E+03 0.  0.
         24    2    5    5    0    0 -0.63715295786E+02  0.27973430502E+02  0.74974473290E+02  0.12904966062E+03  0.78679676732E+02 0.  0.
          5    1    5    5  501    0 -0.10737554987E+03  0.24039609114E+02  0.31432910286E+03  0.33306498828E+03  0.47000000000E+01 0. -1.
        -11    1    6    6    0    0 -0.69735352676E+02  0.31735149098E+01  0.27264156354E+02  0.74942810405E+02  0.00000000000E+00 0.  1.
         12    1    6    6    0    0  0.60200568900E+01  0.24799915592E+02  0.47710316936E+02  0.54106850218E+02  0.00000000000E+00 0. -1.
         -5    1    3    3    0  503  0.99090036835E+02  0.44665298101E+02 -0.65880029115E+02  0.12718526837E+03  0.47000000000E+01 0.  1.
         13    1    4    4    0    0  0.78077461200E+02 -0.92762931166E+02 -0.59895755065E+02  0.13523517597E+03  0.00000000000E+00 0. -1.
        -14    1    4    4    0    0 -0.60766523766E+01 -0.39154065516E+01 -0.29372285639E+02  0.30248756606E+02  0.00000000000E+00 0.  1.
</event>
<event>
12    1  0.1628146E-001  0.2692888E+03  0.7818608E-02  0.1101881E+00
         21   -1    0    0  503  502  0.00000000000E+00  0.00000000000E+00  0.11087910765E+04  0.11087910765E+04  0.00000000000E+00 0.  1.
         21   -1    0    0  501  503 -0.00000000000E+00 -0.00000000000E+00 -0.14344538826E+03  0.14344538826E+03  0.00000000000E+00 0.  1.
          6    2    1    2  501    0 -0.17716175267E+03  0.10373032984E+03  0.19330244180E+02  0.26864017600E+03  0.17218483639E+03 0.  0.
         24    2    3    3    0    0 -0.18405985948E+03  0.75494574256E+02  0.55846364358E+02  0.22173219370E+03  0.80429389505E+02 0.  0.
         -6    2    1    2    0  502  0.17716175267E+03 -0.10373032984E+03  0.94601544410E+03  0.98359628880E+03  0.17427039603E+03 0.  0.
        -24    2    5    5    0    0  0.22312701990E+02 -0.73955067978E+02  0.38769080828E+03  0.40341245270E+03  0.80437773561E+02 0.  0.
          5    1    3    3  501    0  0.68981068074E+01  0.28235755583E+02 -0.36516120178E+02  0.46907982303E+02  0.47000000000E+01 0. -1.
        -11    1    4    4    0    0 -0.10755429627E+03  0.85163799806E+02  0.30284815419E+02  0.14049188406E+03  0.00000000000E+00 0.  1.
         12    1    4    4    0    0 -0.76505563214E+02 -0.96692255495E+01  0.25561548938E+02  0.81240309634E+02  0.00000000000E+00 0. -1.
         -5    1    5    5    0  502  0.15484905068E+03 -0.29775261862E+02  0.55832463582E+03  0.58018383610E+03  0.47000000000E+01 0.  1.
         11    1    6    6    0    0 -0.10386664504E+02 -0.53826969496E+02  0.10818593122E+03  0.12128240251E+03  0.00000000000E+00 0. -1.
        -12    1    6    6    0    0  0.32699366493E+02 -0.20128098482E+02  0.27950487706E+03  0.28213005019E+03  0.00000000000E+00 0.  1.
</event>
<event>
12    1  0.1628146E-001  0.2191272E+03  0.7818608E-02  0.1134770E+00
         21   -1    0    0  501  502  0.00000000000E+00  0.00000000000E+00  0.19017378570E+03  0.19017378570E+03  0.00000000000E+00 0.  1.
         21   -1    0    0  502  503 -0.00000000000E+00 -0.00000000000E+00 -0.43673144220E+03  0.43673144220E+03  0.00000000000E+00 0.  1.
         -6    2    1    2    0  503 -0.12302072468E+03  0.56696250141E+02 -0.32745985983E+03  0.39332034741E+03  0.17065278319E+03 0.  0.
        -24    2    3    3    0    0 -0.38855654662E+02  0.50446194464E+02 -0.74857872887E+02  0.12695091220E+03  0.80363253675E+02 0.  0.
          6    2    1    2  501    0  0.12302072468E+03 -0.56696250141E+02  0.80902203327E+02  0.23358488049E+03  0.17224449602E+03 0.  0.
         24    2    5    5    0    0  0.72791939121E+02  0.23628791111E+02  0.28323299284E+01  0.11073522325E+03  0.79983006982E+02 0.  0.
          5    1    5    5  501    0  0.50228785557E+02 -0.80325041252E+02  0.78069873398E+02  0.12284965724E+03  0.47000000000E+01 0. -1.
        -11    1    6    6    0    0  0.30752093961E+02 -0.26092444216E+02  0.17546274080E+02  0.43981571848E+02  0.00000000000E+00 0.  1.
         12    1    6    6    0    0  0.42039845160E+02  0.49721235326E+02 -0.14713944152E+02  0.66753651406E+02  0.00000000000E+00 0. -1.
         -5    1    3    3    0  503 -0.84165070016E+02  0.62500556770E+01 -0.25260198694E+03  0.26636943521E+03  0.47000000000E+01 0.  1.
         11    1    4    4    0    0 -0.43777809046E+02  0.41224017206E+02 -0.96396611021E+01  0.60900239947E+02  0.00000000000E+00 0. -1.
        -12    1    4    4    0    0  0.49221543842E+01  0.92221772588E+01 -0.65218211785E+02  0.66050672257E+02  0.00000000000E+00 0.  1.
</event>
<event>
12    1  0.1628146E-001  0.2915619E+03  0.7818608E-02  0.1089685E+00
         21   -1    0    0  503  502  0.00000000000E+00  0.00000000000E+00  0.26830596707E+03  0.26830596707E+03  0.00000000000E+00 0.  1.
         21   -1    0    0  501  503 -0.00000000000E+00 -0.00000000000E+00 -0.31577225639E+03  0.31577225639E+03  0.00000000000E+00 0.  1.
          6    2    1    2  501    0  0.15002119573E+03  0.18004419605E+03 -0.16827890873E+02  0.29204713743E+03  0.17345339682E+03 0.  0.
         24    2    3    3    0    0  0.16479219877E+03  0.14841102834E+03  0.25309252558E+02  0.23712474958E+03  0.80033033746E+02 0.  0.
         -6    2    1    2    0  502 -0.15002119573E+03 -0.18004419605E+03 -0.30638398440E+02  0.29203108603E+03  0.17152600983E+03 0.  0.
        -24    2    5    5    0    0 -0.12705251502E+03 -0.49079957908E+02 -0.53291089563E+01  0.15659902889E+03  0.77095217792E+02 0.  0.
          5    1    3    3  501    0 -0.14771003037E+02  0.31633167711E+02 -0.42137143430E+02  0.54922387845E+02  0.47000000000E+01 0. -1.
        -11    1    4    4    0    0  0.38310487205E+02  0.75388075275E+02  0.33238696479E+02  0.90861797623E+02  0.00000000000E+00 0.  1.
         12    1    4    4    0    0  0.12648171157E+03  0.73022953065E+02 -0.79294439217E+01  0.14626295196E+03  0.00000000000E+00 0. -1.
         -5    1    5    5    0  502 -0.22968680710E+02 -0.13096423814E+03 -0.25309289484E+02  0.13543205714E+03  0.47000000000E+01 0.  1.
         13    1    6    6    0    0 -0.93496900337E+00  0.23484196999E+01 -0.19500363107E+02  0.19663504352E+02  0.00000000000E+00 0. -1.
        -14    1    6    6    0    0 -0.12611754602E+03 -0.51428377608E+02  0.14171254150E+02  0.13693552454E+03  0.00000000000E+00 0.  1.
</event>
<event>
12    1  0.1628146E-001  0.1774625E+03  0.7818608E-02  0.1170382E+00
         21   -1    0    0  501  502  0.00000000000E+00  0.00000000000E+00  0.80784214122E+02  0.80784214122E+02  0.00000000000E+00 0.  1.
         21   -1    0    0  502  503 -0.00000000000E+00 -0.00000000000E+00 -0.45124466218E+03  0.45124466218E+03  0.00000000000E+00 0. -1.
         -6    2    1    2    0  503  0.39697338199E+02 -0.16803839634E+02 -0.28388504511E+03  0.33457447562E+03  0.17172976798E+03 0.  0.
        -24    2    3    3    0    0  0.14764335644E+02  0.61723921171E+02 -0.15154045048E+03  0.17860830762E+03  0.70061340026E+02 0.  0.
          6    2    1    2  501    0 -0.39697338199E+02  0.16803839634E+02 -0.86575402949E+02  0.19745440068E+03  0.17214729817E+03 0.  0.
         24    2    5    5    0    0 -0.39839754658E+02  0.70700792643E+02 -0.27116841178E+02  0.11706589159E+03  0.79895505301E+02 0.  0.
          5    1    5    5  501    0  0.14241645941E+00 -0.53896953008E+02 -0.59458561771E+02  0.80388509092E+02  0.47000000000E+01 0. -1.
        -11    1    6    6    0    0 -0.60650678954E+02  0.33844188991E+02 -0.58586735704E+01  0.69701205456E+02  0.00000000000E+00 0.  1.
         12    1    6    6    0    0  0.20810924295E+02  0.36856603652E+02 -0.21258167607E+02  0.47364686136E+02  0.00000000000E+00 0. -1.
         -5    1    3    3    0  503  0.24933002555E+02 -0.78527760805E+02 -0.13234459463E+03  0.15596616800E+03  0.47000000000E+01 0.  1.
         13    1    4    4    0    0  0.26841121534E+02  0.77436429611E-01 -0.22247305774E+02  0.34862507308E+02  0.00000000000E+00 0. -1.
        -14    1    4    4    0    0 -0.12076785890E+02  0.61646484741E+02 -0.12929314471E+03  0.14374580031E+03  0.00000000000E+00 0.  1.
</event>
<event>
12    1  0.1628146E-001  0.1924370E+03  0.7818608E-02  0.1157369E+00
         21   -1    0    0  501  502  0.00000000000E+00  0.00000000000E+00  0.15237363514E+03  0.15237363514E+03  0.00000000000E+00 0.  1.
         21   -1    0    0  502  503 -0.00000000000E+00 -0.00000000000E+00 -0.24876551702E+03  0.24876551702E+03  0.00000000000E+00 0.  1.
         -6    2    1    2    0  503 -0.82385852997E+02  0.11057182724E+02 -0.91294742504E+02  0.20863462379E+03  0.16817843552E+03 0.  0.
        -24    2    3    3    0    0 -0.72299416158E+02  0.67441317574E+02 -0.77497636905E+02  0.14952999628E+03  0.81103632275E+02 0.  0.
          6    2    1    2  501    0  0.82385852997E+02 -0.11057182724E+02 -0.50971393741E+01  0.19250452837E+03  0.17355783632E+03 0.  0.
         24    2    5    5    0    0 -0.17399480042E+02 -0.32397068291E+02 -0.13053547359E+02  0.90045278745E+02  0.81150755918E+02 0.  0.
          5    1    5    5  501    0  0.99785333039E+02  0.21339885567E+02  0.79564079848E+01  0.10245924963E+03  0.47000000000E+01 0. -1.
        -13    1    6    6    0    0 -0.18464115591E+02  0.50220696858E+01 -0.39716856155E+02  0.44085977491E+02  0.00000000000E+00 0.  1.
         14    1    6    6    0    0  0.10646355494E+01 -0.37419137977E+02  0.26663308797E+02  0.45959301254E+02  0.00000000000E+00 0. -1.
         -5    1    3    3    0  503 -0.10086436840E+02 -0.56384134850E+02 -0.13797105599E+02  0.59104627516E+02  0.47000000000E+01 0.  1.
         13    1    4    4    0    0 -0.51714253376E+02  0.70345248267E+02 -0.89902965740E+02  0.12532103257E+03  0.00000000000E+00 0. -1.
        -14    1    4    4    0    0 -0.20585162782E+02 -0.29039306927E+01  0.12405328835E+02  0.24208963706E+02  0.00000000000E+00 0.  1.
</event>
<event>
12    1  0.1628146E-001  0.2013718E+03  0.7818608E-02  0.1149482E+00
         21   -1    0    0  501  502  0.00000000000E+00  0.00000000000E+00  0.27143236000E+03  0.27143236000E+03  0.00000000000E+00 0. -1.
         21   -1    0    0  502  503 -0.00000000000E+00 -0.00000000000E+00 -0.20690713739E+03  0.20690713739E+03  0.00000000000E+00 0. -1.
         -6    2    1    2    0  503 -0.10067054454E+03 -0.26426538360E+02 -0.97447934360E+02  0.21990976925E+03  0.16742546471E+03 0.  0.
        -24    2    3    3    0    0 -0.84112698971E+02  0.98912177512E+01 -0.35777279845E+01  0.11779783408E+03  0.81796988090E+02 0.  0.
          6    2    1    2  501    0  0.10067054454E+03  0.26426538360E+02  0.16197315697E+03  0.25842972813E+03  0.17238822564E+03 0.  0.
         24    2    5    5    0    0  0.13403298173E+03  0.49843357587E+01  0.10181506396E+03  0.18622234332E+03  0.79515848145E+02 0.  0.
          5    1    5    5  501    0 -0.33362437192E+02  0.21442202601E+02  0.60158093009E+02  0.72207384818E+02  0.47000000000E+01 0. -1.
        -11    1    6    6    0    0  0.15036316304E+02 -0.11745609089E+02 -0.10466129887E+02  0.21762123418E+02  0.00000000000E+00 0.  1.
         12    1    6    6    0    0  0.11899666543E+03  0.16729944848E+02  0.11228119384E+03  0.16446021990E+03  0.00000000000E+00 0. -1.
         -5    1    3    3    0  503 -0.16557845570E+02 -0.36317756111E+02 -0.93870206375E+02  0.10211193517E+03  0.47000000000E+01 0.  1.
         11    1    4    4    0    0 -0.44981371506E+02 -0.12287190271E+02 -0.38806157247E+02  0.60664789356E+02  0.00000000000E+00 0. -1.
        -12    1    4    4    0    0 -0.39131327464E+02  0.22178408022E+02  0.35228429263E+02  0.57133044728E+02  0.00000000000E+00 0.  1.
</event>
<event>
12    1  0.1628146E-001  0.1817747E+03  0.7818608E-02  0.1166167E+00
         21   -1    0    0  501  502  0.00000000000E+00  0.00000000000E+00  0.11264365509E+03  0.11264365509E+03  0.00000000000E+00 0.  1.
         21   -1    0    0  502  503 -0.00000000000E+00 -0.00000000000E+00 -0.29285945048E+03  0.29285945048E+03  0.00000000000E+00 0. -1.
         -6    2    1    2    0  503 -0.13209402367E+01  0.58717950542E+02 -0.89797709424E+02  0.20248222050E+03  0.17171452589E+03 0.  0.
        -24    2    3    3    0    0 -0.16925546899E+02  0.61267985950E+02  0.96926350845E+01  0.10163369508E+03  0.78709723412E+02 0.  0.
          6    2    1    2  501    0  0.13209402367E+01 -0.58717950542E+02 -0.90418085962E+02  0.20302088507E+03  0.17202472760E+03 0.  0.
         24    2    5    5    0    0 -0.26178282243E+02 -0.97303825759E+02 -0.42422466574E+02  0.13541358898E+03  0.79898920160E+02 0.  0.
          5    1    5    5  501    0  0.27499222480E+02  0.38585875217E+02 -0.47995619387E+02  0.67607296083E+02  0.47000000000E+01 0. -1.
        -13    1    6    6    0    0 -0.45175800984E+02 -0.93869740132E+02 -0.20446673195E+02  0.10616236410E+03  0.00000000000E+00 0.  1.
         14    1    6    6    0    0  0.18997518741E+02 -0.34340856265E+01 -0.21975793379E+02  0.29251224881E+02  0.00000000000E+00 0. -1.
         -5    1    3    3    0  503  0.15604606662E+02 -0.25500354079E+01 -0.99490344509E+02  0.10084852542E+03  0.47000000000E+01 0.  1.
         13    1    4    4    0    0 -0.23364692532E+02 -0.36797529004E+01 -0.19000052787E+02  0.30338942705E+02  0.00000000000E+00 0. -1.
        -14    1    4    4    0    0  0.64391456333E+01  0.64947738850E+02  0.28692687872E+02  0.71294752370E+02  0.00000000000E+00 0.  1.
</event>
<event>
12    1  0.1628146E-001  0.2691139E+03  0.7818608E-02  0.1102131E+00
         21   -1    0    0  501  502  0.00000000000E+00  0.00000000000E+00  0.72670180765E+02  0.72670180765E+02  0.00000000000E+00 0.  1.
         21   -1    0    0  502  503 -0.00000000000E+00 -0.00000000000E+00 -0.10414276650E+04  0.10414276650E+04  0.00000000000E+00 0. -1.
         -6    2    1    2    0  503 -0.15657317768E+03 -0.13585369261E+03 -0.61283043673E+03  0.66931563328E+03  0.17161260736E+03 0.  0.
        -24    2    3    3    0    0 -0.71236829518E+02 -0.10438795464E+02 -0.16476649420E+03  0.19624631982E+03  0.78619120449E+02 0.  0.
          6    2    1    2  501    0  0.15657317768E+03  0.13585369261E+03 -0.35592704754E+03  0.44478221252E+03  0.16785638992E+03 0.  0.
         24    2    5    5    0    0  0.63570298198E+02  0.65942420782E+02 -0.96451351615E+02  0.16037607985E+03  0.89599319693E+02 0.  0.
          5    1    5    5  501    0  0.93002879485E+02  0.69911271832E+02 -0.25947569592E+03  0.28440613266E+03  0.47000000000E+01 0. -1.
        -11    1    6    6    0    0  0.40247118250E+01  0.68062804395E+02 -0.57497658944E+02  0.89189261862E+02  0.00000000000E+00 0.  1.
         12    1    6    6    0    0  0.59545586373E+02 -0.21203836130E+01 -0.38953692671E+02  0.71186817992E+02  0.00000000000E+00 0. -1.
         -5    1    3    3    0  503 -0.85336348165E+02 -0.12541489715E+03 -0.44806394253E+03  0.47306931346E+03  0.47000000000E+01 0.  1.
         13    1    4    4    0    0 -0.47510244211E+02  0.28662726107E+02 -0.12018958100E+03  0.13237941893E+03  0.00000000000E+00 0. -1.
        -14    1    4    4    0    0 -0.23726585307E+02 -0.39101521571E+02 -0.44576913197E+02  0.63866900893E+02  0.00000000000E+00 0.  1.
</event>
<event>
12    1  0.1628146E-001  0.2118624E+03  0.7818608E-02  0.1140111E+00
         21   -1    0    0  501  502  0.00000000000E+00  0.00000000000E+00  0.48328674365E+03  0.48328674365E+03  0.00000000000E+00 0.  1.
         21   -1    0    0  502  503 -0.00000000000E+00 -0.00000000000E+00 -0.11525051764E+03  0.11525051764E+03  0.00000000000E+00 0. -1.
         -6    2    1    2    0  503  0.41902005628E+02  0.11502226238E+03  0.31597589900E+03  0.38042927733E+03  0.17291549203E+03 0.  0.
        -24    2    3    3    0    0  0.37329954767E+02  0.11298941512E+03  0.12748405101E+03  0.19181246239E+03  0.79873049372E+02 0.  0.
          6    2    1    2  501    0 -0.41902005628E+02 -0.11502226238E+03  0.52060327008E+02  0.21810798396E+03  0.17284361748E+03 0.  0.
         24    2    5    5    0    0 -0.70204828309E+01 -0.69893693321E+02 -0.40970074974E+02  0.10888319708E+03  0.72405718123E+02 0.  0.
          5    1    5    5  501    0 -0.34881522797E+02 -0.45128569059E+02  0.93030401982E+02  0.10922478689E+03  0.47000000000E+01 0. -1.
        -13    1    6    6    0    0 -0.72110636549E+01  0.14574690964E+02 -0.88530925987E+01  0.18514813104E+02  0.00000000000E+00 0.  1.
         14    1    6    6    0    0  0.19058082397E+00 -0.84468384285E+02 -0.32116982376E+02  0.90368383971E+02  0.00000000000E+00 0. -1.
         -5    1    3    3    0  503  0.45720508612E+01  0.20328472582E+01  0.18849184799E+03  0.18861681494E+03  0.47000000000E+01 0.  1.
         13    1    4    4    0    0  0.56178495078E+02  0.10307066160E+03  0.87152716699E+02  0.14620253288E+03  0.00000000000E+00 0. -1.
        -14    1    4    4    0    0 -0.18848540311E+02  0.99187535196E+01  0.40331334309E+02  0.45609929516E+02  0.00000000000E+00 0.  1.
</event>
<event>
12    1  0.1628146E-001  0.1767098E+03  0.7818608E-02  0.1171120E+00
         21   -1    0    0  501  502  0.00000000000E+00  0.00000000000E+00  0.21066360868E+03  0.21066360868E+03  0.00000000000E+00 0. -1.
         21   -1    0    0  502  503 -0.00000000000E+00 -0.00000000000E+00 -0.14808815785E+03  0.14808815785E+03  0.00000000000E+00 0.  1.
         -6    2    1    2    0  503  0.12796864543E+02 -0.42979750448E+02  0.25045752223E+02  0.17810067114E+03  0.17053310724E+03 0.  0.
        -24    2    3    3    0    0  0.69986919658E+02 -0.33914451979E+02 -0.71218899484E+01  0.11169487889E+03  0.79854027316E+02 0.  0.
          6    2    1    2  501    0 -0.12796864543E+02  0.42979750448E+02  0.37529698604E+02  0.18065109539E+03  0.17092489959E+03 0.  0.
         24    2    5    5    0    0  0.55124115774E+02  0.47743255438E+02  0.96756561189E+01  0.10693618354E+03  0.77612128230E+02 0.  0.
          5    1    5    5  501    0 -0.67920980318E+02 -0.47635049903E+01  0.27854042485E+02  0.73714911855E+02  0.47000000000E+01 0. -1.
        -13    1    6    6    0    0  0.56844916651E+02  0.40505012327E+01  0.22650254233E+02  0.61325240530E+02  0.00000000000E+00 0.  1.
         14    1    6    6    0    0 -0.17208008767E+01  0.43692754205E+02 -0.12974598114E+02  0.45610943006E+02  0.00000000000E+00 0. -1.
         -5    1    3    3    0  503 -0.57190055114E+02 -0.90652984686E+01  0.32167642172E+02  0.66405792241E+02  0.47000000000E+01 0.  1.
         13    1    4    4    0    0  0.17297619183E+02 -0.32076010294E+02  0.30010798735E+02  0.47209385788E+02  0.00000000000E+00 0. -1.
        -14    1    4    4    0    0  0.52689300475E+02 -0.18384416853E+01 -0.37132688683E+02  0.64485493106E+02  0.00000000000E+00 0.  1.
</event>
<event>
12    1  0.1628146E-001  0.1757544E+03  0.7818608E-02  0.1172054E+00
         21   -1    0    0  501  502  0.00000000000E+00  0.00000000000E+00  0.32374130679E+03  0.32374130679E+03  0.00000000000E+00 0. -1.
         21   -1    0    0  502  503 -0.00000000000E+00 -0.00000000000E+00 -0.17629118943E+03  0.17629118943E+03  0.00000000000E+00 0. -1.
         -6    2    1    2    0  503  0.26908219694E+02  0.22402963491E+02 -0.95758355133E+02  0.20014808078E+03  0.17223137519E+03 0.  0.
        -24    2    3    3    0    0 -0.37791526905E+02 -0.27891692523E+02 -0.62013864920E+02  0.11139905119E+03  0.79736335167E+02 0.  0.
          6    2    1    2  501    0 -0.26908219694E+02 -0.22402963491E+02  0.24320847249E+03  0.29988441544E+03  0.17191380535E+03 0.  0.
         24    2    5    5    0    0 -0.89092470972E+01  0.22802898731E+02  0.23494784092E+03  0.25030759598E+03  0.82789237091E+02 0.  0.
          5    1    5    5  501    0 -0.17998972597E+02 -0.45205862222E+02  0.82606315768E+01  0.49576819460E+02  0.47000000000E+01 0. -1.
        -11    1    6    6    0    0  0.28208727871E+02  0.36667023757E+02  0.11376477984E+03  0.12281135164E+03  0.00000000000E+00 0.  1.
         12    1    6    6    0    0 -0.37117974969E+02 -0.13864125026E+02  0.12118306107E+03  0.12749624434E+03  0.00000000000E+00 0. -1.
         -5    1    3    3    0  503  0.64699746599E+02  0.50294656014E+02 -0.33744490213E+02  0.88749029590E+02  0.47000000000E+01 0.  1.
         11    1    4    4    0    0  0.23543449017E+00  0.19088043471E+02  0.63781690439E+01  0.20126844594E+02  0.00000000000E+00 0. -1.
        -12    1    4    4    0    0 -0.38026961395E+02 -0.46979735994E+02 -0.68392033964E+02  0.91272206595E+02  0.00000000000E+00 0.  1.
</event>
<event>
12    1  0.1628146E-001  0.2576634E+03  0.7818608E-02  0.1108976E+00
         21   -1    0    0  503  502  0.00000000000E+00  0.00000000000E+00  0.39432006635E+03  0.39432006635E+03  0.00000000000E+00 0. -1.
         21   -1    0    0  501  503 -0.00000000000E+00 -0.00000000000E+00 -0.17020851544E+03  0.17020851544E+03  0.00000000000E+00 0. -1.
          6    2    1    2  501    0  0.29048813497E+02  0.18527954579E+03  0.15271136626E+03  0.29715545559E+03  0.17265068708E+03 0.  0.
         24    2    3    3    0    0 -0.44311728710E+02  0.11615928249E+03  0.58025037532E+02  0.15878287594E+03  0.79928646309E+02 0.  0.
         -6    2    1    2    0  502 -0.29048813497E+02 -0.18527954579E+03  0.71400184653E+02  0.26737312621E+03  0.17668632827E+03 0.  0.
        -24    2    5    5    0    0  0.43018837675E+01 -0.11701830511E+03  0.11256077676E+03  0.18083902697E+03  0.79504938697E+02 0.  0.
          5    1    3    3  501    0  0.73360542208E+02  0.69120263298E+02  0.94686328725E+02  0.13837257965E+03  0.47000000000E+01 0. -1.
        -11    1    4    4    0    0 -0.76432557064E+01 -0.36625062704E+01 -0.12416676657E+02  0.15033534819E+02  0.00000000000E+00 0.  1.
         12    1    4    4    0    0 -0.36668473004E+02  0.11982178876E+03  0.70441714189E+02  0.14374934112E+03  0.00000000000E+00 0. -1.
         -5    1    5    5    0  502 -0.33350697265E+02 -0.68261240683E+02 -0.41160592110E+02  0.86534099236E+02  0.47000000000E+01 0.  1.
         13    1    6    6    0    0  0.26026822667E+02 -0.11620153441E+03  0.10138682367E+03  0.15639526883E+03  0.00000000000E+00 0. -1.
        -14    1    6    6    0    0 -0.21724938899E+02 -0.81677069524E+00  0.11173953089E+02  0.24443758143E+02  0.00000000000E+00 0.  1.
</event>
<event>
12    1  0.1628146E-001  0.1824061E+03  0.7818608E-02  0.1165638E+00
         21   -1    0    0  503  502  0.00000000000E+00  0.00000000000E+00  0.19327623516E+03  0.19327623516E+03  0.00000000000E+00 0. -1.
         21   -1    0    0  501  503 -0.00000000000E+00 -0.00000000000E+00 -0.17612446791E+03  0.17612446791E+03  0.00000000000E+00 0.  1.
          6    2    1    2  501    0  0.44376270190E+02 -0.41894673532E+02 -0.21105907592E+02  0.18302576244E+03  0.17125581262E+03 0.  0.
         24    2    3    3    0    0  0.92108702488E+02 -0.50978871777E+02 -0.20045635798E+02  0.13419829141E+03  0.80774349027E+02 0.  0.
         -6    2    1    2    0  502 -0.44376270190E+02  0.41894673532E+02  0.38257674836E+02  0.18637494063E+03  0.17189401323E+03 0.  0.
        -24    2    5    5    0    0 -0.54552651941E+02 -0.10829854699E+02  0.67842823005E+02  0.12488668472E+03  0.88886207032E+02 0.  0.
          5    1    3    3  501    0 -0.47732432298E+02  0.90841982452E+01 -0.10602717934E+01  0.48827471030E+02  0.47000000000E+01 0. -1.
        -13    1    4    4    0    0  0.63472213415E+02 -0.31913559226E+02 -0.51370917461E+02  0.87670795018E+02  0.00000000000E+00 0.  1.
         14    1    4    4    0    0  0.28636489073E+02 -0.19065312551E+02  0.31325281663E+02  0.46527496391E+02  0.00000000000E+00 0. -1.
         -5    1    5    5    0  502  0.10176381751E+02  0.52724528230E+02 -0.29585148169E+02  0.61488255910E+02  0.47000000000E+01 0.  1.
         11    1    6    6    0    0 -0.19661797278E+01  0.34736363436E+02  0.28340442923E+02  0.44873839957E+02  0.00000000000E+00 0. -1.
        -12    1    6    6    0    0 -0.52586472213E+02 -0.45566218135E+02  0.39502380082E+02  0.80012844763E+02  0.00000000000E+00 0.  1.
</event>
<event>
12    1  0.1628146E-001  0.2436261E+03  0.7818608E-02  0.1118371E+00
         21   -1    0    0  503  502  0.00000000000E+00  0.00000000000E+00  0.16583025508E+03  0.16583025508E+03  0.00000000000E+00 0.  1.
         21   -1    0    0  501  503 -0.00000000000E+00 -0.00000000000E+00 -0.40025461150E+03  0.40025461150E+03  0.00000000000E+00 0.  1.
          6    2    1    2  501    0  0.29750891083E+02 -0.16887849784E+03 -0.15033791888E+02  0.23823443272E+03  0.16469537784E+03 0.  0.
         24    2    3    3    0    0  0.89730912195E+01 -0.46343088148E+02  0.39181198995E+02  0.10255835218E+03  0.82187900944E+02 0.  0.
         -6    2    1    2    0  502 -0.29750891083E+02  0.16887849784E+03 -0.21939056453E+03  0.32785043385E+03  0.17305670925E+03 0.  0.
        -24    2    5    5    0    0 -0.19119023420E+02  0.45868055720E+02 -0.28578291315E+02  0.10052683391E+03  0.82580324588E+02 0.  0.
          5    1    3    3  501    0  0.20777799863E+02 -0.12253540969E+03 -0.54214990883E+02  0.13567608055E+03  0.47000000000E+01 0. -1.
        -13    1    4    4    0    0  0.34320273615E+02 -0.29422083361E+02 -0.84725353204E+01  0.45992651859E+02  0.00000000000E+00 0.  1.
         14    1    4    4    0    0 -0.25347182395E+02 -0.16921004788E+02  0.47653734315E+02  0.56565700319E+02  0.00000000000E+00 0. -1.
         -5    1    5    5    0  502 -0.10631867663E+02  0.12301044212E+03 -0.19081227322E+03  0.22732359994E+03  0.47000000000E+01 0.  1.
         11    1    6    6    0    0 -0.28992890383E+01  0.52140642690E+02 -0.50432263923E+02  0.72597973398E+02  0.00000000000E+00 0. -1.
        -12    1    6    6    0    0 -0.16219734381E+02 -0.62725869699E+01  0.21853972608E+02  0.27928860511E+02  0.00000000000E+00 0.  1.
</event>
<event>
12    1  0.1628146E-001  0.1793601E+03  0.7818608E-02  0.1169940E+00
         21   -1    0    0  503  502  0.00000000000E+00  0.00000000000E+00  0.25955552391E+03  0.25955552391E+03  0.00000000000E+00 0.  1.
         21   -1    0    0  501  503 -0.00000000000E+00 -0.00000000000E+00 -0.12501918111E+03  0.12501918111E+03  0.00000000000E+00 0.  1.
          6    2    1    2  501    0  0.55512801218E+02 -0.20368097606E+02  0.26668961675E+02  0.17527730907E+03  0.16283234033E+03 0.  0.
         24    2    3    3    0    0  0.48271116400E+02  0.13551106756E+02  0.71874548089E+02  0.11810572988E+03  0.79178782478E+02 0.  0.
         -6    2    1    2    0  502 -0.55512801218E+02  0.20368097606E+02  0.10786738112E+03  0.20929739595E+03  0.16933250587E+03 0.  0.
        -24    2    5    5    0    0 -0.79905760801E+02 -0.46810617059E+01  0.13176035318E+03  0.16668940406E+03  0.63385517351E+02 0.  0.
          5    1    3    3  501    0  0.72416848176E+01 -0.33919204362E+02 -0.45205586414E+02  0.57171579186E+02  0.47000000000E+01 0. -1.
        -13    1    4    4    0    0  0.33493082248E+02 -0.81865935407E+01 -0.68114693909E+01  0.35145454721E+02  0.00000000000E+00 0.  1.
         14    1    4    4    0    0  0.14778034152E+02  0.21737700297E+02  0.78686017480E+02  0.82960275159E+02  0.00000000000E+00 0. -1.
         -5    1    5    5    0  502  0.24392959583E+02  0.25049159312E+02 -0.23892972054E+02  0.42607991892E+02  0.47000000000E+01 0.  1.
         11    1    6    6    0    0 -0.35891134208E+02  0.14532646446E+02  0.10455183997E+03  0.11149196639E+03  0.00000000000E+00 0. -1.
        -12    1    6    6    0    0 -0.44014626593E+02 -0.19213708152E+02  0.27208513203E+02  0.55197437674E+02  0.00000000000E+00 0.  1.
</event>
<event>
12    1  0.1628146E-001  0.1904487E+03  0.7818608E-02  0.1158086E+00
         21   -1    0    0  501  502  0.00000000000E+00  0.00000000000E+00  0.20448707781E+03  0.20448707781E+03  0.00000000000E+00 0. -1.
         21   -1    0    0  502  503 -0.00000000000E+00 -0.00000000000E+00 -0.23989996373E+03  0.23989996373E+03  0.00000000000E+00 0. -1.
         -6    2    1    2    0  503  0.36042250464E+02  0.70347981537E+02 -0.13124644621E+03  0.23118579254E+03  0.17312815689E+03 0.  0.
        -24    2    3    3    0    0 -0.91541348386E+00  0.90587754224E+02 -0.33982733844E+02  0.12508283752E+03  0.79271122385E+02 0.  0.
          6    2    1    2  501    0 -0.36042250464E+02 -0.70347981537E+02  0.95833560291E+02  0.21320124899E+03  0.17327094092E+03 0.  0.
         24    2    5    5    0    0  0.42222003336E+02 -0.48987530964E+01  0.50230622847E+02  0.10135039816E+03  0.77084968632E+02 0.  0.
          5    1    5    5  501    0 -0.78264253800E+02 -0.65449228441E+02  0.45602937444E+02  0.11185085082E+03  0.47000000000E+01 0. -1.
        -13    1    6    6    0    0 -0.36530170440E+01  0.87585260409E+01  0.52578515662E+02  0.53428050883E+02  0.00000000000E+00 0.  1.
         14    1    6    6    0    0  0.45875020380E+02 -0.13657279137E+02 -0.23478928154E+01  0.47922347281E+02  0.00000000000E+00 0. -1.
         -5    1    3    3    0  503  0.36957663948E+02 -0.20239772687E+02 -0.97263712365E+02  0.10610295503E+03  0.47000000000E+01 0.  1.
         11    1    4    4    0    0  0.30158272453E+02  0.80219348693E+02 -0.34334902269E+02  0.92323078458E+02  0.00000000000E+00 0. -1.
        -12    1    4    4    0    0 -0.31073685937E+02  0.10368405531E+02  0.35216842485E+00  0.32759759058E+02  0.00000000000E+00 0.  1.
</event>
<event>
12    1  0.1628146E-001  0.1994908E+03  0.7818608E-02  0.1150178E+00
         21   -1    0    0  503  502  0.00000000000E+00  0.00000000000E+00  0.30150014775E+03  0.30150014775E+03  0.00000000000E+00 0. -1.
         21   -1    0    0  501  503 -0.00000000000E+00 -0.00000000000E+00 -0.25190994366E+03  0.25190994366E+03  0.00000000000E+00 0. -1.
          6    2    1    2  501    0  0.41693990215E+02  0.91489499983E+02 -0.16613825471E+03  0.25958134705E+03  0.17225515561E+03 0.  0.
         24    2    3    3    0    0  0.25363495754E+02  0.39763917506E+02 -0.74041533062E+01  0.91769470598E+02  0.78373070600E+02 0.  0.
         -6    2    1    2    0  502 -0.41693990215E+02 -0.91489499983E+02  0.21572845880E+03  0.29382874436E+03  0.17230161244E+03 0.  0.
        -24    2    5    5    0    0  0.43518326529E+02 -0.38473695252E+02  0.98367700141E+02  0.13933779916E+03  0.79779369970E+02 0.  0.
          5    1    3    3  501    0  0.16330494461E+02  0.51725582477E+02 -0.15873410140E+03  0.16781187646E+03  0.47000000000E+01 0. -1.
        -13    1    4    4    0    0  0.16300107660E+02  0.70658289193E+01  0.33925478517E+02  0.38295659553E+02  0.00000000000E+00 0.  1.
         14    1    4    4    0    0  0.90633880945E+01  0.32698088587E+02 -0.41329631823E+02  0.53473811044E+02  0.00000000000E+00 0. -1.
         -5    1    5    5    0  502 -0.85212316744E+02 -0.53015804731E+02  0.11736075866E+03  0.15449094520E+03  0.47000000000E+01 0.  1.
         11    1    6    6    0    0  0.30187382223E+02 -0.43036982765E+02  0.14830400042E+02  0.54620515344E+02  0.00000000000E+00 0. -1.
        -12    1    6    6    0    0  0.13330944306E+02  0.45632875130E+01  0.83537300099E+02  0.84717283814E+02  0.00000000000E+00 0.  1.
</event>
<event>
12    1  0.1628146E-001  0.2419000E+03  0.7818608E-02  0.1118711E+00
         21   -1    0    0  503  502  0.00000000000E+00  0.00000000000E+00  0.20044056256E+03  0.20044056256E+03  0.00000000000E+00 0. -1.
         21   -1    0    0  501  503 -0.00000000000E+00 -0.00000000000E+00 -0.29130956393E+03  0.29130956393E+03  0.00000000000E+00 0. -1.
          6    2    1    2  501    0  0.16471391376E+03  0.42447598447E+02 -0.57305784078E+02  0.24859518851E+03  0.17199750830E+03 0.  0.
         24    2    3    3    0    0  0.32247915217E+02 -0.28690476654E+02 -0.96869027219E+01  0.90805726377E+02  0.79301780384E+02 0.  0.
         -6    2    1    2    0  502 -0.16471391376E+03 -0.42447598447E+02 -0.33563217292E+02  0.24315493798E+03  0.17048566600E+03 0.  0.
        -24    2    5    5    0    0 -0.82544538769E+02  0.24293796017E+02 -0.61919275253E+02  0.13346275073E+03  0.81083412476E+02 0.  0.
          5    1    3    3  501    0  0.13246599854E+03  0.71138075100E+02 -0.47618881356E+02  0.15778946213E+03  0.47000000000E+01 0. -1.
        -13    1    4    4    0    0  0.40439755132E+02 -0.39548545634E+02 -0.31766033250E+02  0.64873277437E+02  0.00000000000E+00 0.  1.
         14    1    4    4    0    0 -0.81918399146E+01  0.10858068981E+02  0.22079130528E+02  0.25932448941E+02  0.00000000000E+00 0. -1.
         -5    1    5    5    0  502 -0.82169374988E+02 -0.66741394463E+02  0.28356057961E+02  0.10969218725E+03  0.47000000000E+01 0.  1.
         11    1    6    6    0    0 -0.67198630245E+02 -0.10173498433E+02 -0.91273035497E+01  0.68574511644E+02  0.00000000000E+00 0. -1.
        -12    1    6    6    0    0 -0.15345908524E+02  0.34467294450E+02 -0.52791971704E+02  0.64888239085E+02  0.00000000000E+00 0.  1.
</event>
<event>
12    1  0.1628146E-001  0.2253191E+03  0.7818608E-02  0.1130109E+00
         21   -1    0    0  503  502  0.00000000000E+00  0.00000000000E+00  0.84368841850E+03  0.84368841850E+03  0.00000000000E+00 0.  1.
         21   -1    0    0  501  503 -0.00000000000E+00 -0.00000000000E+00 -0.34929414151E+03  0.34929414151E+03  0.00000000000E+00 0.  1.
          6    2    1    2  501    0  0.34717615462E+02 -0.14127895282E+03 -0.29573521306E+03  0.37135410331E+03  0.17111253160E+03 0.  0.
         24    2    3    3    0    0 -0.28323876530E+02 -0.93690513100E+02 -0.24883415702E+03  0.27937210309E+03  0.80933182678E+02 0.  0.
         -6    2    1    2    0  502 -0.34717615462E+02  0.14127895282E+03  0.79012949005E+03  0.82162845670E+03  0.17205712563E+03 0.  0.
        -24    2    5    5    0    0 -0.70303507081E+02  0.56463339152E+02  0.58101266628E+03  0.59312904753E+03  0.78074687828E+02 0.  0.
          5    1    3    3  501    0  0.63041491992E+02 -0.47588439718E+02 -0.46901056040E+02  0.91982000223E+02  0.47000000000E+01 0. -1.
        -11    1    4    4    0    0 -0.35152238263E+02 -0.99030081163E+02 -0.16857241833E+03  0.19864364337E+03  0.00000000000E+00 0.  1.
         12    1    4    4    0    0  0.68283617326E+01  0.53395680633E+01 -0.80261738688E+02  0.80728459717E+02  0.00000000000E+00 0. -1.
         -5    1    5    5    0  502  0.35585891619E+02  0.84815613665E+02  0.20911682377E+03  0.22849940916E+03  0.47000000000E+01 0.  1.
         13    1    6    6    0    0 -0.12951682554E+02 -0.19915008691E+02  0.11775960902E+03  0.12013192402E+03  0.00000000000E+00 0. -1.
        -14    1    6    6    0    0 -0.57351824527E+02  0.76378347843E+02  0.46325305725E+03  0.47299712351E+03  0.00000000000E+00 0.  1.
</event>
<event>
12    1  0.1628146E-001  0.2204488E+03  0.7818608E-02  0.1133751E+00
         21   -1    0    0  501  502  0.00000000000E+00  0.00000000000E+00  0.66930414848E+02  0.66930414848E+02  0.00000000000E+00 0. -1.
         21   -1    0    0  502  503 -0.00000000000E+00 -0.00000000000E+00 -0.22686705097E+04  0.22686705097E+04  0.00000000000E+00 0.  1.
         -6    2    1    2    0  503  0.13203704311E+03  0.32655892309E+02 -0.20657984919E+04  0.20775276329E+04  0.17348621964E+03 0.  0.
        -24    2    3    3    0    0  0.12637824532E+03  0.32356666639E+02 -0.10242176767E+04  0.10359207992E+04  0.84211864601E+02 0.  0.
          6    2    1    2  501    0 -0.13203704311E+03 -0.32655892309E+02 -0.13594160297E+03  0.25807329164E+03  0.17210902470E+03 0.  0.
         24    2    5    5    0    0 -0.15188091704E+02 -0.34096817130E+02 -0.10549593070E+03  0.13722304270E+03  0.79419777034E+02 0.  0.
          5    1    5    5  501    0 -0.11684895141E+03  0.14409248219E+01 -0.30445672273E+02  0.12085024894E+03  0.47000000000E+01 0. -1.
        -13    1    6    6    0    0 -0.28539457560E+02 -0.46621736030E+02 -0.36232293765E+02  0.65580988249E+02  0.00000000000E+00 0.  1.
         14    1    6    6    0    0  0.13351365856E+02  0.12524918900E+02 -0.69263636936E+02  0.71642054446E+02  0.00000000000E+00 0. -1.
         -5    1    3    3    0  503  0.56587977863E+01  0.29922566957E+00 -0.10415808152E+04  0.10416068338E+04  0.47000000000E+01 0.  1.
         13    1    4    4    0    0  0.33254045066E+02 -0.23938766025E+02 -0.17354836752E+03  0.17831974624E+03  0.00000000000E+00 0. -1.
        -14    1    4    4    0    0  0.93124200258E+02  0.56295432664E+02 -0.85066930916E+03  0.85760105291E+03  0.00000000000E+00 0.  1.
</event>
<event>
12    1  0.1628146E-001  0.3321531E+03  0.7818608E-02  0.1070285E+00
         21   -1    0    0  501  502  0.00000000000E+00  0.00000000000E+00  0.25660946611E+03  0.25660946611E+03  0.00000000000E+00 0. -1.
         21   -1    0    0  502  503 -0.00000000000E+00 -0.00000000000E+00 -0.43081820328E+03  0.43081820328E+03  0.00000000000E+00 0.  1.
         -6    2    1    2    0  503  0.95616693277E+01 -0.28304635135E+03 -0.63460083937E+02  0.33729781413E+03  0.17186032303E+03 0.  0.
        -24    2    3    3    0    0 -0.99855147734E+00 -0.59201158648E+02  0.10038459850E+02  0.10141158202E+03  0.81717586859E+02 0.  0.
          6    2    1    2  501    0 -0.95616693277E+01  0.28304635135E+03 -0.11074865323E+03  0.35012985526E+03  0.17354823196E+03 0.  0.
         24    2    5    5    0    0 -0.55464746819E+02  0.11035865996E+03 -0.84555539818E+02  0.16947465752E+03  0.79477344312E+02 0.  0.
          5    1    5    5  501    0  0.45903077491E+02  0.17268769139E+03 -0.26193113414E+02  0.18065519774E+03  0.47000000000E+01 0. -1.
        -11    1    6    6    0    0  0.22946769199E+01  0.81730706581E+02 -0.55121410415E+02  0.98608031247E+02  0.00000000000E+00 0.  1.
         12    1    6    6    0    0 -0.57759423739E+02  0.28627953382E+02 -0.29434129404E+02  0.70866626272E+02  0.00000000000E+00 0. -1.
         -5    1    3    3    0  503  0.10560220805E+02 -0.22384519270E+03 -0.73498543788E+02  0.23588623211E+03  0.47000000000E+01 0.  1.
         11    1    4    4    0    0  0.71980857125E+01 -0.78380497369E+02  0.14620757586E+02  0.80056738368E+02  0.00000000000E+00 0. -1.
        -12    1    4    4    0    0 -0.81966371898E+01  0.19179338721E+02 -0.45822977353E+01  0.21354843655E+02  0.00000000000E+00 0.  1.
</event>
<event>
12    1  0.1628146E-001  0.2017246E+03  0.7818608E-02  0.1148307E+00
         21   -1    0    0  501  502  0.00000000000E+00  0.00000000000E+00  0.16755860418E+03  0.16755860418E+03  0.00000000000E+00 0. -1.
         21   -1    0    0  502  503 -0.00000000000E+00 -0.00000000000E+00 -0.39553946263E+03  0.39553946263E+03  0.00000000000E+00 0. -1.
         -6    2    1    2    0  503 -0.99147126654E+02 -0.37348617657E+02 -0.28895204607E+03  0.35236051250E+03  0.17157964296E+03 0.  0.
        -24    2    3    3    0    0 -0.12192423711E+02  0.14409324308E+02 -0.20514846737E+03  0.22088756957E+03  0.79681496620E+02 0.  0.
          6    2    1    2  501    0  0.99147126654E+02  0.37348617657E+02  0.60971187619E+02  0.21073755431E+03  0.17166175786E+03 0.  0.
         24    2    5    5    0    0  0.54453071562E+02 -0.41345223919E+02  0.95115096114E+01  0.10652398646E+03  0.81131537231E+02 0.  0.
          5    1    5    5  501    0  0.44694055091E+02  0.78693841576E+02  0.51459678008E+02  0.10421356785E+03  0.47000000000E+01 0. -1.
        -13    1    6    6    0    0  0.16827558490E+02 -0.37137386332E+02 -0.30892513314E+02  0.51153685763E+02  0.00000000000E+00 0.  1.
         14    1    6    6    0    0  0.37625513072E+02 -0.42078375868E+01  0.40404022925E+02  0.55370300700E+02  0.00000000000E+00 0. -1.
         -5    1    3    3    0  503 -0.86954702943E+02 -0.51757941965E+02 -0.83803578702E+02  0.13147294293E+03  0.47000000000E+01 0.  1.
         13    1    4    4    0    0 -0.11699372767E+02 -0.31164854428E+02 -0.58362077096E+02  0.67188209662E+02  0.00000000000E+00 0. -1.
        -14    1    4    4    0    0 -0.49305094419E+00  0.45574178735E+02 -0.14678639027E+03  0.15369935991E+03  0.00000000000E+00 0.  1.
</event>
<event>
12    1  0.1628146E-001  0.2137340E+03  0.7818608E-02  0.1140230E+00
         21   -1    0    0  503  502  0.00000000000E+00  0.00000000000E+00  0.16153918209E+04  0.16153918209E+04  0.00000000000E+00 0.  1.
         21   -1    0    0  501  503 -0.00000000000E+00 -0.00000000000E+00 -0.90703533499E+02  0.90703533499E+02  0.00000000000E+00 0.  1.
          6    2    1    2  501    0 -0.10328729278E+03  0.38421240214E+02  0.44374649449E+02  0.21043139347E+03  0.17368881741E+03 0.  0.
         24    2    3    3    0    0  0.83621004966E+00  0.16476668169E+02 -0.24337266702E+02  0.83676963544E+02  0.78341252455E+02 0.  0.
         -6    2    1    2    0  502  0.10328729278E+03 -0.38421240214E+02  0.14803136379E+04  0.14956639609E+04  0.18313317769E+03 0.  0.
        -24    2    5    5    0    0  0.51188904908E+01  0.34422638730E+02  0.70151799944E+03  0.70731885727E+03  0.83434652317E+02 0.  0.
          5    1    3    3  501    0 -0.10412350283E+03  0.21944572046E+02  0.68711916150E+02  0.12675442992E+03  0.47000000000E+01 0. -1.
        -13    1    4    4    0    0 -0.37135127812E+01  0.19767358457E+01 -0.51970547962E+02  0.52140536219E+02  0.00000000000E+00 0.  1.
         14    1    4    4    0    0  0.45497228309E+01  0.14499932323E+02  0.27633281260E+02  0.31536427325E+02  0.00000000000E+00 0. -1.
         -5    1    5    5    0  502  0.98168402292E+02 -0.72843878944E+02  0.77879563846E+03  0.78834510362E+03  0.47000000000E+01 0.  1.
         11    1    6    6    0    0 -0.23414530178E+02  0.17509622205E+02  0.59585674503E+03  0.59657362303E+03  0.00000000000E+00 0. -1.
        -12    1    6    6    0    0  0.28533420669E+02  0.16913016525E+02  0.10566125441E+03  0.11074523424E+03  0.00000000000E+00 0.  1.
</event>
<event>
12    1  0.1628146E-001  0.2707113E+03  0.7818608E-02  0.1101149E+00
         21   -1    0    0  503  502  0.00000000000E+00  0.00000000000E+00  0.79034125287E+03  0.79034125287E+03  0.00000000000E+00 0.  1.
         21   -1    0    0  501  503 -0.00000000000E+00 -0.00000000000E+00 -0.27564883740E+03  0.27564883740E+03  0.00000000000E+00 0. -1.
          6    2    1    2  501    0  0.19823113219E+03  0.60833288813E+02 -0.17793282581E+03  0.32234073830E+03  0.17101809924E+03 0.  0.
         24    2    3    3    0    0  0.11411010395E+03 -0.35565075413E+02 -0.62309954804E+02  0.14983065071E+03  0.65427081647E+02 0.  0.
         -6    2    1    2    0  502 -0.19823113219E+03 -0.60833288813E+02  0.69262524128E+03  0.74364935197E+03  0.17403552233E+03 0.  0.
        -24    2    5    5    0    0 -0.13252709737E+03 -0.18604911355E+01  0.26416851760E+03  0.30616556356E+03  0.79909033616E+02 0.  0.
          5    1    3    3  501    0  0.84121028241E+02  0.96398364226E+02 -0.11562287101E+03  0.17251008758E+03  0.47000000000E+01 0. -1.
        -13    1    4    4    0    0  0.11439924777E+03 -0.28967088079E+02 -0.37001289435E+02  0.12367447393E+03  0.00000000000E+00 0.  1.
         14    1    4    4    0    0 -0.28914382263E+00 -0.65979873334E+01 -0.25308665369E+02  0.26156176780E+02  0.00000000000E+00 0. -1.
         -5    1    5    5    0  502 -0.65704034816E+02 -0.58972797678E+02  0.42845672368E+03  0.43748378842E+03  0.47000000000E+01 0.  1.
         11    1    6    6    0    0 -0.40998010760E+02  0.33262930310E+02  0.12725201002E+03  0.13776913107E+03  0.00000000000E+00 0. -1.
        -12    1    6    6    0    0 -0.91529086614E+02 -0.35123421445E+02  0.13691650757E+03  0.16839643249E+03  0.00000000000E+00 0.  1.
</event>
<event>
12    1  0.1628146E-001  0.2149570E+03  0.7818608E-02  0.1138129E+00
         21   -1    0    0  501  502  0.00000000000E+00  0.00000000000E+00  0.78804645559E+02  0.78804645559E+02  0.00000000000E+00 0. -1.
         21   -1    0    0  502  503 -0.00000000000E+00 -0.00000000000E+00 -0.58834604258E+03  0.58834604258E+03  0.00000000000E+00 0.  1.
         -6    2    1    2    0  503  0.96383523822E+02 -0.81383077049E+02 -0.29510497181E+03  0.36509373942E+03  0.17405029527E+03 0.  0.
        -24    2    3    3    0    0  0.12287259085E+03 -0.53593756334E+02 -0.28562228575E+03  0.32527002346E+03  0.79060317140E+02 0.  0.
          6    2    1    2  501    0 -0.96383523822E+02  0.81383077049E+02 -0.21443642521E+03  0.30205694872E+03  0.17129632488E+03 0.  0.
         24    2    5    5    0    0  0.92955007168E-01 -0.29922106880E+01 -0.11911071869E+03  0.14225713498E+03  0.77722372446E+02 0.  0.
          5    1    5    5  501    0 -0.96476478830E+02  0.84375287737E+02 -0.95325706519E+02  0.15979981374E+03  0.47000000000E+01 0. -1.
        -13    1    6    6    0    0 -0.32607498432E+02 -0.16510810097E+02 -0.87431468973E+02  0.94763482264E+02  0.00000000000E+00 0.  1.
         14    1    6    6    0    0  0.32700453439E+02  0.13518599409E+02 -0.31679249721E+02  0.47493652713E+02  0.00000000000E+00 0. -1.
         -5    1    3    3    0  503 -0.26489067028E+02 -0.27789320714E+02 -0.94826860556E+01  0.39823715957E+02  0.47000000000E+01 0.  1.
         13    1    4    4    0    0 -0.45408348469E+01 -0.20619017242E+00  0.28919026550E+01  0.53874666088E+01  0.00000000000E+00 0. -1.
        -14    1    4    4    0    0  0.12741342570E+03 -0.53387566162E+02 -0.28851418841E+03  0.31988255685E+03  0.00000000000E+00 0.  1.
</event>
<event>
12    1  0.1628146E-001  0.1815696E+03  0.7818608E-02  0.1167037E+00
         21   -1    0    0  501  502  0.00000000000E+00  0.00000000000E+00  0.96467550582E+03  0.96467550582E+03  0.00000000000E+00 0. -1.
         21   -1    0    0  502  503 -0.00000000000E+00 -0.00000000000E+00 -0.37759320234E+02  0.37759320234E+02  0.00000000000E+00 0.  1.
         -6    2    1    2    0  503  0.41435484755E+02 -0.39638266357E+02  0.29351800572E+03  0.34352605277E+03  0.16902437012E+03 0.  0.
        -24    2    3    3    0    0  0.64383150861E+02 -0.74682786251E+02  0.25891832996E+03  0.28899219799E+03  0.82189295133E+02 0.  0.
          6    2    1    2  501    0 -0.41435484755E+02  0.39638266357E+02  0.63339817987E+03  0.65890877329E+03  0.17227717694E+03 0.  0.
         24    2    5    5    0    0 -0.13184124443E+02 -0.24053393469E+02  0.16352131879E+03  0.18387075220E+03  0.79478581668E+02 0.  0.
          5    1    5    5  501    0 -0.28251360312E+02  0.63691659826E+02  0.46987686109E+03  0.47503802108E+03  0.47000000000E+01 0. -1.
        -11    1    6    6    0    0  0.18860371595E+02 -0.42420217616E+02  0.10283629248E+03  0.11282947988E+03  0.00000000000E+00 0.  1.
         12    1    6    6    0    0 -0.32044496038E+02  0.18366824146E+02  0.60685026306E+02  0.71041272323E+02  0.00000000000E+00 0. -1.
         -5    1    3    3    0  503 -0.22947666106E+02  0.35044519894E+02  0.34599675759E+02  0.54533854778E+02  0.47000000000E+01 0.  1.
         13    1    4    4    0    0  0.62304529917E+02 -0.17490088733E+02  0.18168431513E+03  0.19286510316E+03  0.00000000000E+00 0. -1.
        -14    1    4    4    0    0  0.20786209436E+01 -0.57192697518E+02  0.77234014826E+02  0.96127094830E+02  0.00000000000E+00 0.  1.
</event>
<event>
12    1  0.1628146E-001  0.1845442E+03  0.7818608E-02  0.1163667E+00
         21   -1    0    0  501  502  0.00000000000E+00  0.00000000000E+00  0.73317810451E+02  0.73317810451E+02  0.00000000000E+00 0.  1.
         21   -1    0    0  502  503 -0.00000000000E+00 -0.00000000000E+00 -0.59723282247E+03  0.59723282247E+03  0.00000000000E+00 0. -1.
         -6    2    1    2    0  503 -0.17852209467E+01  0.64245272612E+02 -0.42167527632E+03  0.46028968527E+03  0.17299107966E+03 0.  0.
        -24    2    3    3    0    0 -0.54175649835E+02  0.84194553687E+02 -0.26389913770E+03  0.29278407112E+03  0.77820521194E+02 0.  0.
          6    2    1    2  501    0  0.17852209467E+01 -0.64245272612E+02 -0.10223973570E+03  0.21026094764E+03  0.17212222542E+03 0.  0.
         24    2    5    5    0    0 -0.55112347463E+02 -0.24239434585E+02 -0.15290135221E+02  0.98815340328E+02  0.76848957165E+02 0.  0.
          5    1    5    5  501    0  0.56897568409E+02 -0.40005838028E+02 -0.86949600475E+02  0.11144560732E+03  0.47000000000E+01 0. -1.
        -13    1    6    6    0    0  0.27089607455E+01 -0.15324740673E+02  0.23812182582E+02  0.28446549604E+02  0.00000000000E+00 0.  1.
         14    1    6    6    0    0 -0.57821308208E+02 -0.89146939114E+01 -0.39102317804E+02  0.70368790725E+02  0.00000000000E+00 0. -1.
         -5    1    3    3    0  503  0.52390428888E+02 -0.19949281074E+02 -0.15777613862E+03  0.16750561415E+03  0.47000000000E+01 0.  1.
         11    1    4    4    0    0 -0.28440163391E+02  0.16088165982E+02 -0.17428717998E+03  0.17732369578E+03  0.00000000000E+00 0. -1.
        -12    1    4    4    0    0 -0.25735486444E+02  0.68106387704E+02 -0.89611957719E+02  0.11546037535E+03  0.00000000000E+00 0.  1.
</event>
<event>
12    1  0.1628146E-001  0.2087749E+03  0.7818608E-02  0.1143217E+00
         21   -1    0    0  503  502  0.00000000000E+00  0.00000000000E+00  0.33288328867E+03  0.33288328867E+03  0.00000000000E+00 0. -1.
         21   -1    0    0  501  503 -0.00000000000E+00 -0.00000000000E+00 -0.12892393124E+03  0.12892393124E+03  0.00000000000E+00 0. -1.
          6    2    1    2  501    0 -0.52236654883E+02  0.98695382830E+02  0.96799048091E+02  0.23012386784E+03  0.17640150831E+03 0.  0.
         24    2    3    3    0    0 -0.40651205944E+02  0.13341561005E+03  0.10607212327E+03  0.19207394368E+03  0.78669301224E+02 0.  0.
         -6    2    1    2    0  502  0.52236654883E+02 -0.98695382830E+02  0.10716030933E+03  0.23168335207E+03  0.17240764781E+03 0.  0.
        -24    2    5    5    0    0  0.54375920867E+02 -0.31930749625E+02  0.36195298221E+01  0.10837529991E+03  0.88066969361E+02 0.  0.
          5    1    3    3  501    0 -0.11585448939E+02 -0.34720227223E+02 -0.92730751799E+01  0.38049924164E+02  0.47000000000E+01 0. -1.
        -13    1    4    4    0    0  0.70475425877E+01  0.93398576298E+02  0.41730552698E+02  0.10253975297E+03  0.00000000000E+00 0.  1.
         14    1    4    4    0    0 -0.47698748532E+02  0.40017033755E+02  0.64341570572E+02  0.89534190708E+02  0.00000000000E+00 0. -1.
         -5    1    5    5    0  502 -0.21392659837E+01 -0.66764633205E+02  0.10354077951E+03  0.12330805216E+03  0.47000000000E+01 0.  1.
         11    1    6    6    0    0  0.63463743453E+02 -0.51363539635E+02  0.16580372792E+02  0.83311275941E+02  0.00000000000E+00 0. -1.
        -12    1    6    6    0    0 -0.90878225865E+01  0.19432790010E+02 -0.12960842970E+02  0.25064023968E+02  0.00000000000E+00 0.  1.
</event>
<event>
12    1  0.1628146E-001  0.2932462E+03  0.7818608E-02  0.1088751E+00
         21   -1    0    0  501  502  0.00000000000E+00  0.00000000000E+00  0.11529693301E+03  0.11529693301E+03  0.00000000000E+00 0.  1.
         21   -1    0    0  502  503 -0.00000000000E+00 -0.00000000000E+00 -0.79890154687E+03  0.79890154687E+03  0.00000000000E+00 0. -1.
         -6    2    1    2    0  503  0.53988612042E+02  0.23068513191E+03 -0.46181156729E+03  0.54704961099E+03  0.17280900695E+03 0.  0.
        -24    2    3    3    0    0  0.66890601325E+02  0.22850624105E+03 -0.46866250291E+03  0.53155012030E+03  0.78813285760E+02 0.  0.
          6    2    1    2  501    0 -0.53988612042E+02 -0.23068513191E+03 -0.22179304656E+03  0.36714886889E+03  0.17168499091E+03 0.  0.
         24    2    5    5    0    0 -0.65292235096E+02 -0.24959545398E+03 -0.20858763214E+03  0.34103670419E+03  0.78970036819E+02 0.  0.
          5    1    5    5  501    0  0.11303623053E+02  0.18910322067E+02 -0.13205414424E+02  0.26112164692E+02  0.47000000000E+01 0. -1.
        -13    1    6    6    0    0  0.27536412992E+01 -0.13911908855E+02  0.57273503722E+01  0.15294649087E+02  0.00000000000E+00 0.  1.
         14    1    6    6    0    0 -0.68045876395E+02 -0.23568354512E+03 -0.21431498251E+03  0.32574205511E+03  0.00000000000E+00 0. -1.
         -5    1    3    3    0  503 -0.12901989283E+02  0.21788908671E+01  0.68509356190E+01  0.15499490692E+02  0.47000000000E+01 0.  1.
         11    1    4    4    0    0  0.46606979163E+02  0.45041993022E+02 -0.14772488976E+03  0.16131842640E+03  0.00000000000E+00 0. -1.
        -12    1    4    4    0    0  0.20283622162E+02  0.18346424802E+03 -0.32093761316E+03  0.37023169390E+03  0.00000000000E+00 0.  1.
</event>
<event>
12    1  0.1628146E-001  0.1899769E+03  0.7818608E-02  0.1159018E+00
         21   -1    0    0  503  502  0.00000000000E+00  0.00000000000E+00  0.27430203384E+03  0.27430203384E+03  0.00000000000E+00 0. -1.
         21   -1    0    0  501  503 -0.00000000000E+00 -0.00000000000E+00 -0.13019944041E+03  0.13019944041E+03  0.00000000000E+00 0.  1.
          6    2    1    2  501    0  0.48494519853E+02  0.62710363149E+02  0.81446218909E+02  0.20669958353E+03  0.17264681623E+03 0.  0.
         24    2    3    3    0    0 -0.24091201145E+02  0.49257186951E+02 -0.12381581033E+01  0.95756034621E+02  0.78492220582E+02 0.  0.
         -6    2    1    2    0  502 -0.48494519853E+02 -0.62710363149E+02  0.62656374520E+02  0.19780189072E+03  0.17004546040E+03 0.  0.
        -24    2    5    5    0    0 -0.74140967191E+02 -0.29134357357E+02 -0.10429111647E+02  0.11325210235E+03  0.79822168110E+02 0.  0.
          5    1    3    3  501    0  0.72585720998E+02  0.13453176197E+02  0.82684377012E+02  0.11094354891E+03  0.47000000000E+01 0. -1.
        -11    1    4    4    0    0  0.52588213164E+00 -0.83934210103E+01 -0.26777190312E+02  0.28066777323E+02  0.00000000000E+00 0.  1.
         12    1    4    4    0    0 -0.24617083276E+02  0.57650607962E+02  0.25539032209E+02  0.67689257298E+02  0.00000000000E+00 0. -1.
         -5    1    5    5    0  502  0.25646447338E+02 -0.33576005792E+02  0.73085486167E+02  0.84549788375E+02  0.47000000000E+01 0.  1.
         11    1    6    6    0    0 -0.65571985429E+02  0.31209907058E+01  0.19439555792E+02  0.68464021102E+02  0.00000000000E+00 0. -1.
        -12    1    6    6    0    0 -0.85689817624E+01 -0.32255348063E+02 -0.29868667439E+02  0.44788081246E+02  0.00000000000E+00 0.  1.
</event>
<event>
12    1  0.1628146E-001  0.2054757E+03  0.7818608E-02  0.1145275E+00
         21   -1    0    0  501  502  0.00000000000E+00  0.00000000000E+00  0.10742558868E+04  0.10742558868E+04  0.00000000000E+00 0. -1.
         21   -1    0    0  502  503 -0.00000000000E+00 -0.00000000000E+00 -0.43631569463E+02  0.43631569463E+02  0.00000000000E+00 0. -1.
         -6    2    1    2    0  503  0.70239370054E+02  0.88371707306E+02  0.33738849138E+03  0.39484099701E+03  0.17124628767E+03 0.  0.
        -24    2    3    3    0    0  0.82516056490E+02  0.28250020793E+02  0.11706043773E+03  0.16607938430E+03  0.79197553974E+02 0.  0.
          6    2    1    2  501    0 -0.70239370054E+02 -0.88371707306E+02  0.69323582596E+03  0.72304645926E+03  0.17168909139E+03 0.  0.
         24    2    5    5    0    0 -0.11188777162E+03 -0.45061332957E+02  0.51568012047E+03  0.53554046888E+03  0.79550047079E+02 0.  0.
          5    1    5    5  501    0  0.41648401565E+02 -0.43310374349E+02  0.17755570549E+03  0.18750599038E+03  0.47000000000E+01 0. -1.
        -13    1    6    6    0    0 -0.32997940823E+02  0.19930046865E+02  0.20141920150E+03  0.20507502432E+03  0.00000000000E+00 0.  1.
         14    1    6    6    0    0 -0.78889830796E+02 -0.64991379822E+02  0.31426091897E+03  0.33046544456E+03  0.00000000000E+00 0. -1.
         -5    1    3    3    0  503 -0.12276686437E+02  0.60121686513E+02  0.22032805366E+03  0.22876161270E+03  0.47000000000E+01 0.  1.
         11    1    4    4    0    0  0.87826487777E+02  0.46096304341E+02  0.98209724315E+02  0.13958334850E+03  0.00000000000E+00 0. -1.
        -12    1    4    4    0    0 -0.53104312865E+01 -0.17846283548E+02  0.18850713412E+02  0.26496035799E+02  0.00000000000E+00 0.  1.
</event>
<event>
12    1  0.1628146E-001  0.2331035E+03  0.7818608E-02  0.1124786E+00
         21   -1    0    0  503  502  0.00000000000E+00  0.00000000000E+00  0.62693245249E+02  0.62693245249E+02  0.00000000000E+00 0.  1.
         21   -1    0    0  501  503 -0.00000000000E+00 -0.00000000000E+00 -0.94045570932E+03  0.94045570932E+03  0.00000000000E+00 0.  1.
          6    2    1    2  501    0  0.14336179283E+03  0.61817430952E+02 -0.29067150514E+03  0.37147418125E+03  0.17067262530E+03 0.  0.
         24    2    3    3    0    0  0.22317301244E+02  0.29409341936E+02 -0.51642169998E+02  0.10154980993E+03  0.79262089596E+02 0.  0.
         -6    2    1    2    0  502 -0.14336179283E+03 -0.61817430952E+02 -0.58709095894E+03  0.63167477332E+03  0.17309889303E+03 0.  0.
        -24    2    5    5    0    0 -0.13804713430E+03 -0.54116242547E+02 -0.59516610075E+03  0.61845161887E+03  0.79209459041E+02 0.  0.
          5    1    3    3  501    0  0.12104449158E+03  0.32408089016E+02 -0.23902933514E+03  0.26992437132E+03  0.47000000000E+01 0. -1.
        -11    1    4    4    0    0  0.26767759109E+02  0.54798196414E+02 -0.41905706680E+02  0.73996239839E+02  0.00000000000E+00 0.  1.
         12    1    4    4    0    0 -0.44504578655E+01 -0.25388854478E+02 -0.97364633182E+01  0.27553570093E+02  0.00000000000E+00 0. -1.
         -5    1    5    5    0  502 -0.53146585258E+01 -0.77011884056E+01  0.80751418181E+01  0.13223154445E+02  0.47000000000E+01 0.  1.
         11    1    6    6    0    0 -0.50278915235E+02  0.18872604072E+02 -0.17499946601E+03  0.18305452086E+03  0.00000000000E+00 0. -1.
        -12    1    6    6    0    0 -0.87768219067E+02 -0.72988846619E+02 -0.42016663474E+03  0.43539709801E+03  0.00000000000E+00 0.  1.
</event>
<event>
12    1  0.1628146E-001  0.2774510E+03  0.7818608E-02  0.1097251E+00
         21   -1    0    0  503  502  0.00000000000E+00  0.00000000000E+00  0.76867998302E+03  0.76867998302E+03  0.00000000000E+00 0.  1.
         21   -1    0    0  501  503 -0.00000000000E+00 -0.00000000000E+00 -0.15153969968E+03  0.15153969968E+03  0.00000000000E+00 0. -1.
          6    2    1    2  501    0 -0.21668580822E+03 -0.12983309266E+01  0.39097250218E+02  0.27903890380E+03  0.17140504576E+03 0.  0.
         24    2    3    3    0    0 -0.21973190798E+03  0.10973128962E+02 -0.42571194947E+01  0.23363451167E+03  0.78513954389E+02 0.  0.
         -6    2    1    2    0  502  0.21668580822E+03  0.12983309266E+01  0.57804303312E+03  0.64118077890E+03  0.17327613205E+03 0.  0.
        -24    2    5    5    0    0  0.76398307370E+02  0.55916565577E+02  0.21522852153E+03  0.24834468805E+03  0.79927491685E+02 0.  0.
          5    1    3    3  501    0  0.30460997557E+01 -0.12271459889E+02  0.43354369713E+02  0.45404392130E+02  0.47000000000E+01 0. -1.
        -11    1    4    4    0    0 -0.53758385505E+02 -0.31241639412E+02  0.26938150028E+01  0.62235525904E+02  0.00000000000E+00 0.  1.
         12    1    4    4    0    0 -0.16597352247E+03  0.42214768375E+02 -0.69509344975E+01  0.17139898577E+03  0.00000000000E+00 0. -1.
         -5    1    5    5    0  502  0.14028750085E+03 -0.54618234651E+02  0.36281451159E+03  0.39283609085E+03  0.47000000000E+01 0.  1.
         13    1    6    6    0    0  0.52479719257E+02  0.32547652476E+02  0.20388760469E+03  0.21303433048E+03  0.00000000000E+00 0. -1.
        -14    1    6    6    0    0  0.23918588113E+02  0.23368913102E+02  0.11340916833E+02  0.35310357566E+02  0.00000000000E+00 0.  1.
</event>
<event>
12    1  0.1628146E-001  0.1879200E+03  0.7818608E-02  0.1161090E+00
         21   -1    0    0  503  502  0.00000000000E+00  0.00000000000E+00  0.18493464106E+03  0.18493464106E+03  0.00000000000E+00 0.  1.
         21   -1    0    0  501  503 -0.00000000000E+00 -0.00000000000E+00 -0.25196654566E+03  0.25196654566E+03  0.00000000000E+00 0. -1.
          6    2    1    2  501    0  0.20412583196E+02 -0.71246272247E+02 -0.14404243808E+03  0.23677449902E+03  0.17268825831E+03 0.  0.
         24    2    3    3    0    0  0.47842809044E+02 -0.32047453910E+02 -0.46053333805E+02  0.12762817886E+03  0.10417326339E+03 0.  0.
         -6    2    1    2    0  502 -0.20412583196E+02  0.71246272247E+02  0.77010533478E+02  0.20012668770E+03  0.16919622928E+03 0.  0.
        -24    2    5    5    0    0 -0.71659840728E+02  0.39046120014E+02  0.16607259778E+02  0.11448921529E+03  0.78563649854E+02 0.  0.
          5    1    3    3  501    0 -0.27430225848E+02 -0.39198818336E+02 -0.97989104274E+02  0.10914632016E+03  0.47000000000E+01 0. -1.
        -13    1    4    4    0    0  0.33748397727E+02 -0.67079450116E+02 -0.49141259905E+02  0.89741129935E+02  0.00000000000E+00 0.  1.
         14    1    4    4    0    0  0.14094411317E+02  0.35031996205E+02  0.30879260992E+01  0.37887048923E+02  0.00000000000E+00 0. -1.
         -5    1    5    5    0  502  0.51247257532E+02  0.32200152233E+02  0.60403273700E+02  0.85637472417E+02  0.47000000000E+01 0.  1.
         11    1    6    6    0    0 -0.54281189986E+02  0.51368500397E+02  0.38392395092E+02  0.84018726604E+02  0.00000000000E+00 0. -1.
        -12    1    6    6    0    0 -0.17378650742E+02 -0.12322380383E+02 -0.21785135314E+02  0.30470488682E+02  0.00000000000E+00 0.  1.
</event>
<event>
12    1  0.1628146E-001  0.2159408E+03  0.7818608E-02  0.1137372E+00
         21   -1    0    0  501  502  0.00000000000E+00  0.00000000000E+00  0.18778732485E+03  0.18778732485E+03  0.00000000000E+00 0.  1.
         21   -1    0    0  502  503 -0.00000000000E+00 -0.00000000000E+00 -0.31621725724E+03  0.31621725724E+03  0.00000000000E+00 0.  1.
         -6    2    1    2    0  503 -0.11442130107E+01  0.13109677971E+03 -0.18341310436E+03  0.28332098170E+03  0.17158886020E+03 0.  0.
        -24    2    3    3    0    0  0.13870717115E+02  0.12388799883E+03 -0.20668220134E+03  0.25432174855E+03  0.80133553446E+02 0.  0.
          6    2    1    2  501    0  0.11442130107E+01 -0.13109677971E+03  0.54983171969E+02  0.22068360039E+03  0.16879107621E+03 0.  0.
         24    2    5    5    0    0 -0.10210572534E+02 -0.12320358546E+03  0.96995699886E+02  0.17620465962E+03  0.79727893562E+02 0.  0.
          5    1    5    5  501    0  0.11354785545E+02 -0.78931942432E+01 -0.42012527918E+02  0.44478940772E+02  0.47000000000E+01 0. -1.
        -13    1    6    6    0    0 -0.28521348643E+02 -0.72350433699E+01  0.23863437314E+02  0.37885047465E+02  0.00000000000E+00 0.  1.
         14    1    6    6    0    0  0.18310776109E+02 -0.11596854209E+03  0.73132262572E+02  0.13831961215E+03  0.00000000000E+00 0. -1.
         -5    1    3    3    0  503 -0.15014930126E+02  0.72087808746E+01  0.23269096984E+02  0.28999233142E+02  0.47000000000E+01 0.  1.
         11    1    4    4    0    0  0.61328028052E+01  0.30424965032E+01  0.63117891211E+01  0.93116452428E+01  0.00000000000E+00 0. -1.
        -12    1    4    4    0    0  0.77379143099E+01  0.12084550233E+03 -0.21299399046E+03  0.24501010331E+03  0.00000000000E+00 0.  1.
</event>
