<event>
12    1  0.8407180E-002  0.1776180E+03  0.7818608E-02  0.1170204E+00
         21   -1    0    0  501  502  0.00000000000E+00  0.00000000000E+00  0.20030770588E+03  0.20030770588E+03  0.00000000000E+00 0. -1.
         21   -1    0    0  502  503 -0.00000000000E+00 -0.00000000000E+00 -0.30194741602E+03  0.30194741602E+03  0.00000000000E+00 0.  1.
         -6    2    1    2    0  503  0.36036401451E+02 -0.30969042042E+02 -0.22465476863E+03  0.28619762675E+03  0.17082626466E+03 0.  0.
        -24    2    3    3    0    0  0.77460212315E+02 -0.17853791797E+02 -0.95410118171E+02  0.14976371760E+03  0.83709247314E+02 0.  0.
          6    2    1    2  501    0 -0.36036401451E+02  0.30969042042E+02  0.12301505848E+03  0.21605749515E+03  0.17114447932E+03 0.  0.
         24    2    5    5    0    0  0.19581590954E+02 -0.32747269214E+01  0.81655085643E+01  0.83851194585E+02  0.81056676237E+02 0.  0.
          5    1    5    5  501    0 -0.55617992405E+02  0.34243768964E+02  0.11484954992E+03  0.13220630056E+03  0.47000000000E+01 0. -1.
        -11    1    6    6    0    0  0.43895024165E+02 -0.19569297681E+02  0.20294446151E+02  0.52168909350E+02  0.00000000000E+00 0.  1.
         12    1    6    6    0    0 -0.24313433212E+02  0.16294570759E+02 -0.12128937586E+02  0.31682285235E+02  0.00000000000E+00 0. -1.
         -5    1    3    3    0  503 -0.41423810865E+02 -0.13115250245E+02 -0.12924465046E+03  0.13643390915E+03  0.47000000000E+01 0.  1.
         13    1    4    4    0    0 -0.11903188275E+02  0.15238666333E+02 -0.98747542482E+01  0.21712061491E+02  0.00000000000E+00 0. -1.
        -14    1    4    4    0    0  0.89363400591E+02 -0.33092458130E+02 -0.85535363923E+02  0.12805165611E+03  0.00000000000E+00 0.  1.
</event>
<event>
12    1  0.8407180E-002  0.2459225E+03  0.7818608E-02  0.1115983E+00
         21   -1    0    0  503  502  0.00000000000E+00  0.00000000000E+00  0.57366818948E+02  0.57366818948E+02  0.00000000000E+00 0.  1.
         21   -1    0    0  501  503 -0.00000000000E+00 -0.00000000000E+00 -0.11596468815E+04  0.11596468815E+04  0.00000000000E+00 0.  1.
          6    2    1    2  501    0 -0.10690357322E+02  0.17472499088E+03 -0.73583090652E+03  0.77569423873E+03  0.17207940849E+03 0.  0.
         24    2    3    3    0    0  0.27217171667E+02  0.73184762731E+02 -0.54334591830E+03  0.55474184708E+03  0.80105842686E+02 0.  0.
         -6    2    1    2    0  502  0.10690357322E+02 -0.17472499088E+03 -0.36644915606E+03  0.44131946175E+03  0.17272746500E+03 0.  0.
        -24    2    5    5    0    0 -0.24575040785E+02 -0.56864317602E+02 -0.25536942156E+03  0.27550153743E+03  0.82765164251E+02 0.  0.
          5    1    3    3  501    0 -0.37907528990E+02  0.10154022815E+03 -0.19248498821E+03  0.22095239165E+03  0.47000000000E+01 0. -1.
        -13    1    4    4    0    0  0.28940320271E+02  0.27307438575E+01 -0.64631970216E+02  0.70868121700E+02  0.00000000000E+00 0.  1.
         14    1    4    4    0    0 -0.17231486033E+01  0.70454018874E+02 -0.47871394809E+03  0.48387372538E+03  0.00000000000E+00 0. -1.
         -5    1    5    5    0  502  0.35265398107E+02 -0.11786067328E+03 -0.11107973451E+03  0.16581792433E+03  0.47000000000E+01 0.  1.
         13    1    6    6    0    0 -0.30707736825E+02 -0.67136317299E+02 -0.12950449467E+03  0.14906932730E+03  0.00000000000E+00 0. -1.
        -14    1    6    6    0    0  0.61326960401E+01  0.10271999696E+02 -0.12586492688E+03  0.12643221013E+03  0.00000000000E+00 0.  1.
</event>
<event>
12    1  0.8407180E-002  0.3944576E+03  0.7818608E-02  0.1045785E+00
         21   -1    0    0  501  502  0.00000000000E+00  0.00000000000E+00  0.14393024517E+03  0.14393024517E+03  0.00000000000E+00 0. -1.
         21   -1    0    0  502  503 -0.00000000000E+00 -0.00000000000E+00 -0.10885895232E+04  0.10885895232E+04  0.00000000000E+00 0. -1.
         -6    2    1    2    0  503  0.29996014399E+03  0.18842516163E+03 -0.52999077851E+03  0.66020276615E+03  0.17174788968E+03 0.  0.
        -24    2    3    3    0    0  0.31559005611E+03  0.19098121513E+03 -0.50876209071E+03  0.63330342140E+03  0.78507646571E+02 0.  0.
          6    2    1    2  501    0 -0.29996014399E+03 -0.18842516163E+03 -0.41466849956E+03  0.57231700226E+03  0.17354151385E+03 0.  0.
         24    2    5    5    0    0 -0.25319835252E+03 -0.15240924108E+03 -0.41160271228E+03  0.51302703071E+03  0.80261815326E+02 0.  0.
          5    1    5    5  501    0 -0.46761791473E+02 -0.36015920553E+02 -0.30657872825E+01  0.59289971553E+02  0.47000000000E+01 0. -1.
        -13    1    6    6    0    0 -0.12814626063E+03 -0.42314551959E+02 -0.22925414010E+03  0.26602527357E+03  0.00000000000E+00 0.  1.
         14    1    6    6    0    0 -0.12505209189E+03 -0.11009468912E+03 -0.18234857218E+03  0.24700175715E+03  0.00000000000E+00 0. -1.
         -5    1    3    3    0  503 -0.15629912116E+02 -0.25560534966E+01 -0.21228687801E+02  0.26899344750E+02  0.47000000000E+01 0.  1.
         11    1    4    4    0    0  0.17098617620E+03  0.13994650234E+03 -0.26148985036E+03  0.34234228166E+03  0.00000000000E+00 0. -1.
        -12    1    4    4    0    0  0.14460387990E+03  0.51034712785E+02 -0.24727224035E+03  0.29096113974E+03  0.00000000000E+00 0.  1.
</event>
<event>
12    1  0.8407180E-002  0.1747918E+03  0.7818608E-02  0.1173730E+00
         21   -1    0    0  501  502  0.00000000000E+00  0.00000000000E+00  0.86919032621E+03  0.86919032621E+03  0.00000000000E+00 0.  1.
         21   -1    0    0  502  503 -0.00000000000E+00 -0.00000000000E+00 -0.86764088588E+02  0.86764088588E+02  0.00000000000E+00 0.  1.
         -6    2    1    2    0  503  0.11386940597E+02 -0.20360127543E+02  0.18951072886E+02  0.17272615600E+03  0.17009110674E+03 0.  0.
        -24    2    3    3    0    0 -0.43560206273E+02 -0.92771431763E+01 -0.31787785319E+02  0.96972982973E+02  0.80060846704E+02 0.  0.
          6    2    1    2  501    0 -0.11386940597E+02  0.20360127543E+02  0.76347516473E+03  0.78322825880E+03  0.17322811840E+03 0.  0.
         24    2    5    5    0    0  0.82859523594E+01 -0.28078990034E+02  0.67459570505E+03  0.68000510644E+03  0.80439373608E+02 0.  0.
          5    1    5    5  501    0 -0.19672892956E+02  0.48439117577E+02  0.88879459689E+02  0.10322315236E+03  0.47000000000E+01 0. -1.
        -13    1    6    6    0    0 -0.24246110396E+02 -0.81344037236E+01  0.52488963537E+03  0.52551229454E+03  0.00000000000E+00 0.  1.
         14    1    6    6    0    0  0.32532062756E+02 -0.19944586311E+02  0.14970606967E+03  0.15449281189E+03  0.00000000000E+00 0. -1.
         -5    1    3    3    0  503  0.54947146870E+02 -0.11082984367E+02  0.50738858205E+02  0.75753173027E+02  0.47000000000E+01 0.  1.
         11    1    4    4    0    0 -0.54928635625E+02  0.15305787554E+02 -0.24921668703E+01  0.57075678182E+02  0.00000000000E+00 0. -1.
        -12    1    4    4    0    0  0.11368429352E+02 -0.24582930730E+02 -0.29295618449E+02  0.39897304790E+02  0.00000000000E+00 0.  1.
</event>
<event>
12    1  0.8407180E-002  0.2622338E+03  0.7818608E-02  0.1106149E+00
         21   -1    0    0  503  502  0.00000000000E+00  0.00000000000E+00  0.41750592809E+03  0.41750592809E+03  0.00000000000E+00 0. -1.
         21   -1    0    0  501  503 -0.00000000000E+00 -0.00000000000E+00 -0.23464058941E+03  0.23464058941E+03  0.00000000000E+00 0.  1.
          6    2    1    2  501    0  0.10068246437E+03  0.17004145144E+03 -0.88668239778E+02  0.27465867738E+03  0.16889132149E+03 0.  0.
         24    2    3    3    0    0  0.55974173883E+02  0.34469868688E+02  0.62544171077E+01  0.10316265387E+03  0.79259923236E+02 0.  0.
         -6    2    1    2    0  502 -0.10068246437E+03 -0.17004145144E+03  0.27153357846E+03  0.37748784013E+03  0.17238193460E+03 0.  0.
        -24    2    5    5    0    0 -0.85658220123E+02 -0.49054967304E+02  0.20001943738E+03  0.23606712159E+03  0.77305821731E+02 0.  0.
          5    1    3    3  501    0  0.44708290488E+02  0.13557158275E+03 -0.94922656886E+02  0.17149602350E+03  0.47000000000E+01 0. -1.
        -11    1    4    4    0    0 -0.10522629844E+02  0.31198987262E+02 -0.10408891443E+02  0.34531834097E+02  0.00000000000E+00 0.  1.
         12    1    4    4    0    0  0.66496803727E+02  0.32708814258E+01  0.16663308551E+02  0.68630819775E+02  0.00000000000E+00 0. -1.
         -5    1    5    5    0  502 -0.15024244248E+02 -0.12098648413E+03  0.71514141078E+02  0.14142071854E+03  0.47000000000E+01 0.  1.
         13    1    6    6    0    0 -0.81919627382E+02 -0.60014063896E+02  0.12932539846E+03  0.16443105516E+03  0.00000000000E+00 0. -1.
        -14    1    6    6    0    0 -0.37385927409E+01  0.10959096592E+02  0.70694038924E+02  0.71636066427E+02  0.00000000000E+00 0.  1.
</event>
<event>
12    1  0.8407180E-002  0.1848613E+03  0.7818608E-02  0.1163810E+00
         21   -1    0    0  501  502  0.00000000000E+00  0.00000000000E+00  0.17032096815E+03  0.17032096815E+03  0.00000000000E+00 0. -1.
         21   -1    0    0  502  503 -0.00000000000E+00 -0.00000000000E+00 -0.27499700643E+03  0.27499700643E+03  0.00000000000E+00 0. -1.
         -6    2    1    2    0  503 -0.24419602673E+01 -0.66087617148E+02  0.65397421446E+02  0.19608806157E+03  0.17262725407E+03 0.  0.
        -24    2    3    3    0    0  0.16494364470E+02 -0.40089806888E+02  0.10786306503E+03  0.14261010894E+03  0.82607177037E+02 0.  0.
          6    2    1    2  501    0  0.24419602673E+01  0.66087617148E+02 -0.17007345972E+03  0.24922991301E+03  0.16975579969E+03 0.  0.
         24    2    5    5    0    0 -0.26989392935E+02  0.82336514181E+02 -0.56172763705E+02  0.13037836797E+03  0.79595292288E+02 0.  0.
          5    1    5    5  501    0  0.29431353203E+02 -0.16248897032E+02 -0.11390069602E+03  0.11885154504E+03  0.47000000000E+01 0. -1.
        -11    1    6    6    0    0 -0.50793077342E+02  0.40191063314E+02 -0.49494806865E+02  0.81516833739E+02  0.00000000000E+00 0.  1.
         12    1    6    6    0    0  0.23803684407E+02  0.42145450867E+02 -0.66779568396E+01  0.48861534233E+02  0.00000000000E+00 0. -1.
         -5    1    3    3    0  503 -0.18936324737E+02 -0.25997810260E+02 -0.42465643581E+02  0.53477952631E+02  0.47000000000E+01 0.  1.
         13    1    4    4    0    0 -0.11904982908E+02 -0.51119111091E+02  0.33547764412E+02  0.62292412329E+02  0.00000000000E+00 0. -1.
        -14    1    4    4    0    0  0.28399347378E+02  0.11029304202E+02  0.74315300615E+02  0.80317696606E+02  0.00000000000E+00 0.  1.
</event>
<event>
12    1  0.8407180E-002  0.1881837E+03  0.7818608E-02  0.1160212E+00
         21   -1    0    0  501  502  0.00000000000E+00  0.00000000000E+00  0.21109262923E+03  0.21109262923E+03  0.00000000000E+00 0. -1.
         21   -1    0    0  502  503 -0.00000000000E+00 -0.00000000000E+00 -0.24888495326E+03  0.24888495326E+03  0.00000000000E+00 0. -1.
         -6    2    1    2    0  503 -0.74816454234E+02 -0.12722160328E+02 -0.15053789225E+03  0.24098702474E+03  0.17220259552E+03 0.  0.
        -24    2    3    3    0    0 -0.10716752351E+02 -0.50618368958E+02 -0.29527715023E+02  0.98823571627E+02  0.78848869984E+02 0.  0.
          6    2    1    2  501    0  0.74816454234E+02  0.12722160328E+02  0.11274556822E+03  0.21899055774E+03  0.17171472284E+03 0.  0.
         24    2    5    5    0    0  0.94283448699E+02  0.56693261087E+02  0.10158378674E+03  0.16940127522E+03  0.79208785911E+02 0.  0.
          5    1    5    5  501    0 -0.19466994465E+02 -0.43971100759E+02  0.11161781480E+02  0.49589282524E+02  0.47000000000E+01 0. -1.
        -11    1    6    6    0    0 -0.28674907163E+01 -0.13273473213E+02  0.21268475639E+02  0.25234017717E+02  0.00000000000E+00 0.  1.
         12    1    6    6    0    0  0.97150939415E+02  0.69966734300E+02  0.80315311102E+02  0.14416725750E+03  0.00000000000E+00 0. -1.
         -5    1    3    3    0  503 -0.64099701883E+02  0.37896208630E+02 -0.12101017722E+03  0.14216345312E+03  0.47000000000E+01 0.  1.
         11    1    4    4    0    0 -0.44152027953E+02 -0.27094118754E+02 -0.25515805257E+02  0.57745555339E+02  0.00000000000E+00 0. -1.
        -12    1    4    4    0    0  0.33435275602E+02 -0.23524250204E+02 -0.40119097663E+01  0.41078016289E+02  0.00000000000E+00 0.  1.
</event>
<event>
12    1  0.8407180E-002  0.2190287E+03  0.7818608E-02  0.1134813E+00
         21   -1    0    0  503  502  0.00000000000E+00  0.00000000000E+00  0.10081171146E+04  0.10081171146E+04  0.00000000000E+00 0.  1.
         21   -1    0    0  501  503 -0.00000000000E+00 -0.00000000000E+00 -0.49672451877E+02  0.49672451877E+02  0.00000000000E+00 0. -1.
          6    2    1    2  501    0 -0.92678618461E+02 -0.97011311561E+02  0.59467783377E+03  0.63373126410E+03  0.17312731798E+03 0.  0.
         24    2    3    3    0    0 -0.53869399000E+00 -0.13544497796E+02  0.13607371245E+03  0.15855097751E+03  0.80240972297E+02 0.  0.
         -6    2    1    2    0  502  0.92678618461E+02  0.97011311561E+02  0.36376682899E+03  0.42405830242E+03  0.17175161449E+03 0.  0.
        -24    2    5    5    0    0  0.97651809383E+02  0.43965125707E+02  0.13816625992E+03  0.19220417321E+03  0.79898189378E+02 0.  0.
          5    1    3    3  501    0 -0.92139924471E+02 -0.83466813765E+02  0.45860412132E+03  0.47518028660E+03  0.47000000000E+01 0. -1.
        -11    1    4    4    0    0  0.32014521373E+02 -0.28294097160E+02  0.52724754881E+02  0.67862989104E+02  0.00000000000E+00 0.  1.
         12    1    4    4    0    0 -0.32553215363E+02  0.14749599364E+02  0.83348957573E+02  0.90687988402E+02  0.00000000000E+00 0. -1.
         -5    1    5    5    0  502 -0.49731909218E+01  0.53046185854E+02  0.22560056908E+03  0.23185412921E+03  0.47000000000E+01 0.  1.
         13    1    6    6    0    0 -0.20440853167E+01  0.19399236969E+02 -0.67761918963E+00  0.19518397668E+02  0.00000000000E+00 0. -1.
        -14    1    6    6    0    0  0.99695894700E+02  0.24565888738E+02  0.13884387911E+03  0.17268577554E+03  0.00000000000E+00 0.  1.
</event>
<event>
12    1  0.8407180E-002  0.2151182E+03  0.7818608E-02  0.1137757E+00
         21   -1    0    0  503  502  0.00000000000E+00  0.00000000000E+00  0.14294994168E+03  0.14294994168E+03  0.00000000000E+00 0.  1.
         21   -1    0    0  501  503 -0.00000000000E+00 -0.00000000000E+00 -0.80264156724E+03  0.80264156724E+03  0.00000000000E+00 0. -1.
          6    2    1    2  501    0  0.53642524331E+02  0.11759186926E+03 -0.69530608182E+03  0.72754512090E+03  0.17078052404E+03 0.  0.
         24    2    3    3    0    0  0.80266771647E+02  0.27849603514E+02 -0.31759863847E+03  0.33838252305E+03  0.80096702150E+02 0.  0.
         -6    2    1    2    0  502 -0.53642524331E+02 -0.11759186926E+03  0.35614456262E+02  0.21804638802E+03  0.17196066324E+03 0.  0.
        -24    2    5    5    0    0 -0.31952079877E+02 -0.12505347646E+02 -0.28456198274E+02  0.92983239259E+02  0.81601522257E+02 0.  0.
          5    1    3    3  501    0 -0.26624247316E+02  0.89742265749E+02 -0.37770744335E+03  0.38916259785E+03  0.47000000000E+01 0. -1.
        -13    1    4    4    0    0  0.39656525140E+01  0.38633253428E+02 -0.87741041277E+02  0.95951784739E+02  0.00000000000E+00 0.  1.
         14    1    4    4    0    0  0.76301119133E+02 -0.10783649913E+02 -0.22985759720E+03  0.24243073831E+03  0.00000000000E+00 0. -1.
         -5    1    5    5    0  502 -0.21690444454E+02 -0.10508652162E+03  0.64070654536E+02  0.12506314876E+03  0.47000000000E+01 0.  1.
         11    1    6    6    0    0  0.12835893050E+02  0.11635622002E+02  0.17352260189E+02  0.24520374863E+02  0.00000000000E+00 0. -1.
        -12    1    6    6    0    0 -0.44787972927E+02 -0.24140969649E+02 -0.45808458463E+02  0.68462864395E+02  0.00000000000E+00 0.  1.
</event>
<event>
12    1  0.8407180E-002  0.1731729E+03  0.7818608E-02  0.1175313E+00
         21   -1    0    0  501  502  0.00000000000E+00  0.00000000000E+00  0.24499675845E+03  0.24499675845E+03  0.00000000000E+00 0.  1.
         21   -1    0    0  502  503 -0.00000000000E+00 -0.00000000000E+00 -0.24142315293E+03  0.24142315293E+03  0.00000000000E+00 0.  1.
         -6    2    1    2    0  503 -0.14192042878E+02 -0.12068418536E+02 -0.17040628304E+03  0.24295505041E+03  0.17216792504E+03 0.  0.
        -24    2    3    3    0    0 -0.62938105120E+02  0.27771500143E+02 -0.10213663087E+03  0.14996992734E+03  0.85595715107E+02 0.  0.
          6    2    1    2  501    0  0.14192042878E+02  0.12068418536E+02  0.17397988855E+03  0.24346486097E+03  0.16928991731E+03 0.  0.
         24    2    5    5    0    0  0.57970508866E+02 -0.14773866930E+01  0.17167216227E+03  0.19734047996E+03  0.78161187061E+02 0.  0.
          5    1    5    5  501    0 -0.43778465988E+02  0.13545805229E+02  0.23077262854E+01  0.46124381017E+02  0.47000000000E+01 0. -1.
        -13    1    6    6    0    0 -0.17398228633E+02 -0.11329079745E+02  0.28743919911E+02  0.35457852999E+02  0.00000000000E+00 0.  1.
         14    1    6    6    0    0  0.75368737499E+02  0.98516930517E+01  0.14292824235E+03  0.16188262696E+03  0.00000000000E+00 0. -1.
         -5    1    3    3    0  503  0.48746062243E+02 -0.39839918679E+02 -0.68269652169E+02  0.92985123067E+02  0.47000000000E+01 0.  1.
         11    1    4    4    0    0 -0.34092696266E+02  0.30648818537E+02 -0.21811465805E+01  0.45895745083E+02  0.00000000000E+00 0. -1.
        -12    1    4    4    0    0 -0.28845408855E+02 -0.28773183937E+01 -0.99955484286E+02  0.10407418226E+03  0.00000000000E+00 0.  1.
</event>
<event>
12    1  0.8407180E-002  0.2177301E+03  0.7818608E-02  0.1135826E+00
         21   -1    0    0  501  502  0.00000000000E+00  0.00000000000E+00  0.28390767652E+03  0.28390767652E+03  0.00000000000E+00 0.  1.
         21   -1    0    0  502  503 -0.00000000000E+00 -0.00000000000E+00 -0.36434272542E+03  0.36434272542E+03  0.00000000000E+00 0. -1.
         -6    2    1    2    0  503 -0.73405732320E+02 -0.10974946848E+03 -0.27930464180E+03  0.35336822237E+03  0.17153620692E+03 0.  0.
        -24    2    3    3    0    0 -0.64873122708E+02 -0.33866567990E+02 -0.25176416234E+03  0.27205655026E+03  0.72623044715E+02 0.  0.
          6    2    1    2  501    0  0.73405732320E+02  0.10974946848E+03  0.19886959290E+03  0.29488217956E+03  0.17312722915E+03 0.  0.
         24    2    5    5    0    0  0.11125902319E+03  0.11103457654E+03  0.14159870543E+03  0.22605945305E+03  0.79658241908E+02 0.  0.
          5    1    5    5  501    0 -0.37853290874E+02 -0.12851080655E+01  0.57270887470E+02  0.68822726511E+02  0.47000000000E+01 0. -1.
        -13    1    6    6    0    0  0.31836202329E+02  0.51669366283E+02  0.10320795584E+03  0.11972948400E+03  0.00000000000E+00 0.  1.
         14    1    6    6    0    0  0.79422820864E+02  0.59365210258E+02  0.38390749585E+02  0.10632996904E+03  0.00000000000E+00 0. -1.
         -5    1    3    3    0  503 -0.85326096115E+01 -0.75882900485E+02 -0.27540479455E+02  0.81311672111E+02  0.47000000000E+01 0.  1.
         11    1    4    4    0    0 -0.52959723887E+02 -0.22220564013E+02 -0.74778250843E+02  0.94288242206E+02  0.00000000000E+00 0. -1.
        -12    1    4    4    0    0 -0.11913398822E+02 -0.11646003978E+02 -0.17698591150E+03  0.17776830806E+03  0.00000000000E+00 0.  1.
</event>
<event>
12    1  0.8407180E-002  0.4186965E+03  0.7818608E-02  0.1037693E+00
         21   -1    0    0  501  502  0.00000000000E+00  0.00000000000E+00  0.13362467186E+04  0.13362467186E+04  0.00000000000E+00 0. -1.
         21   -1    0    0  502  503 -0.00000000000E+00 -0.00000000000E+00 -0.23174976246E+03  0.23174976246E+03  0.00000000000E+00 0. -1.
         -6    2    1    2    0  503 -0.31797331832E+03  0.20640007160E+03  0.34762786718E+02  0.42013715459E+03  0.17776039099E+03 0.  0.
        -24    2    3    3    0    0 -0.19839371009E+03  0.20078107310E+03 -0.45268913775E+01  0.29405533728E+03  0.82310054816E+02 0.  0.
          6    2    1    2  501    0  0.31797331832E+03 -0.20640007160E+03  0.10697341694E+04  0.11478593264E+04  0.17187733825E+03 0.  0.
         24    2    5    5    0    0  0.31244710058E+03 -0.17452380067E+03  0.10443403120E+04  0.11064639919E+04  0.74391736009E+02 0.  0.
          5    1    5    5  501    0  0.55262177445E+01 -0.31876270928E+02  0.25393857408E+02  0.41395334579E+02  0.47000000000E+01 0. -1.
        -11    1    6    6    0    0  0.23778110514E+03 -0.93966285432E+02  0.72494564386E+03  0.76871041577E+03  0.00000000000E+00 0.  1.
         12    1    6    6    0    0  0.74665995443E+02 -0.80557515242E+02  0.31939466812E+03  0.33775357609E+03  0.00000000000E+00 0. -1.
         -5    1    3    3    0  503 -0.11957960824E+03  0.56189985062E+01  0.39289678096E+02  0.12608181731E+03  0.47000000000E+01 0.  1.
         11    1    4    4    0    0 -0.16876855716E+03  0.12300521965E+03  0.12084173601E+02  0.20918684758E+03  0.00000000000E+00 0. -1.
        -12    1    4    4    0    0 -0.29625152922E+02  0.77775853448E+02 -0.16611064979E+02  0.84868489706E+02  0.00000000000E+00 0.  1.
</event>
<event>
12    1  0.8407180E-002  0.1961790E+03  0.7818608E-02  0.1154773E+00
         21   -1    0    0  501  502  0.00000000000E+00  0.00000000000E+00  0.40263142129E+03  0.40263142129E+03  0.00000000000E+00 0. -1.
         21   -1    0    0  502  503 -0.00000000000E+00 -0.00000000000E+00 -0.19638708604E+03  0.19638708604E+03  0.00000000000E+00 0. -1.
         -6    2    1    2    0  503  0.27284185014E+02  0.85775828575E+02 -0.11650470226E+03  0.22132401739E+03  0.16525451735E+03 0.  0.
        -24    2    3    3    0    0  0.76288540100E+02  0.36505255054E+02 -0.87577772270E+02  0.14590602543E+03  0.80412232057E+02 0.  0.
          6    2    1    2  501    0 -0.27284185014E+02 -0.85775828575E+02  0.32274903752E+03  0.37769448994E+03  0.17431083442E+03 0.  0.
         24    2    5    5    0    0 -0.46231521628E+01  0.19057408706E+02  0.94613125162E+02  0.12556036977E+03  0.80182321252E+02 0.  0.
          5    1    5    5  501    0 -0.22661032851E+02 -0.10483323728E+03  0.22813591235E+03  0.25213412017E+03  0.47000000000E+01 0. -1.
        -13    1    6    6    0    0  0.16477988410E+02  0.45550004467E+02  0.50947988631E+02  0.70299534526E+02  0.00000000000E+00 0.  1.
         14    1    6    6    0    0 -0.21101140573E+02 -0.26492595761E+02  0.43665136531E+02  0.55260835244E+02  0.00000000000E+00 0. -1.
         -5    1    3    3    0  503 -0.49004355085E+02  0.49270573521E+02 -0.28926929993E+02  0.75417991959E+02  0.47000000000E+01 0.  1.
         11    1    4    4    0    0 -0.15922578454E+02  0.14525843867E+02 -0.20796391445E+02  0.29950267809E+02  0.00000000000E+00 0. -1.
        -12    1    4    4    0    0  0.92211118554E+02  0.21979411187E+02 -0.66781380825E+02  0.11595575762E+03  0.00000000000E+00 0.  1.
</event>
<event>
12    1  0.8407180E-002  0.1828769E+03  0.7818608E-02  0.1165117E+00
         21   -1    0    0  501  502  0.00000000000E+00  0.00000000000E+00  0.11308152017E+04  0.11308152017E+04  0.00000000000E+00 0.  1.
         21   -1    0    0  502  503 -0.00000000000E+00 -0.00000000000E+00 -0.30064031297E+02  0.30064031297E+02  0.00000000000E+00 0.  1.
         -6    2    1    2    0  503 -0.35860168577E+02 -0.50133549412E+02  0.62746162113E+03  0.65348690862E+03  0.17186543948E+03 0.  0.
        -24    2    3    3    0    0 -0.62759719557E+02 -0.74088634525E+02  0.32015234284E+03  0.34403818191E+03  0.80229918480E+02 0.  0.
          6    2    1    2  501    0  0.35860168577E+02  0.50133549412E+02  0.47328954923E+03  0.50739232432E+03  0.17217621470E+03 0.  0.
         24    2    5    5    0    0  0.61734457905E+02  0.24279071304E+02  0.45443442840E+03  0.46597326509E+03  0.78865819392E+02 0.  0.
          5    1    5    5  501    0 -0.25874289328E+02  0.25854478107E+02  0.18855120829E+02  0.41419059235E+02  0.47000000000E+01 0. -1.
        -11    1    6    6    0    0  0.54853460744E+02 -0.17876923924E+02  0.20747022910E+03  0.21534247730E+03  0.00000000000E+00 0.  1.
         12    1    6    6    0    0  0.68809971609E+01  0.42155995229E+02  0.24696419930E+03  0.25063078779E+03  0.00000000000E+00 0. -1.
         -5    1    3    3    0  503  0.26899550980E+02  0.23955085114E+02  0.30730927829E+03  0.30944872672E+03  0.47000000000E+01 0.  1.
         11    1    4    4    0    0  0.23605661799E+01 -0.53651856888E+02  0.18489185885E+03  0.19253335683E+03  0.00000000000E+00 0. -1.
        -12    1    4    4    0    0 -0.65120285737E+02 -0.20436777637E+02  0.13526048399E+03  0.15150482508E+03  0.00000000000E+00 0.  1.
</event>
<event>
12    1  0.8407180E-002  0.1879965E+03  0.7818608E-02  0.1160296E+00
         21   -1    0    0  503  502  0.00000000000E+00  0.00000000000E+00  0.70342412402E+03  0.70342412402E+03  0.00000000000E+00 0.  1.
         21   -1    0    0  501  503 -0.00000000000E+00 -0.00000000000E+00 -0.50793416699E+02  0.50793416699E+02  0.00000000000E+00 0. -1.
          6    2    1    2  501    0 -0.24496210721E+02  0.71971011420E+02  0.28650922474E+03  0.34268090307E+03  0.17193828731E+03 0.  0.
         24    2    3    3    0    0 -0.58556648642E+02  0.92355470963E+02  0.25941460361E+03  0.29439168981E+03  0.86093648727E+02 0.  0.
         -6    2    1    2    0  502  0.24496210721E+02 -0.71971011420E+02  0.36612148259E+03  0.41153663765E+03  0.17186498566E+03 0.  0.
        -24    2    5    5    0    0  0.45358241559E+02 -0.85276663858E+02  0.15625281709E+03  0.20016206143E+03  0.79501122703E+02 0.  0.
          5    1    3    3  501    0  0.34060437921E+02 -0.20384459543E+02  0.27094621132E+02  0.48289213252E+02  0.47000000000E+01 0. -1.
        -11    1    4    4    0    0  0.80290839586E+01  0.43660873483E+02  0.15551380548E+03  0.16172594645E+03  0.00000000000E+00 0.  1.
         12    1    4    4    0    0 -0.66585732601E+02  0.48694597479E+02  0.10390079813E+03  0.13266574336E+03  0.00000000000E+00 0. -1.
         -5    1    5    5    0  502 -0.20862030837E+02  0.13305652438E+02  0.20986866549E+03  0.21137457622E+03  0.47000000000E+01 0.  1.
         13    1    6    6    0    0 -0.13729175522E+02  0.24640015538E+01  0.35398357577E+01  0.14390691483E+02  0.00000000000E+00 0. -1.
        -14    1    6    6    0    0  0.59087417081E+02 -0.87740665412E+02  0.15271298133E+03  0.18577136995E+03  0.00000000000E+00 0.  1.
</event>
<event>
12    1  0.8407180E-002  0.1953353E+03  0.7818608E-02  0.1155212E+00
         21   -1    0    0  503  502  0.00000000000E+00  0.00000000000E+00  0.71253903535E+02  0.71253903535E+02  0.00000000000E+00 0.  1.
         21   -1    0    0  501  503 -0.00000000000E+00 -0.00000000000E+00 -0.54267423625E+03  0.54267423625E+03  0.00000000000E+00 0.  1.
          6    2    1    2  501    0 -0.62806039378E+02  0.57020615392E+02 -0.30586781245E+03  0.36292007762E+03  0.17595429772E+03 0.  0.
         24    2    3    3    0    0  0.21059086167E+02  0.65398801562E+02 -0.12385100158E+03  0.16228168966E+03  0.79219870297E+02 0.  0.
         -6    2    1    2    0  502  0.62806039378E+02 -0.57020615392E+02 -0.16555252027E+03  0.25100806216E+03  0.16852733055E+03 0.  0.
        -24    2    5    5    0    0  0.74376288768E+02  0.21582523324E+02 -0.81383370539E+02  0.13516825962E+03  0.75163606652E+02 0.  0.
          5    1    3    3  501    0 -0.83865125545E+02 -0.83781861697E+01 -0.18201681087E+03  0.20063838796E+03  0.47000000000E+01 0. -1.
        -11    1    4    4    0    0  0.25171852611E+02  0.23640009011E+02 -0.33623059909E+01  0.34695493821E+02  0.00000000000E+00 0.  1.
         12    1    4    4    0    0 -0.41127664437E+01  0.41758792551E+02 -0.12048869559E+03  0.12758619584E+03  0.00000000000E+00 0. -1.
         -5    1    5    5    0  502 -0.11570249390E+02 -0.78603138717E+02 -0.84169149727E+02  0.11583980254E+03  0.47000000000E+01 0.  1.
         11    1    6    6    0    0  0.14871520359E+02  0.27865668137E+02  0.29950406506E+01  0.31727398995E+02  0.00000000000E+00 0. -1.
        -12    1    6    6    0    0  0.59504768409E+02 -0.62831448129E+01 -0.84378411190E+02  0.10344086063E+03  0.00000000000E+00 0.  1.
</event>
<event>
12    1  0.8407180E-002  0.1981121E+03  0.7818608E-02  0.1151475E+00
         21   -1    0    0  503  502  0.00000000000E+00  0.00000000000E+00  0.81149481747E+02  0.81149481747E+02  0.00000000000E+00 0.  1.
         21   -1    0    0  501  503 -0.00000000000E+00 -0.00000000000E+00 -0.53315929374E+03  0.53315929374E+03  0.00000000000E+00 0. -1.
          6    2    1    2  501    0  0.14456477823E+02  0.95657315552E+02 -0.13066391406E+03  0.23680168883E+03  0.17217046677E+03 0.  0.
         24    2    3    3    0    0  0.16244027727E+02  0.20882871484E+02  0.65744133801E+00  0.85600494382E+02  0.81406692914E+02 0.  0.
         -6    2    1    2    0  502 -0.14456477823E+02 -0.95657315552E+02 -0.32134589794E+03  0.37750708666E+03  0.17288465110E+03 0.  0.
        -24    2    5    5    0    0 -0.76589691466E+02 -0.61587046700E+02 -0.19685903324E+03  0.23418790113E+03  0.80196938273E+02 0.  0.
          5    1    3    3  501    0 -0.17875499038E+01  0.74774444068E+02 -0.13132135540E+03  0.15120119445E+03  0.47000000000E+01 0. -1.
        -13    1    4    4    0    0  0.42968304018E+02  0.57527929253E+01  0.21594560735E+02  0.48432373780E+02  0.00000000000E+00 0.  1.
         14    1    4    4    0    0 -0.26724276291E+02  0.15130078559E+02 -0.20937119397E+02  0.37168120602E+02  0.00000000000E+00 0. -1.
         -5    1    5    5    0  502  0.62133213643E+02 -0.34070268852E+02 -0.12448686470E+03  0.14331918552E+03  0.47000000000E+01 0.  1.
         11    1    6    6    0    0  0.12796981087E+02 -0.28260684444E+02 -0.56928247637E+02  0.64832510280E+02  0.00000000000E+00 0. -1.
        -12    1    6    6    0    0 -0.89386672553E+02 -0.33326362256E+02 -0.13993078560E+03  0.16935539085E+03  0.00000000000E+00 0.  1.
</event>
<event>
12    1  0.8407180E-002  0.1868660E+03  0.7818608E-02  0.1165294E+00
         21   -1    0    0  501  502  0.00000000000E+00  0.00000000000E+00  0.54921266227E+02  0.54921266227E+02  0.00000000000E+00 0. -1.
         21   -1    0    0  502  503 -0.00000000000E+00 -0.00000000000E+00 -0.17918969640E+04  0.17918969640E+04  0.00000000000E+00 0. -1.
         -6    2    1    2    0  503  0.72005524306E+02 -0.74798179136E+01 -0.12265455224E+03  0.22352417408E+03  0.17227354412E+03 0.  0.
        -24    2    3    3    0    0  0.16170038609E+02 -0.57498698817E+02 -0.10529373021E+03  0.14643346094E+03  0.82391858504E+02 0.  0.
          6    2    1    2  501    0 -0.72005524306E+02  0.74798179136E+01 -0.16143211455E+04  0.16232940561E+04  0.15430518011E+03 0.  0.
         24    2    5    5    0    0 -0.12363308043E+02 -0.16674254665E+02 -0.12953010471E+04  0.12978151376E+04  0.78028499561E+02 0.  0.
          5    1    5    5  501    0 -0.59642216262E+02  0.24154072578E+02 -0.31902009846E+03  0.32547891852E+03  0.47000000000E+01 0. -1.
        -13    1    6    6    0    0 -0.35747385799E+02 -0.61203042888E+01 -0.30011313251E+03  0.30229658619E+03  0.00000000000E+00 0.  1.
         14    1    6    6    0    0  0.23384077756E+02 -0.10553950376E+02 -0.99518791456E+03  0.99551855143E+03  0.00000000000E+00 0. -1.
         -5    1    3    3    0  503  0.55835485696E+02  0.50018880903E+02 -0.17360822027E+02  0.77090713132E+02  0.47000000000E+01 0.  1.
         11    1    4    4    0    0 -0.22166136161E+02 -0.25042884938E+02 -0.44055336765E+01  0.33732660810E+02  0.00000000000E+00 0. -1.
        -12    1    4    4    0    0  0.38336174771E+02 -0.32455813879E+02 -0.10088819654E+03  0.11270080013E+03  0.00000000000E+00 0.  1.
</event>
<event>
12    1  0.8407180E-002  0.1814582E+03  0.7818608E-02  0.1167935E+00
         21   -1    0    0  503  502  0.00000000000E+00  0.00000000000E+00  0.94753894491E+02  0.94753894491E+02  0.00000000000E+00 0.  1.
         21   -1    0    0  501  503 -0.00000000000E+00 -0.00000000000E+00 -0.20911148171E+04  0.20911148171E+04  0.00000000000E+00 0.  1.
          6    2    1    2  501    0 -0.56112324652E+02 -0.17878572185E+02 -0.20023946344E+04  0.20105997511E+04  0.17163580843E+03 0.  0.
         24    2    3    3    0    0 -0.28843346130E+02  0.46514427556E+02 -0.88619644939E+03  0.89220333929E+03  0.87676229133E+02 0.  0.
         -6    2    1    2    0  502  0.56112324652E+02  0.17878572185E+02  0.60337118122E+01  0.17526896052E+03  0.16496838037E+03 0.  0.
        -24    2    5    5    0    0  0.32072373357E+02 -0.39510277946E+02  0.40809604580E+02  0.10383471036E+03  0.80786905212E+02 0.  0.
          5    1    3    3  501    0 -0.27268978522E+02 -0.64392999741E+02 -0.11161981851E+04  0.11183964118E+04  0.47000000000E+01 0. -1.
        -13    1    4    4    0    0 -0.43067143234E+02  0.24059974843E+01 -0.65435082360E+03  0.65577097221E+03  0.00000000000E+00 0.  1.
         14    1    4    4    0    0  0.14223797104E+02  0.44108430072E+02 -0.23184562579E+03  0.23643236708E+03  0.00000000000E+00 0. -1.
         -5    1    5    5    0  502  0.24039951295E+02  0.57388850131E+02 -0.34775892767E+02  0.71434250156E+02  0.47000000000E+01 0.  1.
         13    1    6    6    0    0  0.24977795801E+02 -0.49912663750E+02 -0.52736413988E+01  0.56062247362E+02  0.00000000000E+00 0. -1.
        -14    1    6    6    0    0  0.70945775552E+01  0.10402385804E+02  0.46083245979E+02  0.47772462999E+02  0.00000000000E+00 0.  1.
</event>
<event>
12    1  0.8407180E-002  0.1838367E+03  0.7818608E-02  0.1164410E+00
         21   -1    0    0  501  502  0.00000000000E+00  0.00000000000E+00  0.11584718416E+03  0.11584718416E+03  0.00000000000E+00 0.  1.
         21   -1    0    0  502  503 -0.00000000000E+00 -0.00000000000E+00 -0.39330740002E+03  0.39330740002E+03  0.00000000000E+00 0.  1.
         -6    2    1    2    0  503  0.43243575776E+02  0.43674032296E+02 -0.26893437233E+03  0.32512024832E+03  0.17204665445E+03 0.  0.
        -24    2    3    3    0    0 -0.65213825133E+00  0.74639222837E+02 -0.10009237245E+03  0.14787638338E+03  0.79230693986E+02 0.  0.
          6    2    1    2  501    0 -0.43243575776E+02 -0.43674032296E+02 -0.85258435284E+01  0.18403433586E+03  0.17325853175E+03 0.  0.
         24    2    5    5    0    0 -0.19777571164E+02 -0.60224462275E+02 -0.63135488052E+02  0.12215644498E+03  0.83174329096E+02 0.  0.
          5    1    5    5  501    0 -0.23466004612E+02  0.16550429979E+02  0.54609644524E+02  0.61877890882E+02  0.47000000000E+01 0. -1.
        -11    1    6    6    0    0  0.60840054301E+01 -0.77980962830E+01  0.18953941618E+02  0.21379366936E+02  0.00000000000E+00 0.  1.
         12    1    6    6    0    0 -0.25861576594E+02 -0.52426365992E+02 -0.82089429671E+02  0.10077707804E+03  0.00000000000E+00 0. -1.
         -5    1    3    3    0  503  0.43895714027E+02 -0.30965190541E+02 -0.16884199988E+03  0.17724386494E+03  0.47000000000E+01 0.  1.
         13    1    4    4    0    0  0.32473673752E+02  0.38723567845E+02 -0.20612593128E+02  0.54579604149E+02  0.00000000000E+00 0. -1.
        -14    1    4    4    0    0 -0.33125812003E+02  0.35915654992E+02 -0.79479779319E+02  0.93296779231E+02  0.00000000000E+00 0.  1.
</event>
<event>
12    1  0.8407180E-002  0.2123156E+03  0.7818608E-02  0.1139971E+00
         21   -1    0    0  503  502  0.00000000000E+00  0.00000000000E+00  0.27261047645E+03  0.27261047645E+03  0.00000000000E+00 0. -1.
         21   -1    0    0  501  503 -0.00000000000E+00 -0.00000000000E+00 -0.19569239161E+03  0.19569239161E+03  0.00000000000E+00 0.  1.
          6    2    1    2  501    0  0.61390075453E+02 -0.10747295412E+03 -0.54999074174E+02  0.21932353327E+03  0.17250720813E+03 0.  0.
         24    2    3    3    0    0 -0.10082656621E+02 -0.16006507761E+02 -0.63857944315E+02  0.10281159474E+03  0.78323168387E+02 0.  0.
         -6    2    1    2    0  502 -0.61390075453E+02  0.10747295412E+03  0.13191715902E+03  0.24897933479E+03  0.17108300640E+03 0.  0.
        -24    2    5    5    0    0  0.42990235212E+01  0.41043571314E+02  0.12625253701E+03  0.15526648313E+03  0.80404734505E+02 0.  0.
          5    1    3    3  501    0  0.71472732073E+02 -0.91466446358E+02  0.88588701405E+01  0.11651193853E+03  0.47000000000E+01 0. -1.
        -13    1    4    4    0    0 -0.42465391729E+02 -0.19976335265E+02 -0.45552717555E+02  0.65401938366E+02  0.00000000000E+00 0.  1.
         14    1    4    4    0    0  0.32382735108E+02  0.39698275042E+01 -0.18305226759E+02  0.37409656377E+02  0.00000000000E+00 0. -1.
         -5    1    5    5    0  502 -0.65689098974E+02  0.66429382806E+02  0.56646220024E+01  0.93712851661E+02  0.47000000000E+01 0.  1.
         11    1    6    6    0    0 -0.35294557438E+02  0.57372046776E+01  0.37116779342E+02  0.51539078484E+02  0.00000000000E+00 0. -1.
        -12    1    6    6    0    0  0.39593580959E+02  0.35306366636E+02  0.89135757672E+02  0.10372740464E+03  0.00000000000E+00 0.  1.
</event>
<event>
12    1  0.8407180E-002  0.2518545E+03  0.7818608E-02  0.1112147E+00
         21   -1    0    0  503  502  0.00000000000E+00  0.00000000000E+00  0.21397632269E+03  0.21397632269E+03  0.00000000000E+00 0. -1.
         21   -1    0    0  501  503 -0.00000000000E+00 -0.00000000000E+00 -0.32905664295E+03  0.32905664295E+03  0.00000000000E+00 0.  1.
          6    2    1    2  501    0  0.21229841283E+01 -0.18362831278E+03 -0.14311712474E+03  0.28967778559E+03  0.17235673400E+03 0.  0.
         24    2    3    3    0    0  0.21153564095E+02 -0.78124170561E+02 -0.19251291485E+02  0.12579330906E+03  0.94352981307E+02 0.  0.
         -6    2    1    2    0  502 -0.21229841283E+01  0.18362831278E+03  0.28036804482E+02  0.25335518004E+03  0.17227571080E+03 0.  0.
        -24    2    5    5    0    0  0.14793562121E+02  0.15092502373E+03 -0.39445654508E+02  0.17633799415E+03  0.80882113306E+02 0.  0.
          5    1    3    3  501    0 -0.19030579967E+02 -0.10550414222E+03 -0.12386583326E+03  0.16388447653E+03  0.47000000000E+01 0. -1.
        -11    1    4    4    0    0 -0.25364749772E+02 -0.59053276292E+02 -0.34904963669E+02  0.73136970545E+02  0.00000000000E+00 0.  1.
         12    1    4    4    0    0  0.46518313867E+02 -0.19070894269E+02  0.15653672185E+02  0.52656338518E+02  0.00000000000E+00 0. -1.
         -5    1    5    5    0  502 -0.16916546250E+02  0.32703289049E+02  0.67482458990E+02  0.77017185893E+02  0.47000000000E+01 0.  1.
         11    1    6    6    0    0  0.14840975135E+02 -0.14847266881E+00  0.93954843238E+01  0.17565640118E+02  0.00000000000E+00 0. -1.
        -12    1    6    6    0    0 -0.47413013516E-01  0.15107349640E+03 -0.48841138831E+02  0.15877235403E+03  0.00000000000E+00 0.  1.
</event>
<event>
12    1  0.8407180E-002  0.2069444E+03  0.7818608E-02  0.1144146E+00
         21   -1    0    0  501  502  0.00000000000E+00  0.00000000000E+00  0.10681726418E+03  0.10681726418E+03  0.00000000000E+00 0.  1.
         21   -1    0    0  502  503 -0.00000000000E+00 -0.00000000000E+00 -0.70958260981E+03  0.70958260981E+03  0.00000000000E+00 0.  1.
         -6    2    1    2    0  503  0.14567859361E+02 -0.11399345470E+03 -0.57145318006E+03  0.60777028304E+03  0.17210243958E+03 0.  0.
        -24    2    3    3    0    0  0.23922903310E+01 -0.84182518075E+02 -0.17764175913E+03  0.21261656399E+03  0.80974003820E+02 0.  0.
          6    2    1    2  501    0 -0.14567859361E+02  0.11399345470E+03 -0.31312165575E+02  0.20862959095E+03  0.17128667277E+03 0.  0.
         24    2    5    5    0    0 -0.35242485963E+02  0.19325736807E+01 -0.37186750148E+02  0.94429407138E+02  0.79298744555E+02 0.  0.
          5    1    5    5  501    0  0.20674626602E+02  0.11206088102E+03  0.58745845727E+01  0.11420018382E+03  0.47000000000E+01 0. -1.
        -11    1    6    6    0    0 -0.14088635937E+02  0.30980053718E+02  0.96700485877E+01  0.35380266118E+02  0.00000000000E+00 0.  1.
         12    1    6    6    0    0 -0.21153850026E+02 -0.29047480037E+02 -0.46856798736E+02  0.59049141020E+02  0.00000000000E+00 0. -1.
         -5    1    3    3    0  503  0.12175569030E+02 -0.29810936624E+02 -0.39381142093E+03  0.39515371905E+03  0.47000000000E+01 0.  1.
         13    1    4    4    0    0  0.25399400919E+02 -0.74292206812E+02 -0.16861129707E+03  0.18599524472E+03  0.00000000000E+00 0. -1.
        -14    1    4    4    0    0 -0.23007110588E+02 -0.98903112625E+01 -0.90304620556E+01  0.26621319265E+02  0.00000000000E+00 0.  1.
</event>
<event>
12    1  0.8407180E-002  0.2528268E+03  0.7818608E-02  0.1111546E+00
         21   -1    0    0  503  502  0.00000000000E+00  0.00000000000E+00  0.19559510362E+03  0.19559510362E+03  0.00000000000E+00 0. -1.
         21   -1    0    0  501  503 -0.00000000000E+00 -0.00000000000E+00 -0.43221762041E+03  0.43221762041E+03  0.00000000000E+00 0. -1.
          6    2    1    2  501    0 -0.96123972650E+02 -0.15886932311E+03 -0.27344026262E+03  0.37241238653E+03  0.17158708715E+03 0.  0.
         24    2    3    3    0    0 -0.71505752754E+02 -0.72157679229E+02 -0.24594868360E+03  0.27805750933E+03  0.80656185002E+02 0.  0.
         -6    2    1    2    0  502  0.96123972650E+02  0.15886932311E+03  0.36817745828E+02  0.25540033750E+03  0.17144826054E+03 0.  0.
        -24    2    5    5    0    0  0.77509139125E+02  0.68205574481E+02  0.79653872705E+02  0.15330503345E+03  0.80610339323E+02 0.  0.
          5    1    3    3  501    0 -0.24618219897E+02 -0.86711643882E+02 -0.27491579018E+02  0.94354877206E+02  0.47000000000E+01 0. -1.
        -11    1    4    4    0    0 -0.30805247139E+02 -0.30559040378E+02 -0.26099927653E+02  0.50636196773E+02  0.00000000000E+00 0.  1.
         12    1    4    4    0    0 -0.40700505615E+02 -0.41598638851E+02 -0.21984875595E+03  0.22742131255E+03  0.00000000000E+00 0. -1.
         -5    1    5    5    0  502  0.18614833525E+02  0.90663748630E+02 -0.42836126877E+02  0.10209530405E+03  0.47000000000E+01 0.  1.
         11    1    6    6    0    0  0.41746025351E+01 -0.13653341644E+02  0.28928776389E+02  0.32260116983E+02  0.00000000000E+00 0. -1.
        -12    1    6    6    0    0  0.73334536590E+02  0.81858916125E+02  0.50725096315E+02  0.12104491647E+03  0.00000000000E+00 0.  1.
</event>
<event>
12    1  0.8407180E-002  0.1860065E+03  0.7818608E-02  0.1162687E+00
         21   -1    0    0  503  502  0.00000000000E+00  0.00000000000E+00  0.60836229011E+02  0.60836229011E+02  0.00000000000E+00 0.  1.
         21   -1    0    0  501  503 -0.00000000000E+00 -0.00000000000E+00 -0.91083756423E+03  0.91083756423E+03  0.00000000000E+00 0.  1.
          6    2    1    2  501    0 -0.53709972730E+02  0.40614154297E+02 -0.72773862000E+03  0.75113376549E+03  0.17339020710E+03 0.  0.
         24    2    3    3    0    0  0.26391654412E+02  0.39326602677E+02 -0.52342012384E+03  0.53162051684E+03  0.80054024147E+02 0.  0.
         -6    2    1    2    0  502  0.53709972730E+02 -0.40614154297E+02 -0.12226271522E+03  0.22054002775E+03  0.17074970456E+03 0.  0.
        -24    2    5    5    0    0  0.36307101052E+02 -0.92727839210E+02 -0.95056824381E+02  0.15905062546E+03  0.79653272666E+02 0.  0.
          5    1    3    3  501    0 -0.80101627142E+02  0.12875516203E+01 -0.20431849616E+03  0.21951324865E+03  0.47000000000E+01 0. -1.
        -11    1    4    4    0    0  0.12561852570E+02  0.54061601715E+02 -0.19967172015E+03  0.20724201491E+03  0.00000000000E+00 0.  1.
         12    1    4    4    0    0  0.13829801842E+02 -0.14734999038E+02 -0.32374840370E+03  0.32437850193E+03  0.00000000000E+00 0. -1.
         -5    1    5    5    0  502  0.17402871678E+02  0.52113684912E+02 -0.27205890836E+02  0.61489402290E+02  0.47000000000E+01 0.  1.
         11    1    6    6    0    0 -0.14997753403E+02 -0.39443970178E+02 -0.49751045679E+01  0.42491305652E+02  0.00000000000E+00 0. -1.
        -12    1    6    6    0    0  0.51304854455E+02 -0.53283869032E+02 -0.90081719813E+02  0.11655931981E+03  0.00000000000E+00 0.  1.
</event>
<event>
12    1  0.8407180E-002  0.1947281E+03  0.7818608E-02  0.1154364E+00
         21   -1    0    0  501  502  0.00000000000E+00  0.00000000000E+00  0.59083695158E+03  0.59083695158E+03  0.00000000000E+00 0. -1.
         21   -1    0    0  502  503 -0.00000000000E+00 -0.00000000000E+00 -0.70157681669E+02  0.70157681669E+02  0.00000000000E+00 0. -1.
         -6    2    1    2    0  503 -0.30148905964E+02 -0.85305464030E+02  0.16293260707E+03  0.25390170865E+03  0.17243278251E+03 0.  0.
        -24    2    3    3    0    0 -0.42012523333E+02 -0.67295254207E+02  0.24326751945E+02  0.11354934440E+03  0.77511027590E+02 0.  0.
          6    2    1    2  501    0  0.30148905964E+02  0.85305464030E+02  0.35774666284E+03  0.40709292460E+03  0.17191857306E+03 0.  0.
         24    2    5    5    0    0  0.24269027076E+02  0.10255725353E+03  0.17750272673E+03  0.22586885412E+03  0.91665398804E+02 0.  0.
          5    1    5    5  501    0  0.58798788887E+01 -0.17251789499E+02  0.18024393611E+03  0.18122407048E+03  0.47000000000E+01 0. -1.
        -11    1    6    6    0    0  0.75908232375E+01 -0.17085877326E+02  0.20043470756E+02  0.27409642854E+02  0.00000000000E+00 0.  1.
         12    1    6    6    0    0  0.16678203838E+02  0.11964313086E+03  0.15745925597E+03  0.19845921126E+03  0.00000000000E+00 0. -1.
         -5    1    3    3    0  503  0.11863617368E+02 -0.18010209823E+02  0.13860585512E+03  0.14035236425E+03  0.47000000000E+01 0.  1.
         13    1    4    4    0    0 -0.71972406188E+01 -0.66039359466E+02  0.37523661202E+02  0.76295625177E+02  0.00000000000E+00 0. -1.
        -14    1    4    4    0    0 -0.34815282714E+02 -0.12558947414E+01 -0.13196909257E+02  0.37253719223E+02  0.00000000000E+00 0.  1.
</event>
<event>
12    1  0.8407180E-002  0.2155521E+03  0.7818608E-02  0.1137493E+00
         21   -1    0    0  501  502  0.00000000000E+00  0.00000000000E+00  0.85362965233E+03  0.85362965233E+03  0.00000000000E+00 0.  1.
         21   -1    0    0  502  503 -0.00000000000E+00 -0.00000000000E+00 -0.77354720448E+02  0.77354720448E+02  0.00000000000E+00 0.  1.
         -6    2    1    2    0  503 -0.40142134708E+02 -0.12102628226E+03  0.13374444239E+03  0.25367360989E+03  0.17379290120E+03 0.  0.
        -24    2    3    3    0    0 -0.76337048127E+02 -0.10044831629E+03  0.14711819566E+03  0.20969098017E+03  0.80058319421E+02 0.  0.
          6    2    1    2  501    0  0.40142134708E+02  0.12102628226E+03  0.64253048949E+03  0.67731076289E+03  0.17217923110E+03 0.  0.
         24    2    5    5    0    0  0.30461870787E+02  0.13238820750E+03  0.64267141596E+03  0.66166113941E+03  0.79462893591E+02 0.  0.
          5    1    5    5  501    0  0.96802639211E+01 -0.11361925234E+02 -0.14092647450E+00  0.15649623474E+02  0.47000000000E+01 0. -1.
        -11    1    6    6    0    0  0.29883724409E+02  0.28156876984E+02  0.85794152728E+02  0.95113003046E+02  0.00000000000E+00 0.  1.
         12    1    6    6    0    0  0.57814637785E+00  0.10423133051E+03  0.55687726323E+03  0.56654813637E+03  0.00000000000E+00 0. -1.
         -5    1    3    3    0  503  0.36194913420E+02 -0.20577965970E+02 -0.13373753263E+02  0.43982629722E+02  0.47000000000E+01 0.  1.
         13    1    4    4    0    0 -0.12572525810E+02 -0.13269080027E+02  0.81030395175E+02  0.83066610815E+02  0.00000000000E+00 0. -1.
        -14    1    4    4    0    0 -0.63764522317E+02 -0.87179236263E+02  0.66087800481E+02  0.12662436935E+03  0.00000000000E+00 0.  1.
</event>
<event>
12    1  0.8407180E-002  0.2104337E+03  0.7818608E-02  0.1142136E+00
         21   -1    0    0  501  502  0.00000000000E+00  0.00000000000E+00  0.63330274017E+03  0.63330274017E+03  0.00000000000E+00 0.  1.
         21   -1    0    0  502  503 -0.00000000000E+00 -0.00000000000E+00 -0.69208957366E+02  0.69208957366E+02  0.00000000000E+00 0.  1.
         -6    2    1    2    0  503  0.24744167543E+02 -0.11362723219E+03  0.32279873078E+03  0.38533276983E+03  0.17538215754E+03 0.  0.
        -24    2    3    3    0    0  0.69482347555E+01 -0.97117193638E+02  0.96876394308E+02  0.15806141502E+03  0.78219868815E+02 0.  0.
          6    2    1    2  501    0 -0.24744167543E+02  0.11362723219E+03  0.24129505202E+03  0.31717892771E+03  0.16986979817E+03 0.  0.
         24    2    5    5    0    0  0.42241251041E+02  0.10363164799E+03  0.16473394895E+03  0.21485273111E+03  0.80626176743E+02 0.  0.
          5    1    5    5  501    0 -0.66985418583E+02  0.99955842048E+01  0.76561103064E+02  0.10232619659E+03  0.47000000000E+01 0. -1.
        -13    1    6    6    0    0 -0.80805887653E+01  0.83028312333E+02  0.95099246397E+02  0.12650242381E+03  0.00000000000E+00 0.  1.
         14    1    6    6    0    0  0.50321839806E+02  0.20603335654E+02  0.69634702555E+02  0.88350307308E+02  0.00000000000E+00 0. -1.
         -5    1    3    3    0  503  0.17795932787E+02 -0.16510038554E+02  0.22592233648E+03  0.22727135481E+03  0.47000000000E+01 0.  1.
         13    1    4    4    0    0  0.13559419076E+02 -0.21635209890E+02 -0.96844351660E+01  0.27308028804E+02  0.00000000000E+00 0. -1.
        -14    1    4    4    0    0 -0.66111843200E+01 -0.75481983747E+02  0.10656082947E+03  0.13075338621E+03  0.00000000000E+00 0.  1.
</event>
<event>
12    1  0.8407180E-002  0.1720402E+03  0.7818608E-02  0.1175797E+00
         21   -1    0    0  503  502  0.00000000000E+00  0.00000000000E+00  0.33198521735E+03  0.33198521735E+03  0.00000000000E+00 0. -1.
         21   -1    0    0  501  503 -0.00000000000E+00 -0.00000000000E+00 -0.89050902418E+02  0.89050902418E+02  0.00000000000E+00 0. -1.
          6    2    1    2  501    0  0.14235611830E+02  0.13110446866E+02  0.11833154032E+03  0.20861279182E+03  0.17071147300E+03 0.  0.
         24    2    3    3    0    0 -0.48502219799E+02 -0.12224255776E+02  0.10349782857E+03  0.13918648787E+03  0.78480444269E+02 0.  0.
         -6    2    1    2    0  502 -0.14235611830E+02 -0.13110446866E+02  0.12460277461E+03  0.21242332795E+03  0.17094818617E+03 0.  0.
        -24    2    5    5    0    0  0.42291546664E+02 -0.11266313874E+02  0.12624751869E+03  0.15564731490E+03  0.79825722124E+02 0.  0.
          5    1    3    3  501    0  0.62737831629E+02  0.25334702642E+02  0.14833711748E+02  0.69426303947E+02  0.47000000000E+01 0. -1.
        -11    1    4    4    0    0 -0.60837301920E+02  0.17633236965E+01  0.39573294252E+02  0.72597053889E+02  0.00000000000E+00 0.  1.
         12    1    4    4    0    0  0.12335082121E+02 -0.13987579472E+02  0.63924534316E+02  0.66589433981E+02  0.00000000000E+00 0. -1.
         -5    1    5    5    0  502 -0.56527158494E+02 -0.18441329925E+01 -0.16447440826E+01  0.56776013042E+02  0.47000000000E+01 0.  1.
         11    1    6    6    0    0  0.32920427612E+02 -0.21003179385E+02  0.12357680527E+02  0.40958520072E+02  0.00000000000E+00 0. -1.
        -12    1    6    6    0    0  0.93711190517E+01  0.97368655109E+01  0.11388983817E+03  0.11468879483E+03  0.00000000000E+00 0.  1.
</event>
<event>
12    1  0.8407180E-002  0.2207387E+03  0.7818608E-02  0.1133439E+00
         21   -1    0    0  501  502  0.00000000000E+00  0.00000000000E+00  0.42266325552E+02  0.42266325552E+02  0.00000000000E+00 0.  1.
         21   -1    0    0  502  503 -0.00000000000E+00 -0.00000000000E+00 -0.15064101947E+04  0.15064101947E+04  0.00000000000E+00 0. -1.
         -6    2    1    2    0  503  0.11720689943E+03  0.72227740284E+02 -0.11080703426E+04  0.11297327047E+04  0.17181907962E+03 0.  0.
        -24    2    3    3    0    0  0.54403650277E+02  0.69831778231E+02 -0.36110557797E+03  0.38011384263E+03  0.79076295450E+02 0.  0.
          6    2    1    2  501    0 -0.11720689943E+03 -0.72227740284E+02 -0.35607352660E+03  0.41894381563E+03  0.17254350340E+03 0.  0.
         24    2    5    5    0    0 -0.14733965603E+03 -0.60480107434E+02 -0.33411360914E+03  0.37956973948E+03  0.84109842931E+02 0.  0.
          5    1    5    5  501    0  0.30132756600E+02 -0.11747632850E+02 -0.21959917456E+02  0.39374076149E+02  0.47000000000E+01 0. -1.
        -11    1    6    6    0    0 -0.34876696528E+02  0.16117263284E+02 -0.39775628648E+02  0.55301453605E+02  0.00000000000E+00 0.  1.
         12    1    6    6    0    0 -0.11246295951E+03 -0.76597370717E+02 -0.29433798049E+03  0.32426828587E+03  0.00000000000E+00 0. -1.
         -5    1    3    3    0  503  0.62803249156E+02  0.23959620523E+01 -0.74696476462E+03  0.74961886204E+03  0.47000000000E+01 0.  1.
         11    1    4    4    0    0  0.90906913977E+01  0.29614554870E+02 -0.26292982834E+03  0.26474847905E+03  0.00000000000E+00 0. -1.
        -12    1    4    4    0    0  0.45312958880E+02  0.40217223361E+02 -0.98175749630E+02  0.11536536357E+03  0.00000000000E+00 0.  1.
</event>
<event>
12    1  0.8407180E-002  0.3343752E+03  0.7818608E-02  0.1069233E+00
         21   -1    0    0  501  502  0.00000000000E+00  0.00000000000E+00  0.15562968674E+04  0.15562968674E+04  0.00000000000E+00 0. -1.
         21   -1    0    0  502  503 -0.00000000000E+00 -0.00000000000E+00 -0.72561980575E+02  0.72561980575E+02  0.00000000000E+00 0.  1.
         -6    2    1    2    0  503  0.10201261442E+03  0.26858356897E+03  0.82488017616E+03  0.89007533935E+03  0.17106460093E+03 0.  0.
        -24    2    3    3    0    0  0.10792864652E+03  0.21664163095E+03  0.78133702435E+03  0.82187665586E+03  0.80071860392E+02 0.  0.
          6    2    1    2  501    0 -0.10201261442E+03 -0.26858356897E+03  0.65885471062E+03  0.73878350857E+03  0.17078593563E+03 0.  0.
         24    2    5    5    0    0 -0.77981380920E+02 -0.16973617904E+03  0.55988946984E+03  0.59678169322E+03  0.88208302811E+02 0.  0.
          5    1    5    5  501    0 -0.24031233501E+02 -0.98847389927E+02  0.98965240785E+02  0.14200181535E+03  0.47000000000E+01 0. -1.
        -11    1    6    6    0    0 -0.51776493456E+02 -0.27083678589E+02  0.21109841943E+03  0.21903623811E+03  0.00000000000E+00 0.  1.
         12    1    6    6    0    0 -0.26204887464E+02 -0.14265250045E+03  0.34879105041E+03  0.37774545511E+03  0.00000000000E+00 0. -1.
         -5    1    3    3    0  503 -0.59160320965E+01  0.51941938023E+02  0.43543151800E+02  0.68198683492E+02  0.47000000000E+01 0.  1.
         13    1    4    4    0    0 -0.67135305654E+01  0.62233302116E+02  0.19733662381E+03  0.20702608165E+03  0.00000000000E+00 0. -1.
        -14    1    4    4    0    0  0.11464217708E+03  0.15440832883E+03  0.58400040054E+03  0.61485057421E+03  0.00000000000E+00 0.  1.
</event>
<event>
12    1  0.8407180E-002  0.1739069E+03  0.7818608E-02  0.1174191E+00
         21   -1    0    0  501  502  0.00000000000E+00  0.00000000000E+00  0.76591085898E+03  0.76591085898E+03  0.00000000000E+00 0.  1.
         21   -1    0    0  502  503 -0.00000000000E+00 -0.00000000000E+00 -0.75899143461E+02  0.75899143461E+02  0.00000000000E+00 0.  1.
         -6    2    1    2    0  503  0.82068986445E+01  0.86159922037E+01  0.52923878139E+02  0.18178155578E+03  0.17349930443E+03 0.  0.
        -24    2    3    3    0    0  0.19999358899E+02  0.71084716488E+02  0.38867800971E+02  0.11650470737E+03  0.81299628616E+02 0.  0.
          6    2    1    2  501    0 -0.82068986445E+01 -0.86159922037E+01  0.63708783737E+03  0.66002844666E+03  0.17209023610E+03 0.  0.
         24    2    5    5    0    0  0.34325846772E+02  0.39736667260E+01  0.58485678591E+03  0.59134288281E+03  0.80217773808E+02 0.  0.
          5    1    5    5  501    0 -0.42532745416E+02 -0.12589658930E+02  0.52231051461E+02  0.68685563850E+02  0.47000000000E+01 0. -1.
        -13    1    6    6    0    0  0.33160655225E+01 -0.11313933519E+02  0.49384151246E+03  0.49398222722E+03  0.00000000000E+00 0.  1.
         14    1    6    6    0    0  0.31009781250E+02  0.15287600245E+02  0.91015273456E+02  0.97360655589E+02  0.00000000000E+00 0. -1.
         -5    1    3    3    0  503 -0.11792460254E+02 -0.62468724284E+02  0.14056077168E+02  0.65276848406E+02  0.47000000000E+01 0.  1.
         13    1    4    4    0    0  0.50304752794E+02  0.31020824914E+02  0.26501114733E+02  0.64770122851E+02  0.00000000000E+00 0. -1.
        -14    1    4    4    0    0 -0.30305393895E+02  0.40063891574E+02  0.12366686237E+02  0.51734584522E+02  0.00000000000E+00 0.  1.
</event>
<event>
12    1  0.8407180E-002  0.2572956E+03  0.7818608E-02  0.1108796E+00
         21   -1    0    0  501  502  0.00000000000E+00  0.00000000000E+00  0.41719713450E+03  0.41719713450E+03  0.00000000000E+00 0. -1.
         21   -1    0    0  502  503 -0.00000000000E+00 -0.00000000000E+00 -0.19398593288E+03  0.19398593288E+03  0.00000000000E+00 0.  1.
         -6    2    1    2    0  503 -0.18311934304E+03  0.55909082615E+02 -0.18914847046E+02  0.25787577632E+03  0.17170796504E+03 0.  0.
        -24    2    3    3    0    0 -0.68526613910E+02  0.23213574286E+02  0.51053153496E+02  0.11960755533E+03  0.80403830542E+02 0.  0.
          6    2    1    2  501    0  0.18311934304E+03 -0.55909082615E+02  0.24212604866E+03  0.35330729106E+03  0.17187931567E+03 0.  0.
         24    2    5    5    0    0  0.71143585754E+02 -0.15255810239E+02  0.33717210647E+02  0.11320816041E+03  0.79906744076E+02 0.  0.
          5    1    5    5  501    0  0.11197575729E+03 -0.40653272376E+02  0.20840883801E+03  0.24009913065E+03  0.47000000000E+01 0. -1.
        -13    1    6    6    0    0 -0.13858179841E+02  0.20833332255E+01 -0.88508667379E+01  0.16574898728E+02  0.00000000000E+00 0.  1.
         14    1    6    6    0    0  0.85001765595E+02 -0.17339143464E+02  0.42568077385E+02  0.96633261679E+02  0.00000000000E+00 0. -1.
         -5    1    3    3    0  503 -0.11459272913E+03  0.32695508329E+02 -0.69968000542E+02  0.13826822099E+03  0.47000000000E+01 0.  1.
         13    1    4    4    0    0 -0.64031783853E+02 -0.16605930163E+02  0.42519113111E+02  0.78636513400E+02  0.00000000000E+00 0. -1.
        -14    1    4    4    0    0 -0.44948300566E+01  0.39819504449E+02  0.85340403853E+01  0.40971041933E+02  0.00000000000E+00 0.  1.
</event>
<event>
12    1  0.8407180E-002  0.2069454E+03  0.7818608E-02  0.1144050E+00
         21   -1    0    0  501  502  0.00000000000E+00  0.00000000000E+00  0.46333130498E+02  0.46333130498E+02  0.00000000000E+00 0.  1.
         21   -1    0    0  502  503 -0.00000000000E+00 -0.00000000000E+00 -0.15159726021E+04  0.15159726021E+04  0.00000000000E+00 0.  1.
         -6    2    1    2    0  503  0.34706897863E+01 -0.11533719782E+03 -0.12229836827E+04  0.12403344711E+04  0.17153949143E+03 0.  0.
        -24    2    3    3    0    0  0.21884975098E+02 -0.20681725020E+01 -0.69923115016E+03  0.70413696704E+03  0.80008984040E+02 0.  0.
          6    2    1    2  501    0 -0.34706897863E+01  0.11533719782E+03 -0.24665578886E+03  0.32197126148E+03  0.17178969744E+03 0.  0.
         24    2    5    5    0    0 -0.44861001591E+02  0.72421210288E+02 -0.70631249266E+02  0.13606357353E+03  0.79165532305E+02 0.  0.
          5    1    5    5  501    0  0.41390311804E+02  0.42915987534E+02 -0.17602453960E+03  0.18590768795E+03  0.47000000000E+01 0. -1.
        -11    1    6    6    0    0 -0.29864105729E+02  0.44491087728E+02 -0.85613389519E+02  0.10099987209E+03  0.00000000000E+00 0.  1.
         12    1    6    6    0    0 -0.14996895862E+02  0.27930122560E+02  0.14982140253E+02  0.35063701434E+02  0.00000000000E+00 0. -1.
         -5    1    3    3    0  503 -0.18414285312E+02 -0.11326902532E+03 -0.52375253258E+03  0.53619750408E+03  0.47000000000E+01 0.  1.
         13    1    4    4    0    0 -0.26578193762E+02  0.15205841295E+02 -0.31296610296E+03  0.31446048972E+03  0.00000000000E+00 0. -1.
        -14    1    4    4    0    0  0.48463168860E+02 -0.17274013797E+02 -0.38626504720E+03  0.38967647732E+03  0.00000000000E+00 0.  1.
</event>
<event>
12    1  0.8407180E-002  0.5532318E+03  0.7818608E-02  0.1000870E+00
         21   -1    0    0  501  502  0.00000000000E+00  0.00000000000E+00  0.91173963781E+03  0.91173963781E+03  0.00000000000E+00 0.  1.
         21   -1    0    0  502  503 -0.00000000000E+00 -0.00000000000E+00 -0.33539048184E+03  0.33539048184E+03  0.00000000000E+00 0. -1.
         -6    2    1    2    0  503 -0.25883860238E+03 -0.45770139630E+03  0.25502794053E+03  0.60918363506E+03  0.17198098884E+03 0.  0.
        -24    2    3    3    0    0 -0.19228673066E+03 -0.40365315956E+03  0.16282214051E+03  0.48319013094E+03  0.83973764871E+02 0.  0.
          6    2    1    2  501    0  0.25883860238E+03  0.45770139630E+03  0.32132121544E+03  0.63794648458E+03  0.16504667050E+03 0.  0.
         24    2    5    5    0    0  0.14268926867E+03  0.37148312969E+03  0.24753923395E+03  0.47549609827E+03  0.80379873695E+02 0.  0.
          5    1    5    5  501    0  0.11614933371E+03  0.86218266612E+02  0.73781981490E+02  0.16245038631E+03  0.47000000000E+01 0. -1.
        -13    1    6    6    0    0  0.50754470266E+02  0.19787285392E+03  0.16424043179E+03  0.26211562717E+03  0.00000000000E+00 0.  1.
         14    1    6    6    0    0  0.91934798405E+02  0.17361027576E+03  0.83298802158E+02  0.21338047110E+03  0.00000000000E+00 0. -1.
         -5    1    3    3    0  503 -0.66551871717E+02 -0.54048236739E+02  0.92205800022E+02  0.12599350412E+03  0.47000000000E+01 0.  1.
         11    1    4    4    0    0  0.56583078087E+01 -0.15506498033E+02 -0.34006359013E+01  0.16853256452E+02  0.00000000000E+00 0. -1.
        -12    1    4    4    0    0 -0.19794503847E+03 -0.38814666153E+03  0.16622277641E+03  0.46633687449E+03  0.00000000000E+00 0.  1.
</event>
<event>
12    1  0.8407180E-002  0.1766198E+03  0.7818608E-02  0.1171510E+00
         21   -1    0    0  503  502  0.00000000000E+00  0.00000000000E+00  0.93373371550E+03  0.93373371550E+03  0.00000000000E+00 0.  1.
         21   -1    0    0  501  503 -0.00000000000E+00 -0.00000000000E+00 -0.76760759651E+02  0.76760759651E+02  0.00000000000E+00 0. -1.
          6    2    1    2  501    0 -0.20138076573E+02  0.25535588910E+02  0.46645516178E+02  0.18114225143E+03  0.17198576291E+03 0.  0.
         24    2    3    3    0    0 -0.73757678183E+02  0.33889241331E+02  0.70035265786E+01  0.11377443622E+03  0.79415975627E+02 0.  0.
         -6    2    1    2    0  502  0.20138076573E+02 -0.25535588910E+02  0.81032743967E+03  0.82935222372E+03  0.17359995128E+03 0.  0.
        -24    2    5    5    0    0  0.38601660627E+02  0.46200179612E+02  0.37357766145E+03  0.38634050469E+03  0.77936972188E+02 0.  0.
          5    1    3    3  501    0  0.53619601611E+02 -0.83536524218E+01  0.39641989599E+02  0.67367815202E+02  0.47000000000E+01 0. -1.
        -11    1    4    4    0    0 -0.32956789756E+02 -0.86762072419E+01  0.34695390353E+02  0.48633287724E+02  0.00000000000E+00 0.  1.
         12    1    4    4    0    0 -0.40800888427E+02  0.42565448573E+02 -0.27691863774E+02  0.65141148501E+02  0.00000000000E+00 0. -1.
         -5    1    5    5    0  502 -0.18463584054E+02 -0.71735768522E+02  0.43674977822E+03  0.44301171903E+03  0.47000000000E+01 0.  1.
         11    1    6    6    0    0  0.38104158489E+01  0.40776925460E+02  0.72967537675E+02  0.83675196285E+02  0.00000000000E+00 0. -1.
        -12    1    6    6    0    0  0.34791244778E+02  0.54232541519E+01  0.30061012377E+03  0.30266530841E+03  0.00000000000E+00 0.  1.
</event>
<event>
12    1  0.8407180E-002  0.1729622E+03  0.7818608E-02  0.1175069E+00
         21   -1    0    0  501  502  0.00000000000E+00  0.00000000000E+00  0.40112387102E+03  0.40112387102E+03  0.00000000000E+00 0. -1.
         21   -1    0    0  502  503 -0.00000000000E+00 -0.00000000000E+00 -0.13584236013E+03  0.13584236013E+03  0.00000000000E+00 0. -1.
         -6    2    1    2    0  503  0.11527156768E+02  0.10389459598E+02 -0.48113770498E+02  0.17952958534E+03  0.17226468265E+03 0.  0.
        -24    2    3    3    0    0  0.29815200302E+02 -0.51510813089E+02  0.12117762287E+01  0.98158854397E+02  0.78047307838E+02 0.  0.
          6    2    1    2  501    0 -0.11527156768E+02 -0.10389459598E+02  0.31339528139E+03  0.35743664581E+03  0.17118275950E+03 0.  0.
         24    2    5    5    0    0  0.66852622608E+01 -0.48612638114E+02  0.90032804398E+02  0.13004801436E+03  0.79991867428E+02 0.  0.
          5    1    5    5  501    0 -0.18212419029E+02  0.38223178516E+02  0.22336247700E+03  0.22738863145E+03  0.47000000000E+01 0. -1.
        -13    1    6    6    0    0 -0.36710818521E+02 -0.25217096394E+02  0.43407823533E+02  0.62191842640E+02  0.00000000000E+00 0.  1.
         14    1    6    6    0    0  0.43396080781E+02 -0.23395541720E+02  0.46624980865E+02  0.67856171718E+02  0.00000000000E+00 0. -1.
         -5    1    3    3    0  503 -0.18288043534E+02  0.61900272687E+02 -0.49325546727E+02  0.81370730948E+02  0.47000000000E+01 0.  1.
         11    1    4    4    0    0 -0.81285690245E+01 -0.64256330439E+01 -0.29813874151E+02  0.31563103242E+02  0.00000000000E+00 0. -1.
        -12    1    4    4    0    0  0.37943769326E+02 -0.45085180045E+02  0.31025650380E+02  0.66595751155E+02  0.00000000000E+00 0.  1.
</event>
<event>
12    1  0.8407180E-002  0.2193733E+03  0.7818608E-02  0.1134377E+00
         21   -1    0    0  501  502  0.00000000000E+00  0.00000000000E+00  0.17541785192E+03  0.17541785192E+03  0.00000000000E+00 0.  1.
         21   -1    0    0  502  503 -0.00000000000E+00 -0.00000000000E+00 -0.32767703232E+03  0.32767703232E+03  0.00000000000E+00 0.  1.
         -6    2    1    2    0  503 -0.11725767474E+03  0.68705228286E+02 -0.17780125463E+03  0.28237906758E+03  0.17220592608E+03 0.  0.
        -24    2    3    3    0    0 -0.12907564859E+03  0.49131865789E+02 -0.19582494835E+03  0.25288797468E+03  0.80811224752E+02 0.  0.
          6    2    1    2  501    0  0.11725767474E+03 -0.68705228286E+02  0.25542074229E+02  0.22071581667E+03  0.17202704291E+03 0.  0.
         24    2    5    5    0    0  0.82425758841E+02  0.28221864227E+02  0.10238779957E+02  0.11648336278E+03  0.76635904434E+02 0.  0.
          5    1    5    5  501    0  0.34831915901E+02 -0.96927092513E+02  0.15303294272E+02  0.10423245389E+03  0.47000000000E+01 0. -1.
        -13    1    6    6    0    0  0.17879059708E+02  0.14994807129E+02  0.38316129210E+02  0.44862353644E+02  0.00000000000E+00 0.  1.
         14    1    6    6    0    0  0.64546699133E+02  0.13227057098E+02 -0.28077349253E+02  0.71621009135E+02  0.00000000000E+00 0. -1.
         -5    1    3    3    0  503  0.11817973848E+02  0.19573362497E+02  0.18023693718E+02  0.29491092902E+02  0.47000000000E+01 0.  1.
         13    1    4    4    0    0 -0.42546661564E+02  0.57215926279E+02 -0.69607213991E+02  0.99644592778E+02  0.00000000000E+00 0. -1.
        -14    1    4    4    0    0 -0.86528987026E+02 -0.80840604900E+01 -0.12621773436E+03  0.15324338190E+03  0.00000000000E+00 0.  1.
</event>
<event>
12    1  0.8407180E-002  0.2304168E+03  0.7818608E-02  0.1126443E+00
         21   -1    0    0  503  502  0.00000000000E+00  0.00000000000E+00  0.11640330294E+04  0.11640330294E+04  0.00000000000E+00 0.  1.
         21   -1    0    0  501  503 -0.00000000000E+00 -0.00000000000E+00 -0.17240825892E+03  0.17240825892E+03  0.00000000000E+00 0. -1.
          6    2    1    2  501    0 -0.71839388309E+02  0.13558461729E+03 -0.77332404210E+02  0.24304771963E+03  0.17189475594E+03 0.  0.
         24    2    3    3    0    0 -0.53744936514E+02  0.76101210966E+01 -0.11812792137E+02  0.98065684783E+02  0.80814010728E+02 0.  0.
         -6    2    1    2    0  502  0.71839388309E+02 -0.13558461729E+03  0.10689571747E+04  0.10933935687E+04  0.17116065135E+03 0.  0.
        -24    2    5    5    0    0  0.53764234117E+02 -0.16421651011E+03  0.97102842942E+03  0.98966977376E+03  0.81807061332E+02 0.  0.
          5    1    3    3  501    0 -0.18094451795E+02  0.12797449620E+03 -0.65519612073E+02  0.14498203485E+03  0.47000000000E+01 0. -1.
        -13    1    4    4    0    0 -0.12884185210E+02 -0.22121681637E+02 -0.34262651770E+02  0.42770320706E+02  0.00000000000E+00 0.  1.
         14    1    4    4    0    0 -0.40860751304E+02  0.29731802733E+02  0.22449859633E+02  0.55295364077E+02  0.00000000000E+00 0. -1.
         -5    1    5    5    0  502  0.18075154192E+02  0.28631892811E+02  0.97928745258E+02  0.10372379492E+03  0.47000000000E+01 0.  1.
         13    1    6    6    0    0  0.10885161974E+01 -0.38907001475E+02  0.43261757427E+03  0.43436494472E+03  0.00000000000E+00 0. -1.
        -14    1    6    6    0    0  0.52675717920E+02 -0.12530950863E+03  0.53841085515E+03  0.55530482904E+03  0.00000000000E+00 0.  1.
</event>
<event>
12    1  0.8407180E-002  0.2112166E+03  0.7818608E-02  0.1140769E+00
         21   -1    0    0  503  502  0.00000000000E+00  0.00000000000E+00  0.12484540718E+03  0.12484540718E+03  0.00000000000E+00 0.  1.
         21   -1    0    0  501  503 -0.00000000000E+00 -0.00000000000E+00 -0.36758087491E+03  0.36758087491E+03  0.00000000000E+00 0. -1.
          6    2    1    2  501    0 -0.10805219252E+03  0.60245301077E+02 -0.16540760388E+03  0.26827622748E+03  0.17119487784E+03 0.  0.
         24    2    3    3    0    0 -0.42048849759E+02  0.76690129012E+02 -0.32241950308E+02  0.11866989435E+03  0.73440580134E+02 0.  0.
         -6    2    1    2    0  502  0.10805219252E+03 -0.60245301077E+02 -0.77327863848E+02  0.22415005461E+03  0.17017307614E+03 0.  0.
        -24    2    5    5    0    0  0.25507061457E+02 -0.41416762165E+02  0.19431814875E+02  0.95492610335E+02  0.79845380748E+02 0.  0.
          5    1    3    3  501    0 -0.66003342760E+02 -0.16444827935E+02 -0.13316565358E+03  0.14960633313E+03  0.47000000000E+01 0. -1.
        -11    1    4    4    0    0 -0.61036231525E+02  0.47840614024E+02 -0.32616408491E+02  0.84130707901E+02  0.00000000000E+00 0.  1.
         12    1    4    4    0    0  0.18987381766E+02  0.28849514987E+02  0.37445818333E+00  0.34539186445E+02  0.00000000000E+00 0. -1.
         -5    1    5    5    0  502  0.82545131062E+02 -0.18828538912E+02 -0.96759678724E+02  0.12865744427E+03  0.47000000000E+01 0.  1.
         11    1    6    6    0    0  0.67217468354E+01 -0.33676158760E+02 -0.27731194642E+02  0.44139378175E+02  0.00000000000E+00 0. -1.
        -12    1    6    6    0    0  0.18785314622E+02 -0.77406034048E+01  0.47163009518E+02  0.51353232160E+02  0.00000000000E+00 0.  1.
</event>
<event>
12    1  0.8407180E-002  0.1764448E+03  0.7818608E-02  0.1171464E+00
         21   -1    0    0  503  502  0.00000000000E+00  0.00000000000E+00  0.31948624958E+03  0.31948624958E+03  0.00000000000E+00 0.  1.
         21   -1    0    0  501  503 -0.00000000000E+00 -0.00000000000E+00 -0.98282493968E+02  0.98282493968E+02  0.00000000000E+00 0.  1.
          6    2    1    2  501    0 -0.50488665878E+01  0.34697601606E+02  0.13414122072E+03  0.22164532692E+03  0.17292590678E+03 0.  0.
         24    2    3    3    0    0  0.44094377140E+02  0.21614061655E+01  0.22073135689E+02  0.94936968470E+02  0.81097588689E+02 0.  0.
         -6    2    1    2    0  502  0.50488665878E+01 -0.34697601606E+02  0.87062534891E+02  0.19612341663E+03  0.17220654737E+03 0.  0.
        -24    2    5    5    0    0  0.16032026455E+02 -0.20500692230E+02 -0.21078148133E+02  0.86402500841E+02  0.79647972784E+02 0.  0.
          5    1    3    3  501    0 -0.49143243727E+02  0.32536195440E+02  0.11206808503E+03  0.12670835845E+03  0.47000000000E+01 0. -1.
        -13    1    4    4    0    0  0.42141999577E+02  0.16273661406E+02  0.47649652489E+02  0.65660258652E+02  0.00000000000E+00 0.  1.
         14    1    4    4    0    0  0.19523775627E+01 -0.14112255241E+02 -0.25576516801E+02  0.29276709818E+02  0.00000000000E+00 0. -1.
         -5    1    5    5    0  502 -0.10983159867E+02 -0.14196909376E+02  0.10814068302E+03  0.10972091579E+03  0.47000000000E+01 0.  1.
         13    1    6    6    0    0 -0.15858030312E+01  0.22506934599E+01  0.28739746843E+02  0.28871325583E+02  0.00000000000E+00 0. -1.
        -14    1    6    6    0    0  0.17617829486E+02 -0.22751385690E+02 -0.49817894977E+02  0.57531175257E+02  0.00000000000E+00 0.  1.
</event>
<event>
12    1  0.8407180E-002  0.1999919E+03  0.7818608E-02  0.1151103E+00
         21   -1    0    0  503  502  0.00000000000E+00  0.00000000000E+00  0.27896566629E+02  0.27896566629E+02  0.00000000000E+00 0.  1.
         21   -1    0    0  501  503 -0.00000000000E+00 -0.00000000000E+00 -0.13944700569E+04  0.13944700569E+04  0.00000000000E+00 0. -1.
          6    2    1    2  501    0  0.69885952943E+02 -0.70425362678E+02 -0.64879703140E+03  0.67892146466E+03  0.17364616060E+03 0.  0.
         24    2    3    3    0    0 -0.25392407482E+02 -0.21678130209E+02 -0.37948867621E+03  0.38908816979E+03  0.79140588904E+02 0.  0.
         -6    2    1    2    0  502 -0.69885952943E+02  0.70425362678E+02 -0.71777645884E+03  0.74344515884E+03  0.16632462599E+03 0.  0.
        -24    2    5    5    0    0 -0.50697879619E+02  0.98435098096E+02 -0.37848654379E+03  0.40242835003E+03  0.80229480509E+02 0.  0.
          5    1    3    3  501    0  0.95278360424E+02 -0.48747232469E+02 -0.26930835519E+03  0.28983329487E+03  0.47000000000E+01 0. -1.
        -11    1    4    4    0    0 -0.37247211372E+01 -0.24804393567E+01  0.30756729591E+01  0.54300912611E+01  0.00000000000E+00 0.  1.
         12    1    4    4    0    0 -0.21667686344E+02 -0.19197690852E+02 -0.38256434917E+03  0.38365807853E+03  0.00000000000E+00 0. -1.
         -5    1    5    5    0  502 -0.19188073324E+02 -0.28009735418E+02 -0.33928991504E+03  0.34101680880E+03  0.47000000000E+01 0.  1.
         13    1    6    6    0    0 -0.16932895170E+02  0.18576627303E+01 -0.16299821510E+03  0.16388591146E+03  0.00000000000E+00 0. -1.
        -14    1    6    6    0    0 -0.33764984449E+02  0.96577435366E+02 -0.21548832869E+03  0.23854243857E+03  0.00000000000E+00 0.  1.
</event>
<event>
12    1  0.8407180E-002  0.2305153E+03  0.7818608E-02  0.1126381E+00
         21   -1    0    0  501  502  0.00000000000E+00  0.00000000000E+00  0.15083210438E+03  0.15083210438E+03  0.00000000000E+00 0.  1.
         21   -1    0    0  502  503 -0.00000000000E+00 -0.00000000000E+00 -0.45750736747E+03  0.45750736747E+03  0.00000000000E+00 0.  1.
         -6    2    1    2    0  503 -0.15631903332E+02 -0.15273871652E+03 -0.29967393054E+03  0.37771790595E+03  0.17115162842E+03 0.  0.
        -24    2    3    3    0    0  0.12445383521E+02 -0.67754232336E+01 -0.80086736396E+02  0.11251186746E+03  0.77744717131E+02 0.  0.
          6    2    1    2  501    0  0.15631903332E+02  0.15273871652E+03 -0.70013325534E+01  0.23062156590E+03  0.17194131579E+03 0.  0.
         24    2    5    5    0    0 -0.45587047426E+02  0.72683241190E+02 -0.31810091674E+02  0.12672640918E+03  0.87673647171E+02 0.  0.
          5    1    5    5  501    0  0.61218950757E+02  0.80055475325E+02  0.24808759120E+02  0.10389515672E+03  0.47000000000E+01 0. -1.
        -13    1    6    6    0    0 -0.27042847416E+02  0.52931430277E+02 -0.62185653364E+02  0.86023876871E+02  0.00000000000E+00 0.  1.
         14    1    6    6    0    0 -0.18544200010E+02  0.19751810913E+02  0.30375561690E+02  0.40702532308E+02  0.00000000000E+00 0. -1.
         -5    1    3    3    0  503 -0.28077286852E+02 -0.14596329328E+03 -0.21958719414E+03  0.26520603849E+03  0.47000000000E+01 0.  1.
         11    1    4    4    0    0  0.22112007076E+02 -0.12980823466E+02 -0.92270521504E+02  0.95766861562E+02  0.00000000000E+00 0. -1.
        -12    1    4    4    0    0 -0.96666235554E+01  0.62054002326E+01  0.12183785107E+02  0.16745005899E+02  0.00000000000E+00 0.  1.
</event>
<event>
12    1  0.8407180E-002  0.1930368E+03  0.7818608E-02  0.1156438E+00
         21   -1    0    0  501  502  0.00000000000E+00  0.00000000000E+00  0.95631176676E+03  0.95631176676E+03  0.00000000000E+00 0.  1.
         21   -1    0    0  502  503 -0.00000000000E+00 -0.00000000000E+00 -0.46446398830E+02  0.46446398830E+02  0.00000000000E+00 0.  1.
         -6    2    1    2    0  503 -0.25520950699E+02 -0.72541459520E+02  0.66129886882E+03  0.68803844623E+03  0.17368686566E+03 0.  0.
        -24    2    3    3    0    0 -0.28016157020E+02 -0.11260439974E+03  0.43312931311E+03  0.45631727458E+03  0.84615585526E+02 0.  0.
          6    2    1    2  501    0  0.25520950699E+02  0.72541459520E+02  0.24856649911E+03  0.31471971936E+03  0.17705822490E+03 0.  0.
         24    2    5    5    0    0  0.24009948728E+02  0.10990084608E+03  0.13380249411E+03  0.19392703029E+03  0.83963754321E+02 0.  0.
          5    1    5    5  501    0  0.15110019708E+01 -0.37359386560E+02  0.11476400499E+03  0.12079268907E+03  0.47000000000E+01 0. -1.
        -13    1    6    6    0    0  0.53663768915E+01 -0.12327733099E+02  0.26914710568E+01  0.13711856940E+02  0.00000000000E+00 0.  1.
         14    1    6    6    0    0  0.18643571836E+02  0.12222857918E+03  0.13111102306E+03  0.18021517335E+03  0.00000000000E+00 0. -1.
         -5    1    3    3    0  503  0.24952063210E+01  0.40062940215E+02  0.22816955571E+03  0.23172117164E+03  0.47000000000E+01 0.  1.
         11    1    4    4    0    0 -0.47611373330E+02 -0.59076841278E+02  0.15708879153E+03  0.17445287177E+03  0.00000000000E+00 0. -1.
        -12    1    4    4    0    0  0.19595216311E+02 -0.53527558457E+02  0.27604052158E+03  0.28186440281E+03  0.00000000000E+00 0.  1.
</event>
<event>
12    1  0.8407180E-002  0.2620494E+03  0.7818608E-02  0.1105959E+00
         21   -1    0    0  501  502  0.00000000000E+00  0.00000000000E+00  0.12520606145E+04  0.12520606145E+04  0.00000000000E+00 0. -1.
         21   -1    0    0  502  503 -0.00000000000E+00 -0.00000000000E+00 -0.55901227384E+02  0.55901227384E+02  0.00000000000E+00 0. -1.
         -6    2    1    2    0  503 -0.15524121621E+03 -0.12146300736E+03  0.50612376039E+03  0.56993959337E+03  0.17267536564E+03 0.  0.
        -24    2    3    3    0    0 -0.13756660900E+03 -0.15386860364E+03  0.46464501718E+03  0.51421625402E+03  0.76962619602E+02 0.  0.
          6    2    1    2  501    0  0.15524121621E+03  0.12146300736E+03  0.69003562677E+03  0.73802224855E+03  0.17226310046E+03 0.  0.
         24    2    5    5    0    0  0.10785145240E+02  0.28107242201E+02  0.18333859845E+03  0.20290840662E+03  0.81562512040E+02 0.  0.
          5    1    5    5  501    0  0.14445607096E+03  0.93355765160E+02  0.50669702831E+03  0.53511384193E+03  0.47000000000E+01 0. -1.
        -13    1    6    6    0    0  0.61509185687E+01 -0.27564734168E+02  0.87856079750E+02  0.92284013339E+02  0.00000000000E+00 0.  1.
         14    1    6    6    0    0  0.46342266716E+01  0.55671976369E+02  0.95482518704E+02  0.11062439328E+03  0.00000000000E+00 0. -1.
         -5    1    3    3    0  503 -0.17674607208E+02  0.32405596278E+02  0.41478743211E+02  0.55723339352E+02  0.47000000000E+01 0.  1.
         13    1    4    4    0    0 -0.12862074962E+03 -0.10324182077E+03  0.39138589730E+03  0.42471766079E+03  0.00000000000E+00 0. -1.
        -14    1    4    4    0    0 -0.89458593785E+01 -0.50626782874E+02  0.73259119881E+02  0.89498593228E+02  0.00000000000E+00 0.  1.
</event>
<event>
12    1  0.8407180E-002  0.2151772E+03  0.7818608E-02  0.1137691E+00
         21   -1    0    0  501  502  0.00000000000E+00  0.00000000000E+00  0.33436226808E+03  0.33436226808E+03  0.00000000000E+00 0.  1.
         21   -1    0    0  502  503 -0.00000000000E+00 -0.00000000000E+00 -0.15651578007E+03  0.15651578007E+03  0.00000000000E+00 0. -1.
         -6    2    1    2    0  503  0.11963151666E+03  0.46294081310E+02  0.42176303588E+01  0.21438532855E+03  0.17172198155E+03 0.  0.
        -24    2    3    3    0    0  0.49971995023E+02  0.41806601043E+02 -0.60458916836E+02  0.11910819492E+03  0.79287384215E+02 0.  0.
          6    2    1    2  501    0 -0.11963151666E+03 -0.46294081310E+02  0.17362885765E+03  0.27649271960E+03  0.17276111264E+03 0.  0.
         24    2    5    5    0    0 -0.56101880475E+01 -0.66541034518E+02  0.51776761694E+02  0.10832368029E+03  0.67779076235E+02 0.  0.
          5    1    5    5  501    0 -0.11402132861E+03  0.20246953208E+02  0.12185209596E+03  0.16816903931E+03  0.47000000000E+01 0. -1.
        -11    1    6    6    0    0  0.25328152016E+02 -0.12290157348E+02  0.15771216302E+01  0.28196641020E+02  0.00000000000E+00 0.  1.
         12    1    6    6    0    0 -0.30938340063E+02 -0.54250877170E+02  0.50199640063E+02  0.80127039269E+02  0.00000000000E+00 0. -1.
         -5    1    3    3    0  503  0.69659521640E+02  0.44874802669E+01  0.64676547195E+02  0.95277133622E+02  0.47000000000E+01 0.  1.
         13    1    4    4    0    0  0.71032458339E+02  0.32256327790E+02 -0.54693295378E+02  0.95275586482E+02  0.00000000000E+00 0. -1.
        -14    1    4    4    0    0 -0.21060463317E+02  0.95502732529E+01 -0.57656214578E+01  0.23832608441E+02  0.00000000000E+00 0.  1.
</event>
<event>
12    1  0.8407180E-002  0.2415160E+03  0.7818608E-02  0.1119139E+00
         21   -1    0    0  501  502  0.00000000000E+00  0.00000000000E+00  0.37580031776E+03  0.37580031776E+03  0.00000000000E+00 0. -1.
         21   -1    0    0  502  503 -0.00000000000E+00 -0.00000000000E+00 -0.71142681415E+03  0.71142681415E+03  0.00000000000E+00 0. -1.
         -6    2    1    2    0  503 -0.90750157705E+02 -0.14309516968E+03 -0.64890774787E+03  0.69165779133E+03  0.16910770637E+03 0.  0.
        -24    2    3    3    0    0 -0.11641566095E+03 -0.81521328346E+02 -0.53738731685E+03  0.56162336309E+03  0.80233039128E+02 0.  0.
          6    2    1    2  501    0  0.90750157705E+02  0.14309516968E+03  0.31328125149E+03  0.39556934057E+03  0.17209922126E+03 0.  0.
         24    2    5    5    0    0  0.68092232490E+01  0.64154983822E+02  0.23203477725E+03  0.25449945364E+03  0.82265464098E+02 0.  0.
          5    1    5    5  501    0  0.83940934456E+02  0.78940185858E+02  0.81246474241E+02  0.14106988693E+03  0.47000000000E+01 0. -1.
        -11    1    6    6    0    0 -0.10242672908E+02  0.80016683320E+02  0.16807459760E+03  0.18643136087E+03  0.00000000000E+00 0.  1.
         12    1    6    6    0    0  0.17051896157E+02 -0.15861699497E+02  0.63960179646E+02  0.68068092774E+02  0.00000000000E+00 0. -1.
         -5    1    3    3    0  503  0.25665503240E+02 -0.61573841334E+02 -0.11152043102E+03  0.13003442824E+03  0.47000000000E+01 0.  1.
         13    1    4    4    0    0 -0.23725997740E+02 -0.49408943302E+02 -0.29658951186E+03  0.30161151370E+03  0.00000000000E+00 0. -1.
        -14    1    4    4    0    0 -0.92689663205E+02 -0.32112385044E+02 -0.24079780499E+03  0.26001184940E+03  0.00000000000E+00 0.  1.
</event>
<event>
12    1  0.8407180E-002  0.2218887E+03  0.7818608E-02  0.1132583E+00
         21   -1    0    0  503  502  0.00000000000E+00  0.00000000000E+00  0.12589947493E+03  0.12589947493E+03  0.00000000000E+00 0.  1.
         21   -1    0    0  501  503 -0.00000000000E+00 -0.00000000000E+00 -0.40488325946E+03  0.40488325946E+03  0.00000000000E+00 0. -1.
          6    2    1    2  501    0 -0.16842432093E+02  0.13849513044E+03 -0.19036061587E+03  0.29235552015E+03  0.17253990092E+03 0.  0.
         24    2    3    3    0    0 -0.79372022393E+01  0.15497998338E+03 -0.20376358258E+03  0.26884418220E+03  0.81705582973E+02 0.  0.
         -6    2    1    2    0  502  0.16842432093E+02 -0.13849513044E+03 -0.88623168654E+02  0.23842721425E+03  0.17183975616E+03 0.  0.
        -24    2    5    5    0    0 -0.20945367736E+02 -0.13643237526E+03 -0.11098247028E+03  0.19422086692E+03  0.79700282240E+02 0.  0.
          5    1    3    3  501    0 -0.89052298532E+01 -0.16484852943E+02  0.13402966709E+02  0.23511337943E+02  0.47000000000E+01 0. -1.
        -11    1    4    4    0    0 -0.22589115548E+02  0.41264452866E+02 -0.17643146768E+02  0.50242450572E+02  0.00000000000E+00 0.  1.
         12    1    4    4    0    0  0.14651913309E+02  0.11371553051E+03 -0.18612043582E+03  0.21860173163E+03  0.00000000000E+00 0. -1.
         -5    1    5    5    0  502  0.37787799829E+02 -0.20627551740E+01  0.22359301625E+02  0.44206347327E+02  0.47000000000E+01 0.  1.
         13    1    6    6    0    0  0.28258163089E+02 -0.66096823459E+02 -0.36730612477E+02  0.80724542398E+02  0.00000000000E+00 0. -1.
        -14    1    6    6    0    0 -0.49203530825E+02 -0.70335551803E+02 -0.74251857803E+02  0.11349632452E+03  0.00000000000E+00 0.  1.
</event>
<event>
12    1  0.8407180E-002  0.1793018E+03  0.7818608E-02  0.1168689E+00
         21   -1    0    0  501  502  0.00000000000E+00  0.00000000000E+00  0.37718716603E+03  0.37718716603E+03  0.00000000000E+00 0.  1.
         21   -1    0    0  502  503 -0.00000000000E+00 -0.00000000000E+00 -0.12092155475E+03  0.12092155475E+03  0.00000000000E+00 0.  1.
         -6    2    1    2    0  503 -0.43493057484E+02  0.10950713223E+01 -0.77209063622E+01  0.17946794265E+03  0.17394333794E+03 0.  0.
        -24    2    3    3    0    0 -0.13950714119E+02  0.64794060373E+02  0.15992447300E+02  0.10520675225E+03  0.80123714749E+02 0.  0.
          6    2    1    2  501    0  0.43493057484E+02 -0.10950713223E+01  0.26398651764E+03  0.31864077812E+03  0.17306131503E+03 0.  0.
         24    2    5    5    0    0  0.46000064352E+02  0.63664868851E+02  0.18865493288E+03  0.21915674626E+03  0.79181906285E+02 0.  0.
          5    1    5    5  501    0 -0.25070068687E+01 -0.64759940174E+02  0.75331584754E+02  0.99484031866E+02  0.47000000000E+01 0. -1.
        -11    1    6    6    0    0  0.28720906444E+02  0.45639783586E+02  0.36852671789E+02  0.65314621110E+02  0.00000000000E+00 0.  1.
         12    1    6    6    0    0  0.17279157908E+02  0.18025085265E+02  0.15180226109E+03  0.15384212515E+03  0.00000000000E+00 0. -1.
         -5    1    3    3    0  503 -0.29542343365E+02 -0.63698989051E+02 -0.23713353662E+02  0.74261190399E+02  0.47000000000E+01 0.  1.
         11    1    4    4    0    0 -0.37117991297E+02  0.43398243941E+02 -0.16983770205E+02  0.59578530575E+02  0.00000000000E+00 0. -1.
        -12    1    4    4    0    0  0.23167277178E+02  0.21395816432E+02  0.32976217505E+02  0.45628221679E+02  0.00000000000E+00 0.  1.
</event>
<event>
12    1  0.8407180E-002  0.1775163E+03  0.7818608E-02  0.1170282E+00
         21   -1    0    0  503  502  0.00000000000E+00  0.00000000000E+00  0.50177808634E+03  0.50177808634E+03  0.00000000000E+00 0.  1.
         21   -1    0    0  501  503 -0.00000000000E+00 -0.00000000000E+00 -0.14797605904E+03  0.14797605904E+03  0.00000000000E+00 0.  1.
          6    2    1    2  501    0 -0.24064891603E+02 -0.36169947284E+02 -0.69735215414E+02  0.19052017588E+03  0.17189401692E+03 0.  0.
         24    2    3    3    0    0  0.21227684703E+02  0.34255721616E+02 -0.75806292061E+01  0.86133994344E+02  0.75746484943E+02 0.  0.
         -6    2    1    2    0  502  0.24064891603E+02  0.36169947284E+02  0.42353724271E+03  0.45923396949E+03  0.17211815325E+03 0.  0.
        -24    2    5    5    0    0 -0.25591410939E+02 -0.76578586017E+01  0.34850794344E+03  0.35904359720E+03  0.82103318683E+02 0.  0.
          5    1    3    3  501    0 -0.45292576307E+02 -0.70425668900E+02 -0.62154586208E+02  0.10438618153E+03  0.47000000000E+01 0. -1.
        -11    1    4    4    0    0  0.17442743691E+02 -0.17387346181E+02  0.15860436216E+02  0.29293728879E+02  0.00000000000E+00 0.  1.
         12    1    4    4    0    0  0.37849410125E+01  0.51643067798E+02 -0.23441065422E+02  0.56840265465E+02  0.00000000000E+00 0. -1.
         -5    1    5    5    0  502  0.49656302543E+02  0.43827805885E+02  0.75029299276E+02  0.10019037230E+03  0.47000000000E+01 0.  1.
         13    1    6    6    0    0  0.17377809705E+02  0.60592384040E+01  0.25026664215E+03  0.25094241334E+03  0.00000000000E+00 0. -1.
        -14    1    6    6    0    0 -0.42969220644E+02 -0.13717097006E+02  0.98241301284E+02  0.10810118386E+03  0.00000000000E+00 0.  1.
</event>
<event>
12    1  0.8407180E-002  0.2111739E+03  0.7818608E-02  0.1140679E+00
         21   -1    0    0  503  502  0.00000000000E+00  0.00000000000E+00  0.40582760831E+03  0.40582760831E+03  0.00000000000E+00 0. -1.
         21   -1    0    0  501  503 -0.00000000000E+00 -0.00000000000E+00 -0.11428743344E+03  0.11428743344E+03  0.00000000000E+00 0.  1.
          6    2    1    2  501    0  0.11318369241E+03 -0.42500534801E+02  0.94193392550E+02  0.23122893986E+03  0.17314035851E+03 0.  0.
         24    2    3    3    0    0  0.13930252551E+03 -0.29152440579E+02  0.11134216336E+03  0.19692827803E+03  0.78285445257E+02 0.  0.
         -6    2    1    2    0  502 -0.11318369241E+03  0.42500534801E+02  0.19734678232E+03  0.28888610189E+03  0.17289471850E+03 0.  0.
        -24    2    5    5    0    0 -0.33129136361E+00  0.27343242395E+02  0.13348285304E+03  0.15824882008E+03  0.80481391287E+02 0.  0.
          5    1    3    3  501    0 -0.26118833108E+02 -0.13348094222E+02 -0.17148770806E+02  0.34300661837E+02  0.47000000000E+01 0. -1.
        -13    1    4    4    0    0  0.10586186359E+03 -0.55518723194E+02  0.76649955743E+02  0.14200098064E+03  0.00000000000E+00 0.  1.
         14    1    4    4    0    0  0.33440661927E+02  0.26366282615E+02  0.34692207614E+02  0.54927297387E+02  0.00000000000E+00 0. -1.
         -5    1    5    5    0  502 -0.11285240104E+03  0.15157292406E+02  0.63863929281E+02  0.13063728180E+03  0.47000000000E+01 0.  1.
         13    1    6    6    0    0 -0.18739488964E+02  0.50557083443E+02  0.71518966132E+02  0.89566453817E+02  0.00000000000E+00 0. -1.
        -14    1    6    6    0    0  0.18408197600E+02 -0.23213841048E+02  0.61963886910E+02  0.68682366267E+02  0.00000000000E+00 0.  1.
</event>
<event>
12    1  0.8407180E-002  0.1933505E+03  0.7818608E-02  0.1156299E+00
         21   -1    0    0  503  502  0.00000000000E+00  0.00000000000E+00  0.53658328657E+03  0.53658328657E+03  0.00000000000E+00 0.  1.
         21   -1    0    0  501  503 -0.00000000000E+00 -0.00000000000E+00 -0.20554425905E+03  0.20554425905E+03  0.00000000000E+00 0.  1.
          6    2    1    2  501    0  0.77285426725E+02 -0.82573732065E-01 -0.13817056136E+03  0.23464153645E+03  0.17318343627E+03 0.  0.
         24    2    3    3    0    0  0.39061564789E+02 -0.42033177859E+02 -0.16356925913E+02  0.10017381322E+03  0.80465209538E+02 0.  0.
         -6    2    1    2    0  502 -0.77285426725E+02  0.82573732065E-01  0.46920958888E+03  0.50748600917E+03  0.17723252299E+03 0.  0.
        -24    2    5    5    0    0  0.13517939304E+01  0.28652912265E+01  0.94980979789E+02  0.12504555910E+03  0.81270954762E+02 0.  0.
          5    1    3    3  501    0  0.38223861936E+02  0.41950604127E+02 -0.12181363545E+03  0.13446772323E+03  0.47000000000E+01 0. -1.
        -13    1    4    4    0    0 -0.23092294946E+02 -0.11783753427E+02 -0.17080504988E+02  0.31046007494E+02  0.00000000000E+00 0.  1.
         14    1    4    4    0    0  0.62153859734E+02 -0.30249424432E+02  0.72357907567E+00  0.69127805730E+02  0.00000000000E+00 0. -1.
         -5    1    5    5    0  502 -0.78637220655E+02 -0.27827174944E+01  0.37422860909E+03  0.38244045008E+03  0.47000000000E+01 0.  1.
         13    1    6    6    0    0 -0.27963488512E+01 -0.39060177363E+02  0.43740940663E+02  0.58709342635E+02  0.00000000000E+00 0. -1.
        -14    1    6    6    0    0  0.41481427816E+01  0.41925468590E+02  0.51240039126E+02  0.66336216463E+02  0.00000000000E+00 0.  1.
</event>
<event>
12    1  0.8407180E-002  0.1755514E+03  0.7818608E-02  0.1172456E+00
         21   -1    0    0  501  502  0.00000000000E+00  0.00000000000E+00  0.86311110724E+02  0.86311110724E+02  0.00000000000E+00 0. -1.
         21   -1    0    0  502  503 -0.00000000000E+00 -0.00000000000E+00 -0.37403391918E+03  0.37403391918E+03  0.00000000000E+00 0. -1.
         -6    2    1    2    0  503 -0.45936375354E+00 -0.26662049559E+02 -0.19646527086E+03  0.26347086732E+03  0.17351432036E+03 0.  0.
        -24    2    3    3    0    0  0.36540474500E+02  0.88248494884E+01 -0.33724493075E+02  0.92781210958E+02  0.77832688689E+02 0.  0.
          6    2    1    2  501    0  0.45936375354E+00  0.26662049559E+02 -0.91257537594E+02  0.19687416258E+03  0.17239611893E+03 0.  0.
         24    2    5    5    0    0 -0.31442927208E+02  0.71938144004E+02 -0.86814807641E+02  0.14111119327E+03  0.78814997344E+02 0.  0.
          5    1    5    5  501    0  0.31902290962E+02 -0.45276094445E+02 -0.44427299522E+01  0.55762969310E+02  0.47000000000E+01 0. -1.
        -11    1    6    6    0    0  0.12051220306E+02  0.39741451353E+01  0.92143456015E+01  0.15682152444E+02  0.00000000000E+00 0.  1.
         12    1    6    6    0    0 -0.43494147514E+02  0.67963998869E+02 -0.96029153243E+02  0.12542904083E+03  0.00000000000E+00 0. -1.
         -5    1    3    3    0  503 -0.36999838254E+02 -0.35486899048E+02 -0.16274077779E+03  0.17068965636E+03  0.47000000000E+01 0.  1.
         11    1    4    4    0    0  0.30144763380E+02  0.16291638034E+02 -0.57565916293E+02  0.66992230502E+02  0.00000000000E+00 0. -1.
        -12    1    4    4    0    0  0.63957111207E+01 -0.74667885452E+01  0.23841423218E+02  0.25788980456E+02  0.00000000000E+00 0.  1.
</event>
<event>
12    1  0.8407180E-002  0.1871062E+03  0.7818608E-02  0.1161280E+00
         21   -1    0    0  501  502  0.00000000000E+00  0.00000000000E+00  0.87564034977E+02  0.87564034977E+02  0.00000000000E+00 0. -1.
         21   -1    0    0  502  503 -0.00000000000E+00 -0.00000000000E+00 -0.40844518931E+03  0.40844518931E+03  0.00000000000E+00 0. -1.
         -6    2    1    2    0  503 -0.10175005078E+02 -0.72188389593E+02 -0.12067975178E+03  0.22198489209E+03  0.17146135281E+03 0.  0.
        -24    2    3    3    0    0  0.28993580835E+01 -0.37230337876E+02 -0.15013906514E+03  0.17420471319E+03  0.80068963277E+02 0.  0.
          6    2    1    2  501    0  0.10175005078E+02  0.72188389593E+02 -0.20020140256E+03  0.27402433220E+03  0.17231958312E+03 0.  0.
         24    2    5    5    0    0 -0.58087343763E+02  0.55696389411E+02 -0.88330757563E+02  0.14185449619E+03  0.76447027787E+02 0.  0.
          5    1    5    5  501    0  0.68262348840E+02  0.16492000182E+02 -0.11187064500E+03  0.13216983601E+03  0.47000000000E+01 0. -1.
        -13    1    6    6    0    0 -0.20857498173E+02 -0.15909600822E+02 -0.39841096955E+02  0.47701820038E+02  0.00000000000E+00 0.  1.
         14    1    6    6    0    0 -0.37229845589E+02  0.71605990233E+02 -0.48489660608E+02  0.94152676147E+02  0.00000000000E+00 0. -1.
         -5    1    3    3    0  503 -0.13074363161E+02 -0.34958051716E+02  0.29459313367E+02  0.47780178903E+02  0.47000000000E+01 0.  1.
         13    1    4    4    0    0 -0.25051847291E+02 -0.39914539547E+02 -0.44207755081E+02  0.64614945092E+02  0.00000000000E+00 0. -1.
        -14    1    4    4    0    0  0.27951205374E+02  0.26842016710E+01 -0.10593131006E+03  0.10958976810E+03  0.00000000000E+00 0.  1.
</event>
<event>
12    1  0.8407180E-002  0.3237745E+03  0.7818608E-02  0.1074139E+00
         21   -1    0    0  501  502  0.00000000000E+00  0.00000000000E+00  0.52171693641E+03  0.52171693641E+03  0.00000000000E+00 0. -1.
         21   -1    0    0  502  503 -0.00000000000E+00 -0.00000000000E+00 -0.22660630333E+03  0.22660630333E+03  0.00000000000E+00 0.  1.
         -6    2    1    2    0  503 -0.15155969612E+03 -0.22566710897E+03  0.19171007560E+02  0.32434154740E+03  0.17588043178E+03 0.  0.
        -24    2    3    3    0    0 -0.11171867483E+03 -0.12712325550E+03  0.77338475644E+02  0.20308255856E+03  0.81362776371E+02 0.  0.
          6    2    1    2  501    0  0.15155969612E+03  0.22566710897E+03  0.27593962552E+03  0.42398169234E+03  0.17240015356E+03 0.  0.
         24    2    5    5    0    0  0.12309726636E+03  0.92906126195E+02  0.95997591882E+02  0.19851148605E+03  0.80042408610E+02 0.  0.
          5    1    5    5  501    0  0.28462429763E+02  0.13276098277E+03  0.17994203364E+03  0.22547020629E+03  0.47000000000E+01 0. -1.
        -11    1    6    6    0    0  0.52953202400E+02  0.90222445086E+01  0.66054927373E+02  0.85139273961E+02  0.00000000000E+00 0.  1.
         12    1    6    6    0    0  0.70144063960E+02  0.83883881686E+02  0.29942664509E+02  0.11337221209E+03  0.00000000000E+00 0. -1.
         -5    1    3    3    0  503 -0.39841021290E+02 -0.98543853464E+02 -0.58167468084E+02  0.12125898885E+03  0.47000000000E+01 0.  1.
         13    1    4    4    0    0 -0.27339910406E+02  0.91304144563E+00  0.34192238390E+02  0.43788280531E+02  0.00000000000E+00 0. -1.
        -14    1    4    4    0    0 -0.84378764427E+02 -0.12803629695E+03  0.43146237254E+02  0.15929427803E+03  0.00000000000E+00 0.  1.
</event>
<event>
12    1  0.8407180E-002  0.2418884E+03  0.7818608E-02  0.1118652E+00
         21   -1    0    0  501  502  0.00000000000E+00  0.00000000000E+00  0.36893626232E+03  0.36893626232E+03  0.00000000000E+00 0. -1.
         21   -1    0    0  502  503 -0.00000000000E+00 -0.00000000000E+00 -0.37076538098E+03  0.37076538098E+03  0.00000000000E+00 0.  1.
         -6    2    1    2    0  503  0.20012670824E+02 -0.16881860231E+03 -0.28098815919E+03  0.37032409877E+03  0.17112967319E+03 0.  0.
        -24    2    3    3    0    0  0.22052574342E+02 -0.17214601807E+03 -0.16071756441E+03  0.24989844174E+03  0.80613448648E+02 0.  0.
          6    2    1    2  501    0 -0.20012670824E+02  0.16881860231E+03  0.27915904052E+03  0.36937754454E+03  0.17207490528E+03 0.  0.
         24    2    5    5    0    0 -0.17812656455E+02  0.11701491858E+03  0.82924661982E+02  0.16635418866E+03  0.82385888476E+02 0.  0.
          5    1    5    5  501    0 -0.22000143693E+01  0.51803683729E+02  0.19623437854E+03  0.20302335588E+03  0.47000000000E+01 0. -1.
        -13    1    6    6    0    0 -0.17316532208E+02 -0.31120257753E+01 -0.40400334546E+01  0.18051838202E+02  0.00000000000E+00 0.  1.
         14    1    6    6    0    0 -0.49612424609E+00  0.12012694435E+03  0.86964695436E+02  0.14830235046E+03  0.00000000000E+00 0. -1.
         -5    1    3    3    0  503 -0.20399035183E+01  0.33274157644E+01 -0.12027059477E+03  0.12042565702E+03  0.47000000000E+01 0.  1.
         13    1    4    4    0    0  0.21115022553E+02 -0.37536206701E+02 -0.39226723778E+01  0.43245789963E+02  0.00000000000E+00 0. -1.
        -14    1    4    4    0    0  0.93755178896E+00 -0.13460981137E+03 -0.15679489203E+03  0.20665265178E+03  0.00000000000E+00 0.  1.
</event>
<event>
12    1  0.8407180E-002  0.1850024E+03  0.7818608E-02  0.1163227E+00
         21   -1    0    0  503  502  0.00000000000E+00  0.00000000000E+00  0.20167028620E+03  0.20167028620E+03  0.00000000000E+00 0. -1.
         21   -1    0    0  501  503 -0.00000000000E+00 -0.00000000000E+00 -0.21650515251E+03  0.21650515251E+03  0.00000000000E+00 0. -1.
          6    2    1    2  501    0 -0.56571539211E+02 -0.38180939724E+02 -0.10536062526E+03  0.21290083902E+03  0.17195285021E+03 0.  0.
         24    2    3    3    0    0 -0.62763390992E+02 -0.55687884365E+02 -0.10404256098E+02  0.11603167890E+03  0.79465201499E+02 0.  0.
         -6    2    1    2    0  502  0.56571539211E+02  0.38180939724E+02  0.90525758952E+02  0.20527459969E+03  0.17112751104E+03 0.  0.
        -24    2    5    5    0    0  0.21154751328E+02  0.41354898853E+02  0.12024068617E+03  0.15869681764E+03  0.92569466651E+02 0.  0.
          5    1    3    3  501    0  0.61918517809E+01  0.17506944641E+02 -0.94956369158E+02  0.96869160122E+02  0.47000000000E+01 0. -1.
        -13    1    4    4    0    0  0.18484423156E+02 -0.98603495481E+01  0.48693270307E+01  0.21508387628E+02  0.00000000000E+00 0.  1.
         14    1    4    4    0    0 -0.81247814148E+02 -0.45827534817E+02 -0.15273583129E+02  0.94523291271E+02  0.00000000000E+00 0. -1.
         -5    1    5    5    0  502  0.35416787883E+02 -0.31739591294E+01 -0.29714927220E+02  0.46577782044E+02  0.47000000000E+01 0.  1.
         13    1    6    6    0    0  0.10053036968E+02  0.71096181837E+02  0.84855071207E+02  0.11115805744E+03  0.00000000000E+00 0. -1.
        -14    1    6    6    0    0  0.11101714360E+02 -0.29741282984E+02  0.35385614965E+02  0.47538760204E+02  0.00000000000E+00 0.  1.
</event>
<event>
12    1  0.8407180E-002  0.2040766E+03  0.7818608E-02  0.1147164E+00
         21   -1    0    0  501  502  0.00000000000E+00  0.00000000000E+00  0.19815997142E+03  0.19815997142E+03  0.00000000000E+00 0. -1.
         21   -1    0    0  502  503 -0.00000000000E+00 -0.00000000000E+00 -0.24994686533E+03  0.24994686533E+03  0.00000000000E+00 0.  1.
         -6    2    1    2    0  503  0.10064923943E+03  0.44839519524E+02 -0.11991296231E+03  0.23669894245E+03  0.17177432554E+03 0.  0.
        -24    2    3    3    0    0  0.11944838055E+03  0.16900553569E+02 -0.39517342044E+02  0.14940897003E+03  0.78790073476E+02 0.  0.
          6    2    1    2  501    0 -0.10064923943E+03 -0.44839519524E+02  0.68126068404E+02  0.21140789430E+03  0.16706670724E+03 0.  0.
         24    2    5    5    0    0 -0.21368645168E+02  0.13314789950E+02 -0.14757899174E+02  0.82725423008E+02  0.77406701235E+02 0.  0.
          5    1    5    5  501    0 -0.79280594260E+02 -0.58154309474E+02  0.82883967577E+02  0.12868247129E+03  0.47000000000E+01 0. -1.
        -11    1    6    6    0    0 -0.49813435410E+02  0.93797185680E+01 -0.56094282059E+00  0.50691933526E+02  0.00000000000E+00 0.  1.
         12    1    6    6    0    0  0.28444790242E+02  0.39350713822E+01 -0.14196956353E+02  0.32033489482E+02  0.00000000000E+00 0. -1.
         -5    1    3    3    0  503 -0.18799141118E+02  0.27938965955E+02 -0.80395620269E+02  0.87289972413E+02  0.47000000000E+01 0.  1.
         13    1    4    4    0    0  0.38019232467E+02 -0.12130079357E+02  0.19816602078E+02  0.44556689515E+02  0.00000000000E+00 0. -1.
        -14    1    4    4    0    0  0.81429148079E+02  0.29030632926E+02 -0.59333944122E+02  0.10485228052E+03  0.00000000000E+00 0.  1.
</event>
<event>
12    1  0.8407180E-002  0.1729889E+03  0.7818608E-02  0.1174786E+00
         21   -1    0    0  503  502  0.00000000000E+00  0.00000000000E+00  0.78505132030E+02  0.78505132030E+02  0.00000000000E+00 0.  1.
         21   -1    0    0  501  503 -0.00000000000E+00 -0.00000000000E+00 -0.38647022055E+03  0.38647022055E+03  0.00000000000E+00 0.  1.
          6    2    1    2  501    0 -0.89564071467E+01  0.68318849967E+01 -0.18155749146E+03  0.25072310422E+03  0.17254582117E+03 0.  0.
         24    2    3    3    0    0  0.17526692165E+02  0.24725716243E+02 -0.25428108893E+02  0.91286540518E+02  0.82268449456E+02 0.  0.
         -6    2    1    2    0  502  0.89564071467E+01 -0.68318849967E+01 -0.12640759706E+03  0.21425224836E+03  0.17262170620E+03 0.  0.
        -24    2    5    5    0    0  0.52403794820E+02 -0.38349191724E+02 -0.36642649878E+02  0.10955816131E+03  0.80271344221E+02 0.  0.
          5    1    3    3  501    0 -0.26483099311E+02 -0.17893831247E+02 -0.15612938256E+03  0.15943656370E+03  0.47000000000E+01 0. -1.
        -11    1    4    4    0    0 -0.28980412498E+02 -0.85731781046E+01 -0.12107416281E+02  0.32556922772E+02  0.00000000000E+00 0.  1.
         12    1    4    4    0    0  0.46507104663E+02  0.33298894348E+02 -0.13320692612E+02  0.58729617746E+02  0.00000000000E+00 0. -1.
         -5    1    5    5    0  502 -0.43447387673E+02  0.31517306727E+02 -0.89764947187E+02  0.10469408705E+03  0.47000000000E+01 0.  1.
         11    1    6    6    0    0  0.41200900793E+00 -0.27244662935E+02  0.18520333366E+02  0.32946079552E+02  0.00000000000E+00 0. -1.
        -12    1    6    6    0    0  0.51991785812E+02 -0.11104528789E+02 -0.55162983244E+02  0.76612081762E+02  0.00000000000E+00 0.  1.
</event>
<event>
12    1  0.8407180E-002  0.2184067E+03  0.7818608E-02  0.1135157E+00
         21   -1    0    0  501  502  0.00000000000E+00  0.00000000000E+00  0.49682436290E+03  0.49682436290E+03  0.00000000000E+00 0.  1.
         21   -1    0    0  502  503 -0.00000000000E+00 -0.00000000000E+00 -0.95826539259E+02  0.95826539259E+02  0.00000000000E+00 0.  1.
         -6    2    1    2    0  503 -0.11462867007E+03  0.68382486310E+02  0.20198550731E+03  0.29748884113E+03  0.17287443131E+03 0.  0.
        -24    2    3    3    0    0  0.11129500070E+02  0.20167670226E+02  0.72363191971E+02  0.11050269063E+03  0.80273360397E+02 0.  0.
          6    2    1    2  501    0  0.11462867007E+03 -0.68382486310E+02  0.19901231633E+03  0.29516206102E+03  0.17233352483E+03 0.  0.
         24    2    5    5    0    0  0.19048677295E+02 -0.59298892315E+02  0.16614028175E+03  0.19357117877E+03  0.77382151005E+02 0.  0.
          5    1    5    5  501    0  0.95579992778E+02 -0.90835939950E+01  0.32872034577E+02  0.10159088225E+03  0.47000000000E+01 0. -1.
        -13    1    6    6    0    0  0.22696701345E+02 -0.13544449521E+02  0.61635807303E+01  0.27140045913E+02  0.00000000000E+00 0.  1.
         14    1    6    6    0    0 -0.36480240496E+01 -0.45754442794E+02  0.15997670102E+03  0.16643113286E+03  0.00000000000E+00 0. -1.
         -5    1    3    3    0  503 -0.12575817014E+03  0.48214816084E+02  0.12962231534E+03  0.18698615051E+03  0.47000000000E+01 0.  1.
         11    1    4    4    0    0 -0.11726056122E+02  0.31611515591E+02  0.77423291506E+02  0.84446162600E+02  0.00000000000E+00 0. -1.
        -12    1    4    4    0    0  0.22855556191E+02 -0.11443845365E+02 -0.50600995347E+01  0.26056528028E+02  0.00000000000E+00 0.  1.
</event>
<event>
12    1  0.8407180E-002  0.1805005E+03  0.7818608E-02  0.1168692E+00
         21   -1    0    0  503  502  0.00000000000E+00  0.00000000000E+00  0.16996768789E+03  0.16996768789E+03  0.00000000000E+00 0. -1.
         21   -1    0    0  501  503 -0.00000000000E+00 -0.00000000000E+00 -0.15393214008E+04  0.15393214008E+04  0.00000000000E+00 0. -1.
          6    2    1    2  501    0  0.29966080326E+02 -0.13476032381E+02 -0.14873767558E+04  0.14982890425E+04  0.17748484956E+03 0.  0.
         24    2    3    3    0    0  0.26758203311E+02 -0.56394875222E+02 -0.49741751039E+03  0.50738353990E+03  0.78214407406E+02 0.  0.
         -6    2    1    2    0  502 -0.29966080326E+02  0.13476032381E+02  0.11802304291E+03  0.21100004615E+03  0.17179060334E+03 0.  0.
        -24    2    5    5    0    0  0.23711330209E+02 -0.45539226488E+02  0.56414106603E+02  0.11009506008E+03  0.79387168356E+02 0.  0.
          5    1    3    3  501    0  0.32078770151E+01  0.42918842841E+02 -0.98995924542E+03  0.99090550263E+03  0.47000000000E+01 0. -1.
        -13    1    4    4    0    0  0.53449739760E+02 -0.48618036284E+02 -0.35532631576E+03  0.36259809542E+03  0.00000000000E+00 0.  1.
         14    1    4    4    0    0 -0.26691536449E+02 -0.77768389378E+01 -0.14209119463E+03  0.14478544448E+03  0.00000000000E+00 0. -1.
         -5    1    5    5    0  502 -0.53677410535E+02  0.59015258869E+02  0.61608936307E+02  0.10090498607E+03  0.47000000000E+01 0.  1.
         13    1    6    6    0    0 -0.14025232682E+02 -0.45500157375E+02  0.73178763327E+01  0.48171804896E+02  0.00000000000E+00 0. -1.
        -14    1    6    6    0    0  0.37736562891E+02 -0.39069113338E-01  0.49096230271E+02  0.61923255179E+02  0.00000000000E+00 0.  1.
</event>
<event>
12    1  0.8407180E-002  0.2294875E+03  0.7818608E-02  0.1127061E+00
         21   -1    0    0  501  502  0.00000000000E+00  0.00000000000E+00  0.13364308497E+03  0.13364308497E+03  0.00000000000E+00 0. -1.
         21   -1    0    0  502  503 -0.00000000000E+00 -0.00000000000E+00 -0.44095882417E+03  0.44095882417E+03  0.00000000000E+00 0. -1.
         -6    2    1    2    0  503 -0.11294163305E+03  0.99925234084E+02 -0.24782140817E+03  0.33752785185E+03  0.17253618619E+03 0.  0.
        -24    2    3    3    0    0 -0.10388675728E+03  0.13573821456E+03 -0.18293457984E+03  0.26271507997E+03  0.79604217932E+02 0.  0.
          6    2    1    2  501    0  0.11294163305E+03 -0.99925234084E+02 -0.59494331035E+02  0.23707405729E+03  0.17298458987E+03 0.  0.
         24    2    5    5    0    0  0.51502991646E+02 -0.37129269965E+01  0.21330844908E+02  0.97122945259E+02  0.79445060111E+02 0.  0.
          5    1    5    5  501    0  0.61438641408E+02 -0.96212307088E+02 -0.80825175944E+02  0.13995111203E+03  0.47000000000E+01 0. -1.
        -13    1    6    6    0    0  0.31871099191E+01  0.19455574296E+02 -0.21023645525E+02  0.28821358608E+02  0.00000000000E+00 0.  1.
         14    1    6    6    0    0  0.48315881727E+02 -0.23168501293E+02  0.42354490434E+02  0.68301586651E+02  0.00000000000E+00 0. -1.
         -5    1    3    3    0  503 -0.90548757735E+01 -0.35812980477E+02 -0.64886828328E+02  0.74812771881E+02  0.47000000000E+01 0.  1.
         13    1    4    4    0    0 -0.55039897436E+02  0.12757051902E+03 -0.13113638980E+03  0.19105072720E+03  0.00000000000E+00 0. -1.
        -14    1    4    4    0    0 -0.48846859844E+02  0.81676955411E+01 -0.51798190033E+02  0.71664352769E+02  0.00000000000E+00 0.  1.
</event>
<event>
12    1  0.8407180E-002  0.2390984E+03  0.7818608E-02  0.1120560E+00
         21   -1    0    0  501  502  0.00000000000E+00  0.00000000000E+00  0.25048507258E+04  0.25048507258E+04  0.00000000000E+00 0.  1.
         21   -1    0    0  502  503 -0.00000000000E+00 -0.00000000000E+00 -0.29720825823E+02  0.29720825823E+02  0.00000000000E+00 0. -1.
         -6    2    1    2    0  503 -0.13314745985E+03  0.95650316407E+02  0.62093547341E+03  0.66502480869E+03  0.17268440852E+03 0.  0.
        -24    2    3    3    0    0 -0.71868588373E+02  0.43276414563E+02  0.53350551867E+03  0.54601131085E+03  0.80388252071E+02 0.  0.
          6    2    1    2  501    0  0.13314745985E+03 -0.95650316407E+02  0.18541944266E+04  0.18695467429E+04  0.17404259074E+03 0.  0.
         24    2    5    5    0    0  0.29798701147E+02 -0.13621922182E+02  0.96036011023E+03  0.96601395523E+03  0.99085321950E+02 0.  0.
          5    1    5    5  501    0  0.10334875870E+03 -0.82028394225E+02  0.89383431636E+03  0.90353278772E+03  0.47000000000E+01 0. -1.
        -11    1    6    6    0    0  0.45132731224E+02  0.28790474189E+02  0.67417258587E+03  0.67629470675E+03  0.00000000000E+00 0.  1.
         12    1    6    6    0    0 -0.15334030077E+02 -0.42412396371E+02  0.28618752436E+03  0.28971924848E+03  0.00000000000E+00 0. -1.
         -5    1    3    3    0  503 -0.61278871474E+02  0.52373901844E+02  0.87429954737E+02  0.11901349784E+03  0.47000000000E+01 0.  1.
         11    1    4    4    0    0  0.11732010606E+02  0.14291326285E+02  0.33748454018E+02  0.38481686923E+02  0.00000000000E+00 0. -1.
        -12    1    4    4    0    0 -0.83600598979E+02  0.28985088278E+02  0.49975706465E+03  0.50752962392E+03  0.00000000000E+00 0.  1.
</event>
<event>
12    1  0.8407180E-002  0.2061633E+03  0.7818608E-02  0.1144642E+00
         21   -1    0    0  503  502  0.00000000000E+00  0.00000000000E+00  0.12186096311E+03  0.12186096311E+03  0.00000000000E+00 0. -1.
         21   -1    0    0  501  503 -0.00000000000E+00 -0.00000000000E+00 -0.35848831091E+03  0.35848831091E+03  0.00000000000E+00 0.  1.
          6    2    1    2  501    0  0.11292179970E+03  0.13701937546E+02 -0.15784114149E+03  0.25964453770E+03  0.17193715151E+03 0.  0.
         24    2    3    3    0    0  0.13020445301E+03  0.55309805333E+02 -0.12244219024E+03  0.20215470802E+03  0.76564103029E+02 0.  0.
         -6    2    1    2    0  502 -0.11292179970E+03 -0.13701937546E+02 -0.78786206307E+02  0.22070473632E+03  0.17194254387E+03 0.  0.
        -24    2    5    5    0    0 -0.96945678884E+02 -0.72033125456E+02 -0.49705846180E+02  0.15343274167E+03  0.80521421094E+02 0.  0.
          5    1    3    3  501    0 -0.17282653310E+02 -0.41607867787E+02 -0.35398951247E+02  0.57489829680E+02  0.47000000000E+01 0. -1.
        -11    1    4    4    0    0 -0.75542131889E+01  0.10628192971E+02 -0.87018188937E+00  0.13068352584E+02  0.00000000000E+00 0.  1.
         12    1    4    4    0    0  0.13775866620E+03  0.44681612362E+02 -0.12157200835E+03  0.18908635543E+03  0.00000000000E+00 0. -1.
         -5    1    5    5    0  502 -0.15976120815E+02  0.58331187910E+02 -0.29080360127E+02  0.67271994652E+02  0.47000000000E+01 0.  1.
         13    1    6    6    0    0 -0.11085245716E+03 -0.63955408163E+02 -0.49862878198E+02  0.13734943798E+03  0.00000000000E+00 0. -1.
        -14    1    6    6    0    0  0.13906778272E+02 -0.80777172935E+01  0.15703201865E+00  0.16083303692E+02  0.00000000000E+00 0.  1.
</event>
<event>
12    1  0.8407180E-002  0.1908668E+03  0.7818608E-02  0.1158057E+00
         21   -1    0    0  501  502  0.00000000000E+00  0.00000000000E+00  0.13247594090E+03  0.13247594090E+03  0.00000000000E+00 0. -1.
         21   -1    0    0  502  503 -0.00000000000E+00 -0.00000000000E+00 -0.29701886864E+03  0.29701886864E+03  0.00000000000E+00 0.  1.
         -6    2    1    2    0  503  0.36384581184E+02 -0.49058355141E+02 -0.14417533747E+03  0.23920004093E+03  0.18083022891E+03 0.  0.
        -24    2    3    3    0    0  0.62543586601E+02 -0.84395268750E+02 -0.14394202019E+03  0.19498312715E+03  0.79150824909E+02 0.  0.
          6    2    1    2  501    0 -0.36384581184E+02  0.49058355141E+02 -0.20367590268E+02  0.19029476860E+03  0.17907177406E+03 0.  0.
         24    2    5    5    0    0 -0.23055456700E+02 -0.39385132959E+01 -0.75862890062E+02  0.11226815825E+03  0.79384477687E+02 0.  0.
          5    1    5    5  501    0 -0.13329124485E+02  0.52996868437E+02  0.55495299794E+02  0.78026610352E+02  0.47000000000E+01 0. -1.
        -11    1    6    6    0    0 -0.54262435364E+01 -0.38494212706E+02 -0.57350769055E+02  0.69284624860E+02  0.00000000000E+00 0.  1.
         12    1    6    6    0    0 -0.17629213163E+02  0.34555699410E+02 -0.18512121007E+02  0.42983533390E+02  0.00000000000E+00 0. -1.
         -5    1    3    3    0  503 -0.26159005416E+02  0.35336913609E+02 -0.23331728566E+00  0.44216913786E+02  0.47000000000E+01 0.  1.
         13    1    4    4    0    0 -0.88525980270E+01 -0.44404168154E+02 -0.28579419661E+02  0.53543271001E+02  0.00000000000E+00 0. -1.
        -14    1    4    4    0    0  0.71396184628E+02 -0.39991100596E+02 -0.11536260053E+03  0.14143985614E+03  0.00000000000E+00 0.  1.
</event>
<event>
12    1  0.8407180E-002  0.2352552E+03  0.7818608E-02  0.1123003E+00
         21   -1    0    0  501  502  0.00000000000E+00  0.00000000000E+00  0.11335565078E+04  0.11335565078E+04  0.00000000000E+00 0.  1.
         21   -1    0    0  502  503 -0.00000000000E+00 -0.00000000000E+00 -0.11464635700E+03  0.11464635700E+03  0.00000000000E+00 0.  1.
         -6    2    1    2    0  503 -0.86951727505E+02  0.13568984216E+03  0.36550170491E+02  0.23807753518E+03  0.17138454309E+03 0.  0.
        -24    2    3    3    0    0 -0.97868921345E+02  0.79536588001E+02 -0.30166014284E+02  0.15006894250E+03  0.75540085308E+02 0.  0.
          6    2    1    2  501    0  0.86951727505E+02 -0.13568984216E+03  0.98235998036E+03  0.10101253297E+04  0.17131758358E+03 0.  0.
         24    2    5    5    0    0  0.11394792253E+03 -0.14852745245E+03  0.89266331700E+03  0.91546181927E+03  0.78600329737E+02 0.  0.
          5    1    5    5  501    0 -0.26996195027E+02  0.12837610288E+02  0.89696663354E+02  0.94663510397E+02  0.47000000000E+01 0. -1.
        -11    1    6    6    0    0 -0.63202062871E+01 -0.25810204641E+02  0.20225857594E+03  0.20399667451E+03  0.00000000000E+00 0.  1.
         12    1    6    6    0    0  0.12026812882E+03 -0.12271724781E+03  0.69040474107E+03  0.71146514476E+03  0.00000000000E+00 0. -1.
         -5    1    3    3    0  503  0.10917193840E+02  0.56153254162E+02  0.66716184774E+02  0.88008592678E+02  0.47000000000E+01 0.  1.
         13    1    4    4    0    0 -0.81502660831E+01  0.78784485674E+01  0.21385759899E+02  0.24204287131E+02  0.00000000000E+00 0. -1.
        -14    1    4    4    0    0 -0.89718655262E+02  0.71658139434E+02 -0.51551774183E+02  0.12586465537E+03  0.00000000000E+00 0.  1.
</event>
<event>
12    1  0.8407180E-002  0.2277149E+03  0.7818608E-02  0.1128373E+00
         21   -1    0    0  501  502  0.00000000000E+00  0.00000000000E+00  0.58148147666E+03  0.58148147666E+03  0.00000000000E+00 0. -1.
         21   -1    0    0  502  503 -0.00000000000E+00 -0.00000000000E+00 -0.92702816614E+02  0.92702816614E+02  0.00000000000E+00 0. -1.
         -6    2    1    2    0  503  0.58068068692E+02 -0.13638344802E+03  0.17667381417E+03  0.28821472893E+03  0.17286337920E+03 0.  0.
        -24    2    3    3    0    0  0.36635430222E+00 -0.40610848001E+02  0.17930652589E+02  0.93989704531E+02  0.82844318241E+02 0.  0.
          6    2    1    2  501    0 -0.58068068692E+02  0.13638344802E+03  0.31210484588E+03  0.38596956434E+03  0.17201954621E+03 0.  0.
         24    2    5    5    0    0 -0.31660953515E+02  0.36556179455E+02  0.24588123358E+03  0.26320769686E+03  0.80510498865E+02 0.  0.
          5    1    5    5  501    0 -0.26407115177E+02  0.99827268561E+02  0.66223612302E+02  0.12276186748E+03  0.47000000000E+01 0. -1.
        -11    1    6    6    0    0  0.23332733929E+02  0.41930007058E+01  0.11720919780E+03  0.11958258141E+03  0.00000000000E+00 0.  1.
         12    1    6    6    0    0 -0.54993687444E+02  0.32363178749E+02  0.12867203577E+03  0.14362511545E+03  0.00000000000E+00 0. -1.
         -5    1    3    3    0  503  0.57701714389E+02 -0.95772600015E+02  0.15874316158E+03  0.19422502440E+03  0.47000000000E+01 0.  1.
         11    1    4    4    0    0 -0.17396948403E+02 -0.61932981881E+02  0.15218366226E+02  0.66105572601E+02  0.00000000000E+00 0. -1.
        -12    1    4    4    0    0  0.17763302705E+02  0.21322133880E+02  0.27122863640E+01  0.27884131930E+02  0.00000000000E+00 0.  1.
</event>
<event>
12    1  0.8407180E-002  0.2037674E+03  0.7818608E-02  0.1146690E+00
         21   -1    0    0  503  502  0.00000000000E+00  0.00000000000E+00  0.55485825585E+02  0.55485825585E+02  0.00000000000E+00 0.  1.
         21   -1    0    0  501  503 -0.00000000000E+00 -0.00000000000E+00 -0.14453869894E+04  0.14453869894E+04  0.00000000000E+00 0.  1.
          6    2    1    2  501    0  0.91320246502E+02 -0.60356610093E+02 -0.12163122946E+04  0.12331896952E+04  0.17134444450E+03 0.  0.
         24    2    3    3    0    0  0.12020121583E+03 -0.39125095005E+02 -0.11254959723E+04  0.11354421530E+04  0.80675856092E+02 0.  0.
         -6    2    1    2    0  502 -0.91320246502E+02  0.60356610093E+02 -0.17358886926E+03  0.26768311978E+03  0.17186869780E+03 0.  0.
        -24    2    5    5    0    0  0.22614044864E+00  0.14587855351E+02 -0.17911574968E+02  0.81315124055E+02  0.77964531801E+02 0.  0.
          5    1    3    3  501    0 -0.28880969325E+02 -0.21231515088E+02 -0.90816322249E+02  0.97747542214E+02  0.47000000000E+01 0. -1.
        -11    1    4    4    0    0  0.10403919289E+03 -0.62054886760E+02 -0.95520527122E+03  0.96285620567E+03  0.00000000000E+00 0.  1.
         12    1    4    4    0    0  0.16162022941E+02  0.22929791755E+02 -0.17029070111E+03  0.17258594734E+03  0.00000000000E+00 0. -1.
         -5    1    5    5    0  502 -0.91546386951E+02  0.45768754742E+02 -0.15567729429E+03  0.18636799573E+03  0.47000000000E+01 0.  1.
         13    1    6    6    0    0  0.29291982431E+02 -0.15555317764E+01 -0.33556656238E+02  0.44570047024E+02  0.00000000000E+00 0. -1.
        -14    1    6    6    0    0 -0.29065841982E+02  0.16143387127E+02  0.15645081270E+02  0.36745077031E+02  0.00000000000E+00 0.  1.
</event>
<event>
12    1  0.8407180E-002  0.1849635E+03  0.7818608E-02  0.1163921E+00
         21   -1    0    0  503  502  0.00000000000E+00  0.00000000000E+00  0.19297722794E+03  0.19297722794E+03  0.00000000000E+00 0. -1.
         21   -1    0    0  501  503 -0.00000000000E+00 -0.00000000000E+00 -0.26715262783E+03  0.26715262783E+03  0.00000000000E+00 0. -1.
          6    2    1    2  501    0  0.61482600586E+02 -0.28666150629E+02 -0.17324265099E+03  0.25342557451E+03  0.17207454004E+03 0.  0.
         24    2    3    3    0    0 -0.35025959566E+02 -0.14120363904E+02 -0.78083898845E+02  0.11703363852E+03  0.78572099161E+02 0.  0.
         -6    2    1    2    0  502 -0.61482600586E+02  0.28666150629E+02  0.99067251091E+02  0.20670428125E+03  0.16825718791E+03 0.  0.
        -24    2    5    5    0    0  0.23692758054E+02  0.44757747075E+02  0.34353527663E+02  0.98428073361E+02  0.77092918320E+02 0.  0.
          5    1    3    3  501    0  0.96508560152E+02 -0.14545786726E+02 -0.95158752141E+02  0.13639193599E+03  0.47000000000E+01 0. -1.
        -13    1    4    4    0    0 -0.58882831471E+01 -0.21336978878E+02  0.97685909727E+01  0.24194295106E+02  0.00000000000E+00 0.  1.
         14    1    4    4    0    0 -0.29137676419E+02  0.72166149743E+01 -0.87852489818E+02  0.92839343416E+02  0.00000000000E+00 0. -1.
         -5    1    5    5    0  502 -0.85175358640E+02 -0.16091596445E+02  0.64713723428E+02  0.10827620789E+03  0.47000000000E+01 0.  1.
         11    1    6    6    0    0 -0.58472582400E+00  0.55501172560E+02  0.43317832296E+02  0.70407078158E+02  0.00000000000E+00 0. -1.
        -12    1    6    6    0    0  0.24277483878E+02 -0.10743425485E+02 -0.89643046325E+01  0.28020995203E+02  0.00000000000E+00 0.  1.
</event>
<event>
12    1  0.8407180E-002  0.2592016E+03  0.7818608E-02  0.1107710E+00
         21   -1    0    0  503  502  0.00000000000E+00  0.00000000000E+00  0.73298252144E+03  0.73298252144E+03  0.00000000000E+00 0. -1.
         21   -1    0    0  501  503 -0.00000000000E+00 -0.00000000000E+00 -0.18509423221E+03  0.18509423221E+03  0.00000000000E+00 0.  1.
          6    2    1    2  501    0 -0.17948611457E+03  0.74084364126E+02 -0.52399152373E+02  0.26444492824E+03  0.17170233128E+03 0.  0.
         24    2    3    3    0    0 -0.80369989746E+02 -0.24039430618E+01 -0.79277642026E+02  0.13630824128E+03  0.76353637258E+02 0.  0.
         -6    2    1    2    0  502  0.17948611457E+03 -0.74084364126E+02  0.60028744160E+03  0.65363182541E+03  0.17083849777E+03 0.  0.
        -24    2    5    5    0    0  0.20347763017E+03 -0.73011429553E+02  0.50255784229E+03  0.55288507067E+03  0.79898070717E+02 0.  0.
          5    1    3    3  501    0 -0.99116124825E+02  0.76488307188E+02  0.26878489653E+02  0.12813668695E+03  0.47000000000E+01 0. -1.
        -11    1    4    4    0    0 -0.88771944021E+02  0.16385964013E+02 -0.63346091117E+02  0.11028003048E+03  0.00000000000E+00 0.  1.
         12    1    4    4    0    0  0.84019542746E+01 -0.18789907075E+02 -0.15931550909E+02  0.26028210808E+02  0.00000000000E+00 0. -1.
         -5    1    5    5    0  502 -0.23991515596E+02 -0.10729345731E+01  0.97729599311E+02  0.10074675474E+03  0.47000000000E+01 0.  1.
         11    1    6    6    0    0  0.81139896662E+02 -0.65963286543E+02  0.27887403083E+03  0.29783479158E+03  0.00000000000E+00 0. -1.
        -12    1    6    6    0    0  0.12233773351E+03 -0.70481430105E+01  0.22368381146E+03  0.25505027910E+03  0.00000000000E+00 0.  1.
</event>
<event>
12    1  0.8407180E-002  0.3589503E+03  0.7818608E-02  0.1059007E+00
         21   -1    0    0  503  502  0.00000000000E+00  0.00000000000E+00  0.43865581617E+03  0.43865581617E+03  0.00000000000E+00 0. -1.
         21   -1    0    0  501  503 -0.00000000000E+00 -0.00000000000E+00 -0.29436915336E+03  0.29436915336E+03  0.00000000000E+00 0.  1.
          6    2    1    2  501    0 -0.31369084470E+03  0.30429451399E+02  0.54326888770E+02  0.36297348482E+03  0.17166957297E+03 0.  0.
         24    2    3    3    0    0 -0.22947405476E+03  0.71071624506E+02  0.81027474278E+02  0.26561196671E+03  0.79213304794E+02 0.  0.
         -6    2    1    2    0  502  0.31369084470E+03 -0.30429451399E+02  0.89959774034E+02  0.37005148471E+03  0.17180641091E+03 0.  0.
        -24    2    5    5    0    0  0.28583823334E+03 -0.19230812026E+02  0.12595154887E+03  0.32294866802E+03  0.79741643738E+02 0.  0.
          5    1    3    3  501    0 -0.84216789938E+02 -0.40642173107E+02 -0.26700585507E+02  0.97361518110E+02  0.47000000000E+01 0. -1.
        -13    1    4    4    0    0 -0.33975048378E+02  0.92332729278E+01 -0.16113408722E+02  0.38719493564E+02  0.00000000000E+00 0.  1.
         14    1    4    4    0    0 -0.19549900638E+03  0.61838351578E+02  0.97140883000E+02  0.22689247315E+03  0.00000000000E+00 0. -1.
         -5    1    5    5    0  502  0.27852611362E+02 -0.11198639373E+02 -0.35991774840E+02  0.47102816685E+02  0.47000000000E+01 0.  1.
         11    1    6    6    0    0  0.18531980511E+02 -0.70165703049E+01  0.35197611011E+02  0.40392305967E+02  0.00000000000E+00 0. -1.
        -12    1    6    6    0    0  0.26730625282E+03 -0.12214241721E+02  0.90753937864E+02  0.28255636206E+03  0.00000000000E+00 0.  1.
</event>
<event>
12    1  0.8407180E-002  0.3710672E+03  0.7818608E-02  0.1054367E+00
         21   -1    0    0  503  502  0.00000000000E+00  0.00000000000E+00  0.71864176609E+03  0.71864176609E+03  0.00000000000E+00 0. -1.
         21   -1    0    0  501  503 -0.00000000000E+00 -0.00000000000E+00 -0.19399605551E+03  0.19399605551E+03  0.00000000000E+00 0. -1.
          6    2    1    2  501    0 -0.24589359252E+03 -0.21582452205E+03  0.20741716902E+03  0.42510321012E+03  0.17506277186E+03 0.  0.
         24    2    3    3    0    0 -0.28696185650E+02 -0.62949373546E+02  0.57393096551E+02  0.12002152122E+03  0.79530518194E+02 0.  0.
         -6    2    1    2    0  502  0.24589359252E+03  0.21582452205E+03  0.31722854157E+03  0.48753461148E+03  0.17324019927E+03 0.  0.
        -24    2    5    5    0    0  0.16441925923E+03  0.58252732929E+02  0.15155736105E+03  0.24476730361E+03  0.80711371759E+02 0.  0.
          5    1    3    3  501    0 -0.21719740687E+03 -0.15287514851E+03  0.15002407246E+03  0.30508168890E+03  0.47000000000E+01 0. -1.
        -13    1    4    4    0    0 -0.36265472069E+02 -0.37325335630E+02 -0.48684094733E+01  0.52269174042E+02  0.00000000000E+00 0.  1.
         14    1    4    4    0    0  0.75692864192E+01 -0.25624037916E+02  0.62261506025E+02  0.67752347180E+02  0.00000000000E+00 0. -1.
         -5    1    5    5    0  502  0.81474333288E+02  0.15757178912E+03  0.16567118052E+03  0.24276730786E+03  0.47000000000E+01 0.  1.
         11    1    6    6    0    0  0.91858780624E+02  0.52189015698E+02  0.43027767695E+02  0.11407505306E+03  0.00000000000E+00 0. -1.
        -12    1    6    6    0    0  0.72560478605E+02  0.60637172306E+01  0.10852959335E+03  0.13069225056E+03  0.00000000000E+00 0.  1.
</event>
<event>
12    1  0.8407180E-002  0.1916925E+03  0.7818608E-02  0.1157601E+00
         21   -1    0    0  503  502  0.00000000000E+00  0.00000000000E+00  0.38252892300E+02  0.38252892300E+02  0.00000000000E+00 0. -1.
         21   -1    0    0  501  503 -0.00000000000E+00 -0.00000000000E+00 -0.94668535370E+03  0.94668535370E+03  0.00000000000E+00 0.  1.
          6    2    1    2  501    0 -0.61499668126E+02  0.56034022612E+02 -0.44440782867E+03  0.48398792996E+03  0.17269619942E+03 0.  0.
         24    2    3    3    0    0  0.62322078661E+01  0.15852969956E+02 -0.90586628937E+02  0.12147771576E+03  0.79124844472E+02 0.  0.
         -6    2    1    2    0  502  0.61499668126E+02 -0.56034022612E+02 -0.46402463273E+03  0.50095031604E+03  0.16944125381E+03 0.  0.
        -24    2    5    5    0    0  0.19902931229E+02  0.27115038049E+02 -0.16749869205E+03  0.19015491983E+03  0.83496884598E+02 0.  0.
          5    1    3    3  501    0 -0.67731875992E+02  0.40181052656E+02 -0.35382119974E+03  0.36251021420E+03  0.47000000000E+01 0. -1.
        -11    1    4    4    0    0 -0.26807124958E+01 -0.22174072188E+02 -0.76921417566E+02  0.80098565389E+02  0.00000000000E+00 0.  1.
         12    1    4    4    0    0  0.89129203618E+01  0.38027042145E+02 -0.13665211371E+02  0.41379150371E+02  0.00000000000E+00 0. -1.
         -5    1    5    5    0  502  0.41596736897E+02 -0.83149060661E+02 -0.29652594068E+03  0.31079539621E+03  0.47000000000E+01 0.  1.
         13    1    6    6    0    0  0.29140246182E+02 -0.13187983034E+01 -0.11561604975E+02  0.31377761012E+02  0.00000000000E+00 0. -1.
        -14    1    6    6    0    0 -0.92373149535E+01  0.28433836353E+02 -0.15593708707E+03  0.15877715882E+03  0.00000000000E+00 0.  1.
</event>
<event>
12    1  0.8407180E-002  0.2635702E+03  0.7818608E-02  0.1105039E+00
         21   -1    0    0  503  502  0.00000000000E+00  0.00000000000E+00  0.79726122011E+03  0.79726122011E+03  0.00000000000E+00 0. -1.
         21   -1    0    0  501  503 -0.00000000000E+00 -0.00000000000E+00 -0.11444989142E+03  0.11444989142E+03  0.00000000000E+00 0.  1.
          6    2    1    2  501    0  0.18285673303E+03  0.81087836048E+02  0.11857529072E+03  0.28901445770E+03  0.17163168478E+03 0.  0.
         24    2    3    3    0    0  0.13236202337E+03  0.13304661580E+02  0.13162285184E+03  0.20336048350E+03  0.79587636425E+02 0.  0.
         -6    2    1    2    0  502 -0.18285673303E+03 -0.81087836048E+02  0.56423603798E+03  0.62269665383E+03  0.17139718250E+03 0.  0.
        -24    2    5    5    0    0 -0.11071427479E+03 -0.84031886861E+02  0.22142555557E+03  0.27233352997E+03  0.76271005193E+02 0.  0.
          5    1    3    3  501    0  0.50494709660E+02  0.67783174468E+02 -0.13047561124E+02  0.85653974198E+02  0.47000000000E+01 0. -1.
        -11    1    4    4    0    0  0.14332908174E+02  0.27145874434E+02  0.76652420041E+01  0.31639954022E+02  0.00000000000E+00 0.  1.
         12    1    4    4    0    0  0.11802911520E+03 -0.13841212854E+02  0.12395760984E+03  0.17172052948E+03  0.00000000000E+00 0. -1.
         -5    1    5    5    0  502 -0.72142458243E+02  0.29440508126E+01  0.34281048240E+03  0.35036312386E+03  0.47000000000E+01 0.  1.
         13    1    6    6    0    0 -0.52970231979E+01 -0.36057715329E+02  0.24634793123E+02  0.43989661532E+02  0.00000000000E+00 0. -1.
        -14    1    6    6    0    0 -0.10541725159E+03 -0.47974171532E+02  0.19679076245E+03  0.22834386844E+03  0.00000000000E+00 0.  1.
</event>
<event>
12    1  0.8407180E-002  0.1994014E+03  0.7818608E-02  0.1152522E+00
         21   -1    0    0  501  502  0.00000000000E+00  0.00000000000E+00  0.47609713258E+03  0.47609713258E+03  0.00000000000E+00 0.  1.
         21   -1    0    0  502  503 -0.00000000000E+00 -0.00000000000E+00 -0.86283139719E+02  0.86283139719E+02  0.00000000000E+00 0.  1.
         -6    2    1    2    0  503  0.33367606375E+02 -0.68963840655E+02  0.11915760609E+03  0.23229173086E+03  0.18409645479E+03 0.  0.
        -24    2    3    3    0    0  0.61525929642E+02 -0.80155082328E+02  0.21078879148E+02  0.12953151610E+03  0.78254822704E+02 0.  0.
          6    2    1    2  501    0 -0.33367606375E+02  0.68963840655E+02  0.27065638677E+03  0.33008854144E+03  0.17272566982E+03 0.  0.
         24    2    5    5    0    0 -0.87670016962E+00  0.51765097914E+02  0.52176507852E+02  0.10848754137E+03  0.79792008968E+02 0.  0.
          5    1    5    5  501    0 -0.32490906206E+02  0.17198742741E+02  0.21847987892E+03  0.22160100007E+03  0.47000000000E+01 0. -1.
        -11    1    6    6    0    0  0.12779466507E+02 -0.88896816277E+01  0.42886170608E+02  0.45624169396E+02  0.00000000000E+00 0.  1.
         12    1    6    6    0    0 -0.13656166676E+02  0.60654779542E+02  0.92903372432E+01  0.62863371972E+02  0.00000000000E+00 0. -1.
         -5    1    3    3    0  503 -0.28158323266E+02  0.11191241673E+02  0.98078726942E+02  0.10276021476E+03  0.47000000000E+01 0.  1.
         11    1    4    4    0    0  0.56145080613E+02 -0.70610548971E+02  0.46760421931E+02  0.10161031819E+03  0.00000000000E+00 0. -1.
        -12    1    4    4    0    0  0.53808490289E+01 -0.95445333569E+01 -0.25681542783E+02  0.27921197915E+02  0.00000000000E+00 0.  1.
</event>
<event>
12    1  0.8407180E-002  0.1960706E+03  0.7818608E-02  0.1154151E+00
         21   -1    0    0  503  502  0.00000000000E+00  0.00000000000E+00  0.17612123867E+03  0.17612123867E+03  0.00000000000E+00 0.  1.
         21   -1    0    0  501  503 -0.00000000000E+00 -0.00000000000E+00 -0.23196188647E+03  0.23196188647E+03  0.00000000000E+00 0.  1.
          6    2    1    2  501    0  0.73803247808E+02  0.41283217665E+02 -0.86623522477E+02  0.21435320400E+03  0.17689668728E+03 0.  0.
         24    2    3    3    0    0 -0.20164647092E+02 -0.20245855671E+02 -0.48037391619E+02  0.95497107680E+02  0.77431252847E+02 0.  0.
         -6    2    1    2    0  502 -0.73803247808E+02 -0.41283217665E+02  0.30782874683E+02  0.19372992114E+03  0.17155895058E+03 0.  0.
        -24    2    5    5    0    0 -0.10699673792E+03 -0.24959663501E+02 -0.13541392828E+02  0.13580758609E+03  0.78670479808E+02 0.  0.
          5    1    3    3  501    0  0.93967894900E+02  0.61529073336E+02 -0.38586130858E+02  0.11885609632E+03  0.47000000000E+01 0. -1.
        -13    1    4    4    0    0  0.22523189294E+02 -0.27769756699E+02 -0.83292956445E+01  0.36712812601E+02  0.00000000000E+00 0.  1.
         14    1    4    4    0    0 -0.42687836386E+02  0.75239010287E+01 -0.39708095974E+02  0.58784295079E+02  0.00000000000E+00 0. -1.
         -5    1    5    5    0  502  0.33193490114E+02 -0.16323554164E+02  0.44324267511E+02  0.57922335044E+02  0.47000000000E+01 0.  1.
         13    1    6    6    0    0 -0.90812093220E+02 -0.42554565477E+02  0.11787226968E+02  0.10097854246E+03  0.00000000000E+00 0. -1.
        -14    1    6    6    0    0 -0.16184644702E+02  0.17594901976E+02 -0.25328619796E+02  0.34829043634E+02  0.00000000000E+00 0.  1.
</event>
<event>
12    1  0.8407180E-002  0.1814112E+03  0.7818608E-02  0.1166547E+00
         21   -1    0    0  501  502  0.00000000000E+00  0.00000000000E+00  0.30024325240E+04  0.30024325240E+04  0.00000000000E+00 0.  1.
         21   -1    0    0  502  503 -0.00000000000E+00 -0.00000000000E+00 -0.10940099434E+02  0.10940099434E+02  0.00000000000E+00 0.  1.
         -6    2    1    2    0  503  0.34934618435E+02  0.46565238406E+02  0.14659262625E+04  0.14771086088E+04  0.17181759557E+03 0.  0.
        -24    2    3    3    0    0  0.63955149933E+02 -0.12514735202E+02  0.60021402128E+03  0.60888489966E+03  0.78975122015E+02 0.  0.
          6    2    1    2  501    0 -0.34934618435E+02 -0.46565238406E+02  0.15255661621E+04  0.15362640147E+04  0.17136586238E+03 0.  0.
         24    2    5    5    0    0  0.85397346424E+01 -0.43763618848E+02  0.42952669918E+03  0.43934903950E+03  0.80908663300E+02 0.  0.
          5    1    5    5  501    0 -0.43474353077E+02 -0.28016195580E+01  0.10960394629E+04  0.10969149752E+04  0.47000000000E+01 0. -1.
        -11    1    6    6    0    0  0.19618048580E+02 -0.62933779642E+02  0.25331687712E+03  0.26175364121E+03  0.00000000000E+00 0.  1.
         12    1    6    6    0    0 -0.11078313938E+02  0.19170160794E+02  0.17620982206E+03  0.17759539830E+03  0.00000000000E+00 0. -1.
         -5    1    3    3    0  503 -0.29020531498E+02  0.59079973608E+02  0.86571224121E+03  0.86822370914E+03  0.47000000000E+01 0.  1.
         13    1    4    4    0    0  0.10934325428E+02  0.20818384463E+02  0.51574721118E+02  0.56682594001E+02  0.00000000000E+00 0. -1.
        -14    1    4    4    0    0  0.53020824505E+02 -0.33333119665E+02  0.54863930016E+03  0.55220230566E+03  0.00000000000E+00 0.  1.
</event>
<event>
12    1  0.8407180E-002  0.2036932E+03  0.7818608E-02  0.1147901E+00
         21   -1    0    0  503  502  0.00000000000E+00  0.00000000000E+00  0.11632474441E+03  0.11632474441E+03  0.00000000000E+00 0.  1.
         21   -1    0    0  501  503 -0.00000000000E+00 -0.00000000000E+00 -0.35235967016E+03  0.35235967016E+03  0.00000000000E+00 0.  1.
          6    2    1    2  501    0  0.33492570493E+02  0.10164485122E+03 -0.15028376278E+03  0.25313263469E+03  0.17331328088E+03 0.  0.
         24    2    3    3    0    0  0.37109813183E+02  0.13816504990E+03 -0.13699782170E+03  0.21382086054E+03  0.80524766401E+02 0.  0.
         -6    2    1    2    0  502 -0.33492570493E+02 -0.10164485122E+03 -0.85751162967E+02  0.21555177988E+03  0.16630057066E+03 0.  0.
        -24    2    5    5    0    0 -0.64177984836E+02 -0.93650875130E+02 -0.15076178331E+02  0.13794674293E+03  0.76894164806E+02 0.  0.
          5    1    3    3  501    0 -0.36172426900E+01 -0.36520198680E+02 -0.13285941085E+02  0.39311774150E+02  0.47000000000E+01 0. -1.
        -11    1    4    4    0    0 -0.13588517329E+01 -0.65219894875E+01  0.43239119348E+01  0.79422313821E+01  0.00000000000E+00 0.  1.
         12    1    4    4    0    0  0.38468664916E+02  0.14468703939E+03 -0.14132173363E+03  0.20587862916E+03  0.00000000000E+00 0. -1.
         -5    1    5    5    0  502  0.30685414343E+02 -0.79939760887E+01 -0.70674984637E+02  0.77605036953E+02  0.47000000000E+01 0.  1.
         11    1    6    6    0    0 -0.50310825472E+02 -0.10676233938E+03 -0.13644306423E+02  0.11880885222E+03  0.00000000000E+00 0. -1.
        -12    1    6    6    0    0 -0.13867159364E+02  0.13111464246E+02 -0.14318719078E+01  0.19137890706E+02  0.00000000000E+00 0.  1.
</event>
<event>
12    1  0.8407180E-002  0.2004413E+03  0.7818608E-02  0.1151290E+00
         21   -1    0    0  503  502  0.00000000000E+00  0.00000000000E+00  0.12498032845E+03  0.12498032845E+03  0.00000000000E+00 0.  1.
         21   -1    0    0  501  503 -0.00000000000E+00 -0.00000000000E+00 -0.82378333411E+03  0.82378333411E+03  0.00000000000E+00 0. -1.
          6    2    1    2  501    0 -0.43704543484E+01 -0.84275627730E+02 -0.72201371396E+03  0.74698300395E+03  0.17192534060E+03 0.  0.
         24    2    3    3    0    0  0.10843419893E-02  0.18588632144E+02 -0.41593124997E+03  0.42401438152E+03  0.80273618270E+02 0.  0.
         -6    2    1    2    0  502  0.43704543484E+01  0.84275627730E+02  0.23210708298E+02  0.20178065861E+03  0.18181093177E+03 0.  0.
        -24    2    5    5    0    0 -0.25922582266E+02 -0.87471136516E+01  0.51907785109E+02  0.99719350084E+02  0.80629016847E+02 0.  0.
          5    1    3    3  501    0 -0.43715386904E+01 -0.10286425987E+03 -0.30608246399E+03  0.32296862243E+03  0.47000000000E+01 0. -1.
        -13    1    4    4    0    0  0.10815690190E+02  0.36496033515E+02 -0.94148647648E+02  0.10155248628E+03  0.00000000000E+00 0.  1.
         14    1    4    4    0    0 -0.10814605848E+02 -0.17907401371E+02 -0.32178260232E+03  0.32246189524E+03  0.00000000000E+00 0. -1.
         -5    1    5    5    0  502  0.30293036614E+02  0.93022741382E+02 -0.28697076811E+02  0.10206130853E+03  0.47000000000E+01 0.  1.
         13    1    6    6    0    0  0.10979820762E+02  0.66189062018E+01 -0.16253477057E+02  0.20701253578E+02  0.00000000000E+00 0. -1.
        -14    1    6    6    0    0 -0.36902403027E+02 -0.15366019853E+02  0.68161262167E+02  0.79018096506E+02  0.00000000000E+00 0.  1.
</event>
<event>
12    1  0.8407180E-002  0.1859313E+03  0.7818608E-02  0.1162427E+00
         21   -1    0    0  501  502  0.00000000000E+00  0.00000000000E+00  0.43942227933E+03  0.43942227933E+03  0.00000000000E+00 0.  1.
         21   -1    0    0  502  503 -0.00000000000E+00 -0.00000000000E+00 -0.15597587384E+03  0.15597587384E+03  0.00000000000E+00 0. -1.
         -6    2    1    2    0  503 -0.50059428167E+02 -0.41987347991E+02 -0.68657701805E+02  0.19721759898E+03  0.17295091092E+03 0.  0.
        -24    2    3    3    0    0 -0.30781156693E+01 -0.84046140804E+02 -0.22772743828E+02  0.11909138605E+03  0.81184553892E+02 0.  0.
          6    2    1    2  501    0  0.50059428167E+02  0.41987347991E+02  0.35210410729E+03  0.39818055419E+03  0.17407345468E+03 0.  0.
         24    2    5    5    0    0  0.37023270975E+02  0.84032321490E+02  0.32369902276E+03  0.34558150460E+03  0.78824903006E+02 0.  0.
          5    1    5    5  501    0  0.13036157193E+02 -0.42044973499E+02  0.28405084530E+02  0.52599049593E+02  0.47000000000E+01 0. -1.
        -13    1    6    6    0    0  0.32631267566E+02  0.12654583557E+02  0.19707760021E+03  0.20016123154E+03  0.00000000000E+00 0.  1.
         14    1    6    6    0    0  0.43920034090E+01  0.71377737934E+02  0.12662142256E+03  0.14542027306E+03  0.00000000000E+00 0. -1.
         -5    1    3    3    0  503 -0.46981312498E+02  0.42058792813E+02 -0.45884957977E+02  0.78126212922E+02  0.47000000000E+01 0.  1.
         13    1    4    4    0    0  0.31245590899E+02 -0.63372161238E+01 -0.79237471130E+01  0.32851682257E+02  0.00000000000E+00 0. -1.
        -14    1    4    4    0    0 -0.34323706568E+02 -0.77708924680E+02 -0.14848996715E+02  0.86239703796E+02  0.00000000000E+00 0.  1.
</event>
<event>
12    1  0.8407180E-002  0.2531195E+03  0.7818608E-02  0.1111436E+00
         21   -1    0    0  501  502  0.00000000000E+00  0.00000000000E+00  0.60103944973E+03  0.60103944973E+03  0.00000000000E+00 0.  1.
         21   -1    0    0  502  503 -0.00000000000E+00 -0.00000000000E+00 -0.13363244726E+03  0.13363244726E+03  0.00000000000E+00 0. -1.
         -6    2    1    2    0  503  0.36173675366E+02  0.18106263019E+03  0.67557506242E+02  0.26143930882E+03  0.17232029684E+03 0.  0.
        -24    2    3    3    0    0  0.41742657130E+02  0.94073802830E+02  0.10372403440E+03  0.16695027557E+03  0.80755119953E+02 0.  0.
          6    2    1    2  501    0 -0.36173675366E+02 -0.18106263019E+03  0.39984949623E+03  0.47323258817E+03  0.17313940058E+03 0.  0.
         24    2    5    5    0    0 -0.20808719979E+02 -0.18416406169E+03  0.25130962803E+03  0.32379402831E+03  0.85654183673E+02 0.  0.
          5    1    5    5  501    0 -0.15364955387E+02  0.31014314943E+01  0.14853986819E+03  0.14943855986E+03  0.47000000000E+01 0. -1.
        -13    1    6    6    0    0  0.59819522111E+01 -0.55773672883E+02  0.14330300206E+03  0.15389033998E+03  0.00000000000E+00 0.  1.
         14    1    6    6    0    0 -0.26790672190E+02 -0.12839038880E+03  0.10800662597E+03  0.16990368833E+03  0.00000000000E+00 0. -1.
         -5    1    3    3    0  503 -0.55689817647E+01  0.86988827363E+02 -0.36166528158E+02  0.94489033242E+02  0.47000000000E+01 0.  1.
         13    1    4    4    0    0  0.59403633558E+02  0.51524736585E+02  0.39740712268E+02  0.88107402479E+02  0.00000000000E+00 0. -1.
        -14    1    4    4    0    0 -0.17660976428E+02  0.42549066245E+02  0.63983322132E+02  0.78842873095E+02  0.00000000000E+00 0.  1.
</event>
<event>
12    1  0.8407180E-002  0.2046477E+03  0.7818608E-02  0.1146059E+00
         21   -1    0    0  501  502  0.00000000000E+00  0.00000000000E+00  0.23584731856E+02  0.23584731856E+02  0.00000000000E+00 0.  1.
         21   -1    0    0  502  503 -0.00000000000E+00 -0.00000000000E+00 -0.19165576327E+04  0.19165576327E+04  0.00000000000E+00 0.  1.
         -6    2    1    2    0  503  0.84774829146E+02 -0.70812276471E+02 -0.12184291115E+04  0.12354959169E+04  0.17227742388E+03 0.  0.
        -24    2    3    3    0    0  0.49544410121E+02 -0.75867605577E+02 -0.11643847786E+04  0.11706143425E+04  0.79595754431E+02 0.  0.
          6    2    1    2  501    0 -0.84774829146E+02  0.70812276471E+02 -0.67454378930E+03  0.70464644760E+03  0.17121957332E+03 0.  0.
         24    2    5    5    0    0 -0.44279881978E+02 -0.16967904198E+01 -0.54347099771E+03  0.54940607843E+03  0.67251220204E+02 0.  0.
          5    1    5    5  501    0 -0.40494947168E+02  0.72509066891E+02 -0.13107279159E+03  0.15524036918E+03  0.47000000000E+01 0. -1.
        -11    1    6    6    0    0  0.96300775517E+01  0.19240839685E+02 -0.19297337647E+03  0.19416918482E+03  0.00000000000E+00 0.  1.
         12    1    6    6    0    0 -0.53909959530E+02 -0.20937630105E+02 -0.35049762124E+03  0.35523689361E+03  0.00000000000E+00 0. -1.
         -5    1    3    3    0  503  0.35230419025E+02  0.50553291062E+01 -0.54044332947E+02  0.64881574431E+02  0.47000000000E+01 0.  1.
         11    1    4    4    0    0  0.12803656607E+02  0.16683059832E+02 -0.20406849489E+03  0.20514923523E+03  0.00000000000E+00 0. -1.
        -12    1    4    4    0    0  0.36740753514E+02 -0.92550665409E+02 -0.96031628369E+03  0.96546510727E+03  0.00000000000E+00 0.  1.
</event>
<event>
12    1  0.8407180E-002  0.1975030E+03  0.7818608E-02  0.1152077E+00
         21   -1    0    0  501  502  0.00000000000E+00  0.00000000000E+00  0.50067347290E+02  0.50067347290E+02  0.00000000000E+00 0.  1.
         21   -1    0    0  502  503 -0.00000000000E+00 -0.00000000000E+00 -0.87640623222E+03  0.87640623222E+03  0.00000000000E+00 0. -1.
         -6    2    1    2    0  503 -0.92698943395E+02 -0.33599739588E+02 -0.56968253285E+03  0.60262187574E+03  0.16997911716E+03 0.  0.
        -24    2    3    3    0    0 -0.75627668730E+02 -0.73588176144E+02 -0.51916938948E+03  0.53580742273E+03  0.80112267070E+02 0.  0.
          6    2    1    2  501    0  0.92698943395E+02  0.33599739588E+02 -0.25665635208E+03  0.32385170378E+03  0.17112979393E+03 0.  0.
         24    2    5    5    0    0  0.12661202005E+03  0.47868141890E+02 -0.18175202081E+03  0.24026681929E+03  0.79827218106E+02 0.  0.
          5    1    5    5  501    0 -0.33913076659E+02 -0.14268402303E+02 -0.74904331266E+02  0.83584884490E+02  0.47000000000E+01 0. -1.
        -11    1    6    6    0    0  0.12043197092E+01  0.26183868012E+01  0.79188814773E+01  0.84270409549E+01  0.00000000000E+00 0.  1.
         12    1    6    6    0    0  0.12540770034E+03  0.45249755089E+02 -0.18967090229E+03  0.23183977833E+03  0.00000000000E+00 0. -1.
         -5    1    3    3    0  503 -0.17071274665E+02  0.39988436557E+02 -0.50513143374E+02  0.66814453006E+02  0.47000000000E+01 0.  1.
         11    1    4    4    0    0 -0.61186113631E+01 -0.52884951936E+02 -0.30706395488E+03  0.31164487471E+03  0.00000000000E+00 0. -1.
        -12    1    4    4    0    0 -0.69509057367E+02 -0.20703224209E+02 -0.21210543460E+03  0.22416254802E+03  0.00000000000E+00 0.  1.
</event>
<event>
12    1  0.8407180E-002  0.1981060E+03  0.7818608E-02  0.1151754E+00
         21   -1    0    0  501  502  0.00000000000E+00  0.00000000000E+00  0.45889683144E+03  0.45889683144E+03  0.00000000000E+00 0.  1.
         21   -1    0    0  502  503 -0.00000000000E+00 -0.00000000000E+00 -0.12566152582E+03  0.12566152582E+03  0.00000000000E+00 0. -1.
         -6    2    1    2    0  503  0.43356900493E+02 -0.83127797371E+02  0.29879480384E+00  0.19810626480E+03  0.17451633550E+03 0.  0.
        -24    2    3    3    0    0 -0.21250043515E+01 -0.52341210544E+02 -0.62648331967E+02  0.11443519235E+03  0.80165340293E+02 0.  0.
          6    2    1    2  501    0 -0.43356900493E+02  0.83127797371E+02  0.33293651082E+03  0.38645209246E+03  0.17236138783E+03 0.  0.
         24    2    5    5    0    0 -0.73866344620E+02  0.64314799474E+02  0.13339757368E+03  0.18366493185E+03  0.79657166854E+02 0.  0.
          5    1    5    5  501    0  0.30509444127E+02  0.18812997897E+02  0.19953893714E+03  0.20278716060E+03  0.47000000000E+01 0. -1.
        -11    1    6    6    0    0 -0.71445835786E+01  0.41074532128E+02  0.93856316913E+02  0.10269941815E+03  0.00000000000E+00 0.  1.
         12    1    6    6    0    0 -0.66721761042E+02  0.23240267346E+02  0.39541256765E+02  0.80965513704E+02  0.00000000000E+00 0. -1.
         -5    1    3    3    0  503  0.45481904845E+02 -0.30786586827E+02  0.62947126771E+02  0.83671072453E+02  0.47000000000E+01 0.  1.
         13    1    4    4    0    0 -0.38223158998E+02 -0.20888178907E+02 -0.12988577974E+02  0.45453592374E+02  0.00000000000E+00 0. -1.
        -14    1    4    4    0    0  0.36098154647E+02 -0.31453031636E+02 -0.49659753993E+02  0.68981599972E+02  0.00000000000E+00 0.  1.
</event>
<event>
12    1  0.8407180E-002  0.2007270E+03  0.7818608E-02  0.1149208E+00
         21   -1    0    0  503  502  0.00000000000E+00  0.00000000000E+00  0.60833584495E+03  0.60833584495E+03  0.00000000000E+00 0. -1.
         21   -1    0    0  501  503 -0.00000000000E+00 -0.00000000000E+00 -0.10120833418E+03  0.10120833418E+03  0.00000000000E+00 0. -1.
          6    2    1    2  501    0  0.10256558879E+03  0.17724521784E+02  0.44784614983E+02  0.20566228368E+03  0.17163174099E+03 0.  0.
         24    2    3    3    0    0  0.14075269238E+03  0.12473701934E+02  0.34056322809E+02  0.16537565758E+03  0.78881945616E+02 0.  0.
         -6    2    1    2    0  502 -0.10256558879E+03 -0.17724521784E+02  0.46234289579E+03  0.50388189545E+03  0.17117871539E+03 0.  0.
        -24    2    5    5    0    0 -0.48068553636E+02 -0.70760739426E+02  0.33570704401E+03  0.35609320787E+03  0.82374056592E+02 0.  0.
          5    1    3    3  501    0 -0.38187103590E+02  0.52508198504E+01  0.10728292174E+02  0.40286626102E+02  0.47000000000E+01 0. -1.
        -11    1    4    4    0    0  0.10351249685E+02 -0.15029414544E+02  0.26127579675E+02  0.31869767669E+02  0.00000000000E+00 0.  1.
         12    1    4    4    0    0  0.13040144270E+03  0.27503116477E+02  0.79287431341E+01  0.13350588991E+03  0.00000000000E+00 0. -1.
         -5    1    5    5    0  502 -0.54497035159E+02  0.53036217642E+02  0.12663585178E+03  0.14778868759E+03  0.47000000000E+01 0.  1.
         13    1    6    6    0    0 -0.60731418259E+02 -0.18307123025E+02  0.20792206182E+03  0.21738224332E+03  0.00000000000E+00 0. -1.
        -14    1    6    6    0    0  0.12662864623E+02 -0.52453616401E+02  0.12778498219E+03  0.13871096455E+03  0.00000000000E+00 0.  1.
</event>
<event>
12    1  0.8407180E-002  0.2249209E+03  0.7818608E-02  0.1130610E+00
         21   -1    0    0  503  502  0.00000000000E+00  0.00000000000E+00  0.14646315831E+04  0.14646315831E+04  0.00000000000E+00 0. -1.
         21   -1    0    0  501  503 -0.00000000000E+00 -0.00000000000E+00 -0.11089044927E+03  0.11089044927E+03  0.00000000000E+00 0.  1.
          6    2    1    2  501    0 -0.12792112939E+03  0.61560581623E+02  0.22857822006E+02  0.22607943550E+03  0.17445890799E+03 0.  0.
         24    2    3    3    0    0 -0.10877219453E+03  0.10354260575E+03 -0.74651567247E+01  0.17066513144E+03  0.80736590320E+02 0.  0.
         -6    2    1    2    0  502  0.12792112939E+03 -0.61560581623E+02  0.13308833118E+04  0.13494425968E+04  0.17202154515E+03 0.  0.
        -24    2    5    5    0    0  0.15624198269E+03 -0.37999051092E+02  0.12324999888E+04  0.12442827913E+04  0.57688450809E+02 0.  0.
          5    1    3    3  501    0 -0.19148934859E+02 -0.41982024125E+02  0.30322978731E+02  0.55414304064E+02  0.47000000000E+01 0. -1.
        -13    1    4    4    0    0 -0.53972261373E+02  0.96702279478E+02 -0.23394418296E+02  0.11318849174E+03  0.00000000000E+00 0.  1.
         14    1    4    4    0    0 -0.54799933156E+02  0.68403262690E+01  0.15929261571E+02  0.57476639703E+02  0.00000000000E+00 0. -1.
         -5    1    5    5    0  502 -0.28320853300E+02 -0.23561530530E+02  0.98383323016E+02  0.10515980554E+03  0.47000000000E+01 0.  1.
         13    1    6    6    0    0  0.14808798212E+03 -0.49955011138E+02  0.11377517911E+04  0.11484357586E+04  0.00000000000E+00 0. -1.
        -14    1    6    6    0    0  0.81540005690E+01  0.11955960046E+02  0.94748197685E+02  0.95847032663E+02  0.00000000000E+00 0.  1.
</event>
<event>
12    1  0.8407180E-002  0.2024964E+03  0.7818608E-02  0.1147800E+00
         21   -1    0    0  503  502  0.00000000000E+00  0.00000000000E+00  0.44012377681E+02  0.44012377681E+02  0.00000000000E+00 0. -1.
         21   -1    0    0  501  503 -0.00000000000E+00 -0.00000000000E+00 -0.93027766074E+03  0.93027766074E+03  0.00000000000E+00 0.  1.
          6    2    1    2  501    0 -0.84203188915E+02  0.65086661882E+02 -0.46619352176E+03  0.50827274623E+03  0.17227400920E+03 0.  0.
         24    2    3    3    0    0 -0.21835929951E+02  0.10066780527E+03 -0.28175729273E+03  0.31029672410E+03  0.79284740834E+02 0.  0.
         -6    2    1    2    0  502  0.84203188915E+02 -0.65086661882E+02 -0.42007176130E+03  0.46601729219E+03  0.17142164801E+03 0.  0.
        -24    2    5    5    0    0  0.21316415723E+02 -0.77328651132E+01 -0.33400151027E+03  0.34487942711E+03  0.82889224842E+02 0.  0.
          5    1    3    3  501    0 -0.62367258964E+02 -0.35581143390E+02 -0.18443622904E+03  0.19797602212E+03  0.47000000000E+01 0. -1.
        -13    1    4    4    0    0 -0.28580148058E+02  0.16891638320E+02 -0.15282520949E+03  0.15638956795E+03  0.00000000000E+00 0.  1.
         14    1    4    4    0    0  0.67442181071E+01  0.83776166952E+02 -0.12893208324E+03  0.15390715615E+03  0.00000000000E+00 0. -1.
         -5    1    5    5    0  502  0.62886773192E+02 -0.57353796769E+02 -0.86070251023E+02  0.12113786509E+03  0.47000000000E+01 0.  1.
         11    1    6    6    0    0 -0.15107655891E+02  0.24250386105E+02 -0.58019851981E+02  0.64673222563E+02  0.00000000000E+00 0. -1.
        -12    1    6    6    0    0  0.36424071614E+02 -0.31983251219E+02 -0.27598165829E+03  0.28020620455E+03  0.00000000000E+00 0.  1.
</event>
<event>
12    1  0.8407180E-002  0.1945183E+03  0.7818608E-02  0.1154659E+00
         21   -1    0    0  503  502  0.00000000000E+00  0.00000000000E+00  0.13618160452E+04  0.13618160452E+04  0.00000000000E+00 0. -1.
         21   -1    0    0  501  503 -0.00000000000E+00 -0.00000000000E+00 -0.28407728262E+02  0.28407728262E+02  0.00000000000E+00 0. -1.
          6    2    1    2  501    0 -0.49224879063E+02 -0.72583608651E+02  0.77882600142E+03  0.80251729596E+03  0.17254738730E+03 0.  0.
         24    2    3    3    0    0  0.19053809601E+02  0.33085410201E+02  0.32504593484E+03  0.33159653862E+03  0.53326472209E+02 0.  0.
         -6    2    1    2    0  502  0.49224879063E+02  0.72583608651E+02  0.55458231547E+03  0.58770647746E+03  0.17362571827E+03 0.  0.
        -24    2    5    5    0    0  0.72250093466E+02 -0.36061764257E+01  0.23337679297E+03  0.25675312495E+03  0.78894607932E+02 0.  0.
          5    1    3    3  501    0 -0.68278688664E+02 -0.10566901885E+03  0.45378006658E+03  0.47092075734E+03  0.47000000000E+01 0. -1.
        -11    1    4    4    0    0  0.33427205264E+01  0.45408427673E+02  0.23362494471E+03  0.23802040642E+03  0.00000000000E+00 0.  1.
         12    1    4    4    0    0  0.15711089075E+02 -0.12323017473E+02  0.91420990132E+02  0.93576132193E+02  0.00000000000E+00 0. -1.
         -5    1    5    5    0  502 -0.23025214403E+02  0.76189785076E+02  0.32120552251E+03  0.33095335251E+03  0.47000000000E+01 0.  1.
         13    1    6    6    0    0  0.24149071902E+02  0.30661955170E+02  0.46197847244E+02  0.60477882391E+02  0.00000000000E+00 0. -1.
        -14    1    6    6    0    0  0.48101021563E+02 -0.34268131596E+02  0.18717894572E+03  0.19627524256E+03  0.00000000000E+00 0.  1.
</event>
<event>
12    1  0.8407180E-002  0.1934551E+03  0.7818608E-02  0.1155560E+00
         21   -1    0    0  503  502  0.00000000000E+00  0.00000000000E+00  0.43282034439E+02  0.43282034439E+02  0.00000000000E+00 0.  1.
         21   -1    0    0  501  503 -0.00000000000E+00 -0.00000000000E+00 -0.11598187216E+04  0.11598187216E+04  0.00000000000E+00 0.  1.
          6    2    1    2  501    0  0.36170985482E+02  0.77698349090E+02 -0.86270383986E+03  0.88395193173E+03  0.17253326831E+03 0.  0.
         24    2    3    3    0    0  0.90619257883E+02  0.63107855454E+02 -0.59607086867E+03  0.61138500748E+03  0.79351720710E+02 0.  0.
         -6    2    1    2    0  502 -0.36170985482E+02 -0.77698349090E+02 -0.25383284735E+03  0.31914882435E+03  0.17343437966E+03 0.  0.
        -24    2    5    5    0    0  0.41479461010E+02 -0.65680290702E+02 -0.12585361069E+03  0.16889969595E+03  0.81569171240E+02 0.  0.
          5    1    3    3  501    0 -0.54448272401E+02  0.14590493636E+02 -0.26663297119E+03  0.27256692425E+03  0.47000000000E+01 0. -1.
        -13    1    4    4    0    0 -0.10139879711E+02  0.27118946630E+02 -0.13280071679E+03  0.13592014128E+03  0.00000000000E+00 0.  1.
         14    1    4    4    0    0  0.10075913759E+03  0.35988908824E+02 -0.46327015188E+03  0.47546486620E+03  0.00000000000E+00 0. -1.
         -5    1    5    5    0  502 -0.77650446492E+02 -0.12018058388E+02 -0.12797923666E+03  0.15024912840E+03  0.47000000000E+01 0.  1.
         13    1    6    6    0    0  0.53355716326E+02 -0.32734467111E+02 -0.35423281071E+02  0.71924868047E+02  0.00000000000E+00 0. -1.
        -14    1    6    6    0    0 -0.11876255316E+02 -0.32945823591E+02 -0.90430329618E+02  0.96974827905E+02  0.00000000000E+00 0.  1.
</event>
<event>
12    1  0.8407180E-002  0.2015186E+03  0.7818608E-02  0.1152569E+00
         21   -1    0    0  503  502  0.00000000000E+00  0.00000000000E+00  0.62262243528E+03  0.62262243528E+03  0.00000000000E+00 0.  1.
         21   -1    0    0  501  503 -0.00000000000E+00 -0.00000000000E+00 -0.84430319825E+02  0.84430319825E+02  0.00000000000E+00 0.  1.
          6    2    1    2  501    0 -0.77285928443E+02 -0.68867238804E+02  0.67296146142E+02  0.19484891344E+03  0.15073657973E+03 0.  0.
         24    2    3    3    0    0 -0.66183343762E+02  0.46296137316E+01  0.57366099935E+02  0.11971070387E+03  0.81474627249E+02 0.  0.
         -6    2    1    2    0  502  0.77285928443E+02  0.68867238804E+02  0.47089596931E+03  0.51220384166E+03  0.17289867028E+03 0.  0.
        -24    2    5    5    0    0 -0.23075273052E+02  0.31257380659E+02  0.26937784745E+03  0.28390904182E+03  0.80811059025E+02 0.  0.
          5    1    3    3  501    0 -0.11102584681E+02 -0.73496852536E+02  0.99300462073E+01  0.75138209567E+02  0.47000000000E+01 0. -1.
        -13    1    4    4    0    0  0.13222123276E+02  0.14923004499E+02 -0.19937669574E+01  0.20037357956E+02  0.00000000000E+00 0.  1.
         14    1    4    4    0    0 -0.79405467037E+02 -0.10293390767E+02  0.59359866892E+02  0.99673345918E+02  0.00000000000E+00 0. -1.
         -5    1    5    5    0  502  0.10036120149E+03  0.37609858145E+02  0.20151812186E+03  0.22829479984E+03  0.47000000000E+01 0.  1.
         13    1    6    6    0    0 -0.22136021319E+02 -0.57209441221E+00  0.13240810054E+02  0.25800189587E+02  0.00000000000E+00 0. -1.
        -14    1    6    6    0    0 -0.93925173273E+00  0.31829475072E+02  0.25613703740E+03  0.25810885224E+03  0.00000000000E+00 0.  1.
</event>
<event>
12    1  0.8407180E-002  0.1904819E+03  0.7818608E-02  0.1162390E+00
         21   -1    0    0  501  502  0.00000000000E+00  0.00000000000E+00  0.11246285066E+03  0.11246285066E+03  0.00000000000E+00 0. -1.
         21   -1    0    0  502  503 -0.00000000000E+00 -0.00000000000E+00 -0.29426785601E+03  0.29426785601E+03  0.00000000000E+00 0. -1.
         -6    2    1    2    0  503  0.20108980437E+01  0.16112834210E+02 -0.69423349005E+02  0.18556792457E+03  0.17132479711E+03 0.  0.
        -24    2    3    3    0    0 -0.67778328841E+02  0.17558353112E+02 -0.49861919700E+02  0.11292244824E+03  0.73232988851E+02 0.  0.
          6    2    1    2  501    0 -0.20108980437E+01 -0.16112834210E+02 -0.11238165634E+03  0.22116278211E+03  0.18978849377E+03 0.  0.
         24    2    5    5    0    0  0.36577149328E+00  0.49172857995E+02 -0.32504538572E+01  0.93885213301E+02  0.79910975930E+02 0.  0.
          5    1    5    5  501    0 -0.23766695370E+01 -0.65285692206E+02 -0.10913120249E+03  0.12727756881E+03  0.47000000000E+01 0. -1.
        -11    1    6    6    0    0 -0.31212739657E+02  0.12685142890E+02  0.21182017273E+02  0.39797309240E+02  0.00000000000E+00 0.  1.
         12    1    6    6    0    0  0.31578511150E+02  0.36487715106E+02 -0.24432471131E+02  0.54087904060E+02  0.00000000000E+00 0. -1.
         -5    1    3    3    0  503  0.69789226885E+02 -0.14455189020E+01 -0.19561429305E+02  0.72645476325E+02  0.47000000000E+01 0.  1.
         11    1    4    4    0    0 -0.21702587450E+02  0.21388809048E+02  0.14443775553E+02  0.33721003940E+02  0.00000000000E+00 0. -1.
        -12    1    4    4    0    0 -0.46075741391E+02 -0.38304559355E+01 -0.64305695253E+02  0.79201444301E+02  0.00000000000E+00 0.  1.
</event>
<event>
12    1  0.8407180E-002  0.2091600E+03  0.7818608E-02  0.1142460E+00
         21   -1    0    0  501  502  0.00000000000E+00  0.00000000000E+00  0.29499092481E+02  0.29499092481E+02  0.00000000000E+00 0.  1.
         21   -1    0    0  502  503 -0.00000000000E+00 -0.00000000000E+00 -0.15396749129E+04  0.15396749129E+04  0.00000000000E+00 0. -1.
         -6    2    1    2    0  503  0.11587600423E+03 -0.18203842208E+02 -0.91395559976E+03  0.93733031786E+03  0.17179830679E+03 0.  0.
        -24    2    3    3    0    0  0.79797179240E+02  0.12549276950E+01 -0.86881626779E+03  0.87617498588E+03  0.80447088459E+02 0.  0.
          6    2    1    2  501    0 -0.11587600423E+03  0.18203842208E+02 -0.59622022064E+03  0.63184368751E+03  0.17317409076E+03 0.  0.
         24    2    5    5    0    0 -0.59394376411E+02  0.65775061637E+02 -0.23868684682E+03  0.26673356905E+03  0.79506825696E+02 0.  0.
          5    1    5    5  501    0 -0.56481627823E+02 -0.47571219429E+02 -0.35753337382E+03  0.36511011845E+03  0.47000000000E+01 0. -1.
        -13    1    6    6    0    0 -0.36047071784E+02  0.96140275696E+01 -0.17395858946E+03  0.17791405722E+03  0.00000000000E+00 0.  1.
         14    1    6    6    0    0 -0.23347304628E+02  0.56161034068E+02 -0.64728257357E+02  0.88819511828E+02  0.00000000000E+00 0. -1.
         -5    1    3    3    0  503  0.36078824994E+02 -0.19458769903E+02 -0.45139331971E+02  0.61155331983E+02  0.47000000000E+01 0.  1.
         13    1    4    4    0    0  0.53400451499E+01 -0.31419444844E+02 -0.22574799227E+03  0.22798652067E+03  0.00000000000E+00 0. -1.
        -14    1    4    4    0    0  0.74457134090E+02  0.32674372539E+02 -0.64306827552E+03  0.64818846520E+03  0.00000000000E+00 0.  1.
</event>
<event>
12    1  0.8407180E-002  0.2408776E+03  0.7818608E-02  0.1121569E+00
         21   -1    0    0  503  502  0.00000000000E+00  0.00000000000E+00  0.36207023190E+02  0.36207023190E+02  0.00000000000E+00 0. -1.
         21   -1    0    0  501  503 -0.00000000000E+00 -0.00000000000E+00 -0.15519206434E+04  0.15519206434E+04  0.00000000000E+00 0. -1.
          6    2    1    2  501    0 -0.24624714462E+01  0.14933097180E+03 -0.65242722831E+03  0.69547342546E+03  0.18898728628E+03 0.  0.
         24    2    3    3    0    0 -0.74153330998E+02  0.59955871441E+02 -0.38206123230E+03  0.40179443454E+03  0.79840837825E+02 0.  0.
         -6    2    1    2    0  502  0.24624714462E+01 -0.14933097180E+03 -0.86328639187E+03  0.89265424111E+03  0.17106255250E+03 0.  0.
        -24    2    5    5    0    0 -0.59592972432E+02 -0.79269694122E+02 -0.49175463689E+03  0.50948665936E+03  0.88988911601E+02 0.  0.
          5    1    3    3  501    0  0.71690859552E+02  0.89375100355E+02 -0.27036599602E+03  0.29367899092E+03  0.47000000000E+01 0. -1.
        -13    1    4    4    0    0 -0.29100615405E+02 -0.51672161193E+01 -0.34981801237E+02  0.45795986256E+02  0.00000000000E+00 0.  1.
         14    1    4    4    0    0 -0.45052715593E+02  0.65123087560E+02 -0.34707943106E+03  0.35599844828E+03  0.00000000000E+00 0. -1.
         -5    1    5    5    0  502  0.62055443878E+02 -0.70061277674E+02 -0.37153175498E+03  0.38316758175E+03  0.47000000000E+01 0.  1.
         11    1    6    6    0    0  0.41781702899E+01 -0.67195522096E+02 -0.21893535125E+03  0.22905323251E+03  0.00000000000E+00 0. -1.
        -12    1    6    6    0    0 -0.63771142722E+02 -0.12074172026E+02 -0.27281928564E+03  0.28043342685E+03  0.00000000000E+00 0.  1.
</event>
<event>
12    1  0.8407180E-002  0.1737945E+03  0.7818608E-02  0.1173951E+00
         21   -1    0    0  503  502  0.00000000000E+00  0.00000000000E+00  0.73961286042E+03  0.73961286042E+03  0.00000000000E+00 0. -1.
         21   -1    0    0  501  503 -0.00000000000E+00 -0.00000000000E+00 -0.50048417814E+02  0.50048417814E+02  0.00000000000E+00 0. -1.
          6    2    1    2  501    0  0.16030147350E+02  0.48389374647E+01  0.17538685698E+03  0.24691107723E+03  0.17298598070E+03 0.  0.
         24    2    3    3    0    0 -0.36519037086E+02 -0.34112032677E+02  0.14792691991E+03  0.17581443171E+03  0.80815035242E+02 0.  0.
         -6    2    1    2    0  502 -0.16030147350E+02 -0.48389374647E+01  0.51417758563E+03  0.54275020101E+03  0.17297054717E+03 0.  0.
        -24    2    5    5    0    0  0.35213933470E+02 -0.48138608503E+02  0.22432400772E+03  0.24519683780E+03  0.79011911042E+02 0.  0.
          5    1    3    3  501    0  0.52549184435E+02  0.38950970141E+02  0.27459937066E+02  0.71096645515E+02  0.47000000000E+01 0. -1.
        -11    1    4    4    0    0 -0.68470453441E+01 -0.40210160121E+02  0.13805453802E+03  0.14395414018E+03  0.00000000000E+00 0.  1.
         12    1    4    4    0    0 -0.29671991741E+02  0.60981274443E+01  0.98723818875E+01  0.31860291530E+02  0.00000000000E+00 0. -1.
         -5    1    5    5    0  502 -0.51244080820E+02  0.43299671038E+02  0.28985357791E+03  0.29755336321E+03  0.47000000000E+01 0.  1.
         13    1    6    6    0    0  0.31033001713E+02 -0.62452345305E+02  0.21820548687E+03  0.22907853922E+03  0.00000000000E+00 0. -1.
        -14    1    6    6    0    0  0.41809317568E+01  0.14313736802E+02  0.61185208449E+01  0.16118298574E+02  0.00000000000E+00 0.  1.
</event>
<event>
12    1  0.8407180E-002  0.2235917E+03  0.7818608E-02  0.1131287E+00
         21   -1    0    0  501  502  0.00000000000E+00  0.00000000000E+00  0.35005642177E+03  0.35005642177E+03  0.00000000000E+00 0.  1.
         21   -1    0    0  502  503 -0.00000000000E+00 -0.00000000000E+00 -0.14592488393E+03  0.14592488393E+03  0.00000000000E+00 0.  1.
         -6    2    1    2    0  503 -0.54067817516E+02 -0.13173808000E+03  0.64714079810E+02  0.23248467451E+03  0.17199698003E+03 0.  0.
        -24    2    3    3    0    0 -0.97231346293E+02 -0.10819325363E+03  0.75171689889E+02  0.18199803594E+03  0.79453050863E+02 0.  0.
          6    2    1    2  501    0  0.54067817516E+02  0.13173808000E+03  0.13941745803E+03  0.26349663119E+03  0.17238038296E+03 0.  0.
         24    2    5    5    0    0 -0.93266557305E+01  0.12093909419E+03  0.53055376983E+02  0.15571919210E+03  0.81977696671E+02 0.  0.
          5    1    5    5  501    0  0.63394473247E+02  0.10798985815E+02  0.86362081046E+02  0.10777743908E+03  0.47000000000E+01 0. -1.
        -13    1    6    6    0    0 -0.25482009662E+01 -0.15150003065E+01  0.30961879945E+02  0.31103481539E+02  0.00000000000E+00 0.  1.
         14    1    6    6    0    0 -0.67784547643E+01  0.12245409450E+03  0.22093497038E+02  0.12461571056E+03  0.00000000000E+00 0. -1.
         -5    1    3    3    0  503  0.43163528777E+02 -0.23544826377E+02 -0.10457610079E+02  0.50486638571E+02  0.47000000000E+01 0.  1.
         13    1    4    4    0    0 -0.89143211499E+02 -0.10255110271E+03  0.34559350803E+02  0.14020552611E+03  0.00000000000E+00 0. -1.
        -14    1    4    4    0    0 -0.80881347942E+01 -0.56421509131E+01  0.40612339086E+02  0.41792509825E+02  0.00000000000E+00 0.  1.
</event>
<event>
12    1  0.8407180E-002  0.1745621E+03  0.7818608E-02  0.1173371E+00
         21   -1    0    0  501  502  0.00000000000E+00  0.00000000000E+00  0.34701668335E+03  0.34701668335E+03  0.00000000000E+00 0. -1.
         21   -1    0    0  502  503 -0.00000000000E+00 -0.00000000000E+00 -0.10792000349E+03  0.10792000349E+03  0.00000000000E+00 0. -1.
         -6    2    1    2    0  503  0.10234806011E+02 -0.27630507973E+02  0.20178534499E+02  0.17494192242E+03  0.17125801220E+03 0.  0.
        -24    2    3    3    0    0  0.56246761284E+02 -0.52243110156E+02 -0.14853662750E+02  0.11191633192E+03  0.80072425587E+02 0.  0.
          6    2    1    2  501    0 -0.10234806011E+02  0.27630507973E+02  0.21891814536E+03  0.27999476442E+03  0.17205730879E+03 0.  0.
         24    2    5    5    0    0 -0.20975065109E+02 -0.43985621012E+01  0.23008775248E+03  0.24410514728E+03  0.78661606797E+02 0.  0.
          5    1    5    5  501    0  0.10740259098E+02  0.32029070074E+02 -0.11169607115E+02  0.35889617139E+02  0.47000000000E+01 0. -1.
        -11    1    6    6    0    0  0.14276291257E+02 -0.10099679644E+02  0.81155640737E+01  0.19278962659E+02  0.00000000000E+00 0.  1.
         12    1    6    6    0    0 -0.35251356366E+02  0.57011175427E+01  0.22197218840E+03  0.22482618462E+03  0.00000000000E+00 0. -1.
         -5    1    3    3    0  503 -0.46011955273E+02  0.24612602183E+02  0.35032197249E+02  0.63025590504E+02  0.47000000000E+01 0.  1.
         13    1    4    4    0    0  0.23212902340E+02 -0.50027747774E+02 -0.41821834536E+02  0.69214739950E+02  0.00000000000E+00 0. -1.
        -14    1    4    4    0    0  0.33033858944E+02 -0.22153623811E+01  0.26968171785E+02  0.42701591969E+02  0.00000000000E+00 0.  1.
</event>
<event>
12    1  0.8407180E-002  0.1833374E+03  0.7818608E-02  0.1164785E+00
         21   -1    0    0  503  502  0.00000000000E+00  0.00000000000E+00  0.73261315834E+03  0.73261315834E+03  0.00000000000E+00 0. -1.
         21   -1    0    0  501  503 -0.00000000000E+00 -0.00000000000E+00 -0.46242940327E+02  0.46242940327E+02  0.00000000000E+00 0. -1.
          6    2    1    2  501    0 -0.55357177536E+02  0.29639350052E+02  0.30156963929E+03  0.35292610661E+03  0.17224889320E+03 0.  0.
         24    2    3    3    0    0 -0.55294432955E+02 -0.42394707191E+02  0.21333739759E+03  0.23892642321E+03  0.81964656913E+02 0.  0.
         -6    2    1    2    0  502  0.55357177536E+02 -0.29639350052E+02  0.38480057872E+03  0.42592999206E+03  0.17147001071E+03 0.  0.
        -24    2    5    5    0    0  0.33444272197E+02 -0.78680896493E+02  0.18883664020E+03  0.22268333428E+03  0.81359620619E+02 0.  0.
          5    1    3    3  501    0 -0.62744581380E-01  0.72034057243E+02  0.88232241699E+02  0.11399968340E+03  0.47000000000E+01 0. -1.
        -13    1    4    4    0    0 -0.31943335635E+02  0.49302384183E+01  0.18871994641E+02  0.37427745379E+02  0.00000000000E+00 0.  1.
         14    1    4    4    0    0 -0.23351097319E+02 -0.47324945609E+02  0.19446540295E+03  0.20149867783E+03  0.00000000000E+00 0. -1.
         -5    1    5    5    0  502  0.21912905339E+02  0.49041546442E+02  0.19596393852E+03  0.20324665778E+03  0.47000000000E+01 0.  1.
         13    1    6    6    0    0  0.40966724667E+02 -0.93097091443E+02  0.16059659954E+03  0.19009631440E+03  0.00000000000E+00 0. -1.
        -14    1    6    6    0    0 -0.75224524700E+01  0.14416194949E+02  0.28240040655E+02  0.32587019873E+02  0.00000000000E+00 0.  1.
</event>
<event>
12    1  0.8407180E-002  0.2522297E+03  0.7818608E-02  0.1112241E+00
         21   -1    0    0  503  502  0.00000000000E+00  0.00000000000E+00  0.12021217845E+04  0.12021217845E+04  0.00000000000E+00 0.  1.
         21   -1    0    0  501  503 -0.00000000000E+00 -0.00000000000E+00 -0.57263897518E+02  0.57263897518E+02  0.00000000000E+00 0.  1.
          6    2    1    2  501    0 -0.45085715482E+02 -0.17845431264E+03  0.38804037765E+03  0.46164352605E+03  0.16929485231E+03 0.  0.
         24    2    3    3    0    0 -0.28090548991E+02 -0.17608117789E+03  0.39726675999E+03  0.44160148065E+03  0.73466515979E+02 0.  0.
         -6    2    1    2    0  502  0.45085715482E+02  0.17845431264E+03  0.75681750929E+03  0.79774215593E+03  0.17245620179E+03 0.  0.
        -24    2    5    5    0    0  0.66579019517E+02  0.81013144757E+02  0.57647633752E+03  0.59158257804E+03  0.81541912337E+02 0.  0.
          5    1    3    3  501    0 -0.16995166491E+02 -0.23731347469E+01 -0.92263823418E+01  0.20042045397E+02  0.47000000000E+01 0. -1.
        -13    1    4    4    0    0 -0.92950785985E+00 -0.24506871411E+01 -0.32788564902E+01  0.41977079708E+01  0.00000000000E+00 0.  1.
         14    1    4    4    0    0 -0.27161041131E+02 -0.17363049075E+03  0.40054561648E+03  0.43740377268E+03  0.00000000000E+00 0. -1.
         -5    1    5    5    0  502 -0.21493304035E+02  0.97441167878E+02  0.18034117178E+03  0.20615957788E+03  0.47000000000E+01 0.  1.
         13    1    6    6    0    0  0.19066224557E+02 -0.21708053054E+01  0.23357073177E+02  0.30228896472E+02  0.00000000000E+00 0. -1.
        -14    1    6    6    0    0  0.47512794961E+02  0.83183950063E+02  0.55311926434E+03  0.56135368157E+03  0.00000000000E+00 0.  1.
</event>
<event>
12    1  0.8407180E-002  0.2610901E+03  0.7818608E-02  0.1106604E+00
         21   -1    0    0  501  502  0.00000000000E+00  0.00000000000E+00  0.43693891936E+03  0.43693891936E+03  0.00000000000E+00 0. -1.
         21   -1    0    0  502  503 -0.00000000000E+00 -0.00000000000E+00 -0.16682330981E+03  0.16682330981E+03  0.00000000000E+00 0. -1.
         -6    2    1    2    0  503  0.17974435455E+03  0.76931088684E+02  0.21332389771E+03  0.33656694321E+03  0.17188308972E+03 0.  0.
        -24    2    3    3    0    0  0.18157403710E+03  0.76412364203E+02  0.12184339467E+03  0.24494604357E+03  0.79654071382E+02 0.  0.
          6    2    1    2  501    0 -0.17974435455E+03 -0.76931088684E+02  0.56791711843E+02  0.26719528596E+03  0.17303640342E+03 0.  0.
         24    2    5    5    0    0 -0.35082480524E+02 -0.75551223463E+01  0.66576152151E+02  0.10639134393E+03  0.74825622040E+02 0.  0.
          5    1    5    5  501    0 -0.14466187402E+03 -0.69375966338E+02 -0.97844403080E+01  0.16080394203E+03  0.47000000000E+01 0. -1.
        -13    1    6    6    0    0  0.22450958610E+02 -0.11343933301E+02  0.17107900713E+02  0.30420562652E+02  0.00000000000E+00 0.  1.
         14    1    6    6    0    0 -0.57533439134E+02  0.37888109552E+01  0.49468251438E+02  0.75970781274E+02  0.00000000000E+00 0. -1.
         -5    1    3    3    0  503 -0.18296825491E+01  0.51872448159E+00  0.91480503044E+02  0.91620899638E+02  0.47000000000E+01 0.  1.
         13    1    4    4    0    0  0.20930066905E+02  0.53785684927E+01  0.51291993321E+02  0.55658469962E+02  0.00000000000E+00 0. -1.
        -14    1    4    4    0    0  0.16064397019E+03  0.71033795710E+02  0.70551401346E+02  0.18928757361E+03  0.00000000000E+00 0.  1.
</event>
<event>
12    1  0.8407180E-002  0.1752774E+03  0.7818608E-02  0.1172667E+00
         21   -1    0    0  501  502  0.00000000000E+00  0.00000000000E+00  0.17865633596E+04  0.17865633596E+04  0.00000000000E+00 0. -1.
         21   -1    0    0  502  503 -0.00000000000E+00 -0.00000000000E+00 -0.17568891716E+02  0.17568891716E+02  0.00000000000E+00 0. -1.
         -6    2    1    2    0  503 -0.30120613341E+02  0.16893730319E+01  0.73705276900E+03  0.75741077285E+03  0.17179694180E+03 0.  0.
        -24    2    3    3    0    0 -0.83806901385E+02 -0.11999127073E+02  0.55819135194E+03  0.57010597027E+03  0.79219039267E+02 0.  0.
          6    2    1    2  501    0  0.30120613341E+02 -0.16893730319E+01  0.10319416989E+04  0.10467214785E+04  0.17266174519E+03 0.  0.
         24    2    5    5    0    0  0.37869032691E+02  0.16108546602E+02  0.22869570057E+03  0.24322721728E+03  0.71862416163E+02 0.  0.
          5    1    5    5  501    0 -0.77484193492E+01 -0.17797919634E+02  0.80324599833E+03  0.80349426119E+03  0.47000000000E+01 0. -1.
        -13    1    6    6    0    0 -0.24956774441E+01 -0.25039057936E+02  0.67963891511E+02  0.72472569829E+02  0.00000000000E+00 0.  1.
         14    1    6    6    0    0  0.40364710135E+02  0.41147604538E+02  0.16073180906E+03  0.17075464745E+03  0.00000000000E+00 0. -1.
         -5    1    3    3    0  503  0.53686288043E+02  0.13688500105E+02  0.17886141705E+03  0.18730480258E+03  0.47000000000E+01 0.  1.
         11    1    4    4    0    0 -0.46179614629E+02 -0.11638033088E+00  0.99206116926E+02  0.10942771124E+03  0.00000000000E+00 0. -1.
        -12    1    4    4    0    0 -0.37627286756E+02 -0.11882746742E+02  0.45898523502E+03  0.46067825903E+03  0.00000000000E+00 0.  1.
</event>
<event>
12    1  0.8407180E-002  0.1787448E+03  0.7818608E-02  0.1169420E+00
         21   -1    0    0  503  502  0.00000000000E+00  0.00000000000E+00  0.23353278090E+03  0.23353278090E+03  0.00000000000E+00 0.  1.
         21   -1    0    0  501  503 -0.00000000000E+00 -0.00000000000E+00 -0.19029252738E+03  0.19029252738E+03  0.00000000000E+00 0.  1.
          6    2    1    2  501    0 -0.27788101774E+02  0.36055531434E+02 -0.91942521573E+02  0.20100528889E+03  0.17285114677E+03 0.  0.
         24    2    3    3    0    0 -0.52722180181E+02  0.77891801590E+02 -0.35699928374E+02  0.12645798138E+03  0.76618373328E+02 0.  0.
         -6    2    1    2    0  502  0.27788101774E+02 -0.36055531434E+02  0.13518277509E+03  0.22282001939E+03  0.17117884921E+03 0.  0.
        -24    2    5    5    0    0 -0.17607763755E+02 -0.50620793108E+02  0.14461408179E+03  0.17399409389E+03  0.80549450760E+02 0.  0.
          5    1    3    3  501    0  0.24934078407E+02 -0.41836270156E+02 -0.56242593199E+02  0.74547307506E+02  0.47000000000E+01 0. -1.
        -11    1    4    4    0    0 -0.37448386803E+02  0.27125540857E+02 -0.53333761120E+02  0.70588006886E+02  0.00000000000E+00 0.  1.
         12    1    4    4    0    0 -0.15273793378E+02  0.50766260733E+02  0.17633832746E+02  0.55869974497E+02  0.00000000000E+00 0. -1.
         -5    1    5    5    0  502  0.45395865529E+02  0.14565261673E+02 -0.94313067066E+01  0.48825925500E+02  0.47000000000E+01 0.  1.
         13    1    6    6    0    0 -0.58890147486E+01  0.15145936840E+02  0.18270050560E+01  0.16352915487E+02  0.00000000000E+00 0. -1.
        -14    1    6    6    0    0 -0.11718749006E+02 -0.65766729948E+02  0.14278707674E+03  0.15764117841E+03  0.00000000000E+00 0.  1.
</event>
<event>
12    1  0.8407180E-002  0.4857914E+03  0.7818608E-02  0.1017572E+00
         21   -1    0    0  503  502  0.00000000000E+00  0.00000000000E+00  0.35814602386E+03  0.35814602386E+03  0.00000000000E+00 0.  1.
         21   -1    0    0  501  503 -0.00000000000E+00 -0.00000000000E+00 -0.69497687610E+03  0.69497687610E+03  0.00000000000E+00 0. -1.
          6    2    1    2  501    0  0.43950160894E+03  0.11411043563E+03 -0.28892583286E+03  0.56521799287E+03  0.17265684693E+03 0.  0.
         24    2    3    3    0    0  0.43111000208E+03  0.82028779931E+02 -0.24180092991E+03  0.50740365057E+03  0.80038867245E+02 0.  0.
         -6    2    1    2    0  502 -0.43950160894E+03 -0.11411043563E+03 -0.47905019372E+02  0.48790490709E+03  0.17196933362E+03 0.  0.
        -24    2    5    5    0    0 -0.30368542210E+03 -0.76318365218E+02  0.24691914929E+02  0.32926480478E+03  0.98773946650E+02 0.  0.
          5    1    3    3  501    0  0.83916068525E+01  0.32081655697E+02 -0.47124902948E+02  0.57814342301E+02  0.47000000000E+01 0. -1.
        -11    1    4    4    0    0  0.17746964864E+02  0.19206958652E+02 -0.26044606312E+02  0.36907770733E+02  0.00000000000E+00 0.  1.
         12    1    4    4    0    0  0.41336303722E+03  0.62821821279E+02 -0.21575632360E+03  0.47049587983E+03  0.00000000000E+00 0. -1.
         -5    1    5    5    0  502 -0.13581618684E+03 -0.37792070410E+02 -0.72596934301E+02  0.15864010232E+03  0.47000000000E+01 0.  1.
         11    1    6    6    0    0 -0.11896120478E+03  0.15520569521E+02  0.26944600221E+02  0.12295799202E+03  0.00000000000E+00 0. -1.
        -12    1    6    6    0    0 -0.18472421732E+03 -0.91838934739E+02 -0.22526852917E+01  0.20630681276E+03  0.00000000000E+00 0.  1.
</event>
<event>
12    1  0.8407180E-002  0.2031224E+03  0.7818608E-02  0.1147271E+00
         21   -1    0    0  501  502  0.00000000000E+00  0.00000000000E+00  0.13597260119E+03  0.13597260119E+03  0.00000000000E+00 0. -1.
         21   -1    0    0  502  503 -0.00000000000E+00 -0.00000000000E+00 -0.34107549360E+03  0.34107549360E+03  0.00000000000E+00 0. -1.
         -6    2    1    2    0  503  0.31295720417E+02 -0.10173954873E+03 -0.18269050046E+03  0.27269296996E+03  0.17220708179E+03 0.  0.
        -24    2    3    3    0    0 -0.26401691880E+02 -0.11487550340E+03 -0.11361570606E+03  0.18161628847E+03  0.78628982941E+02 0.  0.
          6    2    1    2  501    0 -0.31295720417E+02  0.10173954873E+03 -0.22412391951E+02  0.20435512483E+03  0.17299810358E+03 0.  0.
         24    2    5    5    0    0  0.70709647943E+01  0.12344757470E+03 -0.45288878193E+02  0.15446860814E+03  0.80747545904E+02 0.  0.
          5    1    5    5  501    0 -0.38366685211E+02 -0.21708025967E+02  0.22876486242E+02  0.49886516698E+02  0.47000000000E+01 0. -1.
        -11    1    6    6    0    0  0.38533241278E+02  0.29473826293E+02 -0.12712613140E+02  0.50151048370E+02  0.00000000000E+00 0.  1.
         12    1    6    6    0    0 -0.31462276483E+02  0.93973748404E+02 -0.32576265053E+02  0.10431755977E+03  0.00000000000E+00 0. -1.
         -5    1    3    3    0  503  0.57697412297E+02  0.13135954670E+02 -0.69074794396E+02  0.91076681493E+02  0.47000000000E+01 0.  1.
         11    1    4    4    0    0  0.31488860642E+01 -0.26509915425E+02 -0.77013229077E+02  0.81509070368E+02  0.00000000000E+00 0. -1.
        -12    1    4    4    0    0 -0.29550577945E+02 -0.88365587975E+02 -0.36602476986E+02  0.10010721810E+03  0.00000000000E+00 0.  1.
</event>
<event>
12    1  0.8407180E-002  0.2280859E+03  0.7818608E-02  0.1128215E+00
         21   -1    0    0  501  502  0.00000000000E+00  0.00000000000E+00  0.70958867733E+02  0.70958867733E+02  0.00000000000E+00 0.  1.
         21   -1    0    0  502  503 -0.00000000000E+00 -0.00000000000E+00 -0.86392979028E+03  0.86392979028E+03  0.00000000000E+00 0. -1.
         -6    2    1    2    0  503 -0.13273344362E+03 -0.68869461560E+02 -0.21278002722E+03  0.31192709227E+03  0.17222659818E+03 0.  0.
        -24    2    3    3    0    0 -0.51915882097E+02 -0.14616943829E+02 -0.24951389800E+02  0.10032250592E+03  0.80827714804E+02 0.  0.
          6    2    1    2  501    0  0.13273344362E+03  0.68869461560E+02 -0.58019089533E+03  0.62296156574E+03  0.17058272941E+03 0.  0.
         24    2    5    5    0    0  0.29846217466E+02 -0.20924123085E+02 -0.23405735426E+03  0.25083364767E+03  0.82498836953E+02 0.  0.
          5    1    5    5  501    0  0.10288722616E+03  0.89793584645E+02 -0.34613354107E+03  0.37212791807E+03  0.47000000000E+01 0. -1.
        -11    1    6    6    0    0  0.11154560056E+02  0.26702941579E+02 -0.35554392818E+02  0.45843059973E+02  0.00000000000E+00 0.  1.
         12    1    6    6    0    0  0.18691657410E+02 -0.47627064663E+02 -0.19850296144E+03  0.20499058770E+03  0.00000000000E+00 0. -1.
         -5    1    3    3    0  503 -0.80817561528E+02 -0.54252517732E+02 -0.18782863742E+03  0.21160458635E+03  0.47000000000E+01 0.  1.
         11    1    4    4    0    0  0.12655787593E+02  0.20087241628E+02 -0.39612282939E+01  0.24069847640E+02  0.00000000000E+00 0. -1.
        -12    1    4    4    0    0 -0.64571669690E+02 -0.34704185456E+02 -0.20990161506E+02  0.76252658280E+02  0.00000000000E+00 0.  1.
</event>
<event>
12    1  0.8407180E-002  0.1998188E+03  0.7818608E-02  0.1150086E+00
         21   -1    0    0  503  502  0.00000000000E+00  0.00000000000E+00  0.48801678303E+03  0.48801678303E+03  0.00000000000E+00 0. -1.
         21   -1    0    0  501  503 -0.00000000000E+00 -0.00000000000E+00 -0.81599803336E+02  0.81599803336E+02  0.00000000000E+00 0. -1.
          6    2    1    2  501    0 -0.99766141397E+02 -0.14476638703E+02  0.19112219058E+03  0.27650544728E+03  0.17252453334E+03 0.  0.
         24    2    3    3    0    0 -0.13437346326E+03 -0.33077775942E+02  0.15880407223E+03  0.22541513697E+03  0.80267575831E+02 0.  0.
         -6    2    1    2    0  502  0.99766141397E+02  0.14476638703E+02  0.21529478911E+03  0.29311113909E+03  0.17146264200E+03 0.  0.
        -24    2    5    5    0    0  0.84345548836E+02  0.47066268391E+02  0.69361909140E+02  0.14271707639E+03  0.78915677940E+02 0.  0.
          5    1    3    3  501    0  0.34607321866E+02  0.18601137239E+02  0.32318118354E+02  0.51090310307E+02  0.47000000000E+01 0. -1.
        -13    1    4    4    0    0 -0.11269934259E+03 -0.51219474613E+02  0.15256430735E+03  0.19646995770E+03  0.00000000000E+00 0.  1.
         14    1    4    4    0    0 -0.21674120670E+02  0.18141698671E+02  0.62397648762E+01  0.28945179274E+02  0.00000000000E+00 0. -1.
         -5    1    5    5    0  502  0.15420592561E+02 -0.32589629688E+02  0.14593287997E+03  0.15039406270E+03  0.47000000000E+01 0.  1.
         11    1    6    6    0    0 -0.78004947918E+01 -0.10173931381E+02 -0.18514306689E+01  0.12953161555E+02  0.00000000000E+00 0. -1.
        -12    1    6    6    0    0  0.92146043628E+02  0.57240199772E+02  0.71213339809E+02  0.12976391483E+03  0.00000000000E+00 0.  1.
</event>
<event>
12    1  0.8407180E-002  0.2922336E+03  0.7818608E-02  0.1089353E+00
         21   -1    0    0  503  502  0.00000000000E+00  0.00000000000E+00  0.61095659086E+03  0.61095659086E+03  0.00000000000E+00 0.  1.
         21   -1    0    0  501  503 -0.00000000000E+00 -0.00000000000E+00 -0.22714304102E+03  0.22714304102E+03  0.00000000000E+00 0. -1.
          6    2    1    2  501    0  0.23371846518E+03 -0.39857641680E+02 -0.69127473796E+02  0.29906709848E+03  0.16867000087E+03 0.  0.
         24    2    3    3    0    0  0.46169823608E+02 -0.17207097575E+02 -0.58028786209E+02  0.10977153337E+03  0.79086741562E+02 0.  0.
         -6    2    1    2    0  502 -0.23371846518E+03  0.39857641680E+02  0.45294102363E+03  0.53903253339E+03  0.17084363788E+03 0.  0.
        -24    2    5    5    0    0 -0.20493851066E+03 -0.22785291143E+02  0.31966748642E+03  0.38891142050E+03  0.80906294447E+02 0.  0.
          5    1    3    3  501    0  0.18754864158E+03 -0.22650544104E+02 -0.11098687587E+02  0.18929556511E+03  0.47000000000E+01 0. -1.
        -13    1    4    4    0    0  0.42616024766E+02  0.23361767950E+02 -0.15795023897E+02  0.51101668745E+02  0.00000000000E+00 0.  1.
         14    1    4    4    0    0  0.35537988418E+01 -0.40568865526E+02 -0.42233762313E+02  0.58669864627E+02  0.00000000000E+00 0. -1.
         -5    1    5    5    0  502 -0.28779954522E+02  0.62642932823E+02  0.13327353721E+03  0.15012111289E+03  0.47000000000E+01 0.  1.
         13    1    6    6    0    0 -0.49890829389E+02  0.22124630360E+02  0.46903158768E+02  0.71961798394E+02  0.00000000000E+00 0. -1.
        -14    1    6    6    0    0 -0.15504768127E+03 -0.44909921503E+02  0.27276432765E+03  0.31694962211E+03  0.00000000000E+00 0.  1.
</event>
<event>
12    1  0.8407180E-002  0.2115594E+03  0.7818608E-02  0.1141775E+00
         21   -1    0    0  503  502  0.00000000000E+00  0.00000000000E+00  0.29327999640E+03  0.29327999640E+03  0.00000000000E+00 0.  1.
         21   -1    0    0  501  503 -0.00000000000E+00 -0.00000000000E+00 -0.42690418499E+03  0.42690418499E+03  0.00000000000E+00 0.  1.
          6    2    1    2  501    0 -0.13277194760E+02  0.11016099414E+03 -0.35853396801E+03  0.41629792932E+03  0.18012670875E+03 0.  0.
         24    2    3    3    0    0 -0.42894978393E+02  0.87599580595E+02 -0.35726390233E+03  0.37874884737E+03  0.79369564593E+02 0.  0.
         -6    2    1    2    0  502  0.13277194760E+02 -0.11016099414E+03  0.22490977943E+03  0.30388625207E+03  0.17161211143E+03 0.  0.
        -24    2    5    5    0    0  0.72698172514E+02 -0.73393208221E+02  0.17466143429E+03  0.21769049309E+03  0.78809560663E+02 0.  0.
          5    1    3    3  501    0  0.29617783634E+02  0.22561413544E+02 -0.12700656838E+01  0.37549081950E+02  0.47000000000E+01 0. -1.
        -13    1    4    4    0    0 -0.55010928019E+02  0.22479082429E+02 -0.16197124985E+03  0.17252882985E+03  0.00000000000E+00 0.  1.
         14    1    4    4    0    0  0.12115949625E+02  0.65120498166E+02 -0.19529265247E+03  0.20622001752E+03  0.00000000000E+00 0. -1.
         -5    1    5    5    0  502 -0.59420977755E+02 -0.36767785918E+02  0.50248345136E+02  0.86195758988E+02  0.47000000000E+01 0.  1.
         11    1    6    6    0    0  0.56227137067E+02 -0.86326847693E+02  0.11468896538E+03  0.15416670962E+03  0.00000000000E+00 0. -1.
        -12    1    6    6    0    0  0.16471035447E+02  0.12933639472E+02  0.59972468907E+02  0.63523783463E+02  0.00000000000E+00 0.  1.
</event>
<event>
12    1  0.8407180E-002  0.1937130E+03  0.7818608E-02  0.1158259E+00
         21   -1    0    0  501  502  0.00000000000E+00  0.00000000000E+00  0.15403403231E+04  0.15403403231E+04  0.00000000000E+00 0.  1.
         21   -1    0    0  502  503 -0.00000000000E+00 -0.00000000000E+00 -0.24579224560E+02  0.24579224560E+02  0.00000000000E+00 0. -1.
         -6    2    1    2    0  503 -0.21648694943E+02  0.53699190453E+02  0.56609527366E+03  0.59832148278E+03  0.18485796938E+03 0.  0.
        -24    2    3    3    0    0 -0.39776015140E+02 -0.40608154186E+02  0.29385234315E+03  0.30959881618E+03  0.79190112018E+02 0.  0.
          6    2    1    2  501    0  0.21648694943E+02 -0.53699190453E+02  0.94966582483E+03  0.96659806484E+03  0.17057072154E+03 0.  0.
         24    2    5    5    0    0 -0.45119764780E+02 -0.15847385778E+01  0.59281743821E+03  0.59980547448E+03  0.79345999251E+02 0.  0.
          5    1    5    5  501    0  0.66768459723E+02 -0.52114451876E+02  0.35684838662E+03  0.36679259036E+03  0.47000000000E+01 0. -1.
        -11    1    6    6    0    0  0.12189812722E+02 -0.22053300530E+02  0.95105723079E+02  0.98387184942E+02  0.00000000000E+00 0.  1.
         12    1    6    6    0    0 -0.57309577502E+02  0.20468561952E+02  0.49771171513E+03  0.50141828954E+03  0.00000000000E+00 0. -1.
         -5    1    3    3    0  503  0.18127320197E+02  0.94307344639E+02  0.27224293051E+03  0.28872266659E+03  0.47000000000E+01 0.  1.
         13    1    4    4    0    0 -0.24419689163E+02 -0.12246577253E+02  0.20008023688E+02  0.33861790933E+02  0.00000000000E+00 0. -1.
        -14    1    4    4    0    0 -0.15356325977E+02 -0.28361576933E+02  0.27384431946E+03  0.27573702525E+03  0.00000000000E+00 0.  1.
</event>
<event>
12    1  0.8407180E-002  0.2044660E+03  0.7818608E-02  0.1146360E+00
         21   -1    0    0  503  502  0.00000000000E+00  0.00000000000E+00  0.60135116311E+03  0.60135116311E+03  0.00000000000E+00 0. -1.
         21   -1    0    0  501  503 -0.00000000000E+00 -0.00000000000E+00 -0.14651313431E+03  0.14651313431E+03  0.00000000000E+00 0.  1.
          6    2    1    2  501    0  0.10509477778E+03  0.33533417908E+02 -0.44191277413E+02  0.20918705715E+03  0.17215386561E+03 0.  0.
         24    2    3    3    0    0  0.73129130966E+02  0.15254161324E+02 -0.95920526527E+02  0.14551650656E+03  0.79960909445E+02 0.  0.
         -6    2    1    2    0  502 -0.10509477778E+03 -0.33533417908E+02  0.49902930621E+03  0.53867724027E+03  0.17021609294E+03 0.  0.
        -24    2    5    5    0    0 -0.90288919235E+02 -0.84421663070E+02  0.31408216546E+03  0.34622890482E+03  0.77121603631E+02 0.  0.
          5    1    3    3  501    0  0.31965646818E+02  0.18279256584E+02  0.51729249114E+02  0.63670550584E+02  0.47000000000E+01 0. -1.
        -11    1    4    4    0    0  0.58363504569E+02  0.35384022429E+02 -0.29121772635E+02  0.74205157168E+02  0.00000000000E+00 0.  1.
         12    1    4    4    0    0  0.14765626398E+02 -0.20129861105E+02 -0.66798753891E+02  0.71311349395E+02  0.00000000000E+00 0. -1.
         -5    1    5    5    0  502 -0.14805858550E+02  0.50888245162E+02  0.18494714075E+03  0.19244833545E+03  0.47000000000E+01 0.  1.
         13    1    6    6    0    0 -0.11168703736E+02 -0.36808967282E+02  0.17573188708E+03  0.17989256836E+03  0.00000000000E+00 0. -1.
        -14    1    6    6    0    0 -0.79120215499E+02 -0.47612695788E+02  0.13835027837E+03  0.16633633646E+03  0.00000000000E+00 0.  1.
</event>
<event>
12    1  0.8407180E-002  0.1800306E+03  0.7818608E-02  0.1168019E+00
         21   -1    0    0  501  502  0.00000000000E+00  0.00000000000E+00  0.17447158870E+03  0.17447158870E+03  0.00000000000E+00 0. -1.
         21   -1    0    0  502  503 -0.00000000000E+00 -0.00000000000E+00 -0.36549821598E+03  0.36549821598E+03  0.00000000000E+00 0. -1.
         -6    2    1    2    0  503  0.43577783306E+02  0.30194239486E+02 -0.28552248101E+03  0.33754124647E+03  0.17204734991E+03 0.  0.
        -24    2    3    3    0    0  0.73867211192E+02  0.41471901265E+02 -0.28122837546E+03  0.30459941228E+03  0.80716289053E+02 0.  0.
          6    2    1    2  501    0 -0.43577783306E+02 -0.30194239486E+02  0.94495853735E+02  0.20242855821E+03  0.17098871165E+03 0.  0.
         24    2    5    5    0    0  0.40144839174E+01 -0.70914437945E+02  0.88753925999E+02  0.13935544036E+03  0.80608348118E+02 0.  0.
          5    1    5    5  501    0 -0.47592267223E+02  0.40720198459E+02  0.57419277361E+01  0.63073117857E+02  0.47000000000E+01 0. -1.
        -13    1    6    6    0    0  0.99043465443E+01 -0.14591444047E+02 -0.13673659663E+02  0.22315359922E+02  0.00000000000E+00 0.  1.
         14    1    6    6    0    0 -0.58898626269E+01 -0.56322993898E+02  0.10242758566E+03  0.11704008043E+03  0.00000000000E+00 0. -1.
         -5    1    3    3    0  503 -0.30289427886E+02 -0.11277661779E+02 -0.42941055531E+01  0.32941834183E+02  0.47000000000E+01 0.  1.
         11    1    4    4    0    0 -0.62871919598E+01 -0.77446474804E+01 -0.99253168406E+02  0.99753194365E+02  0.00000000000E+00 0. -1.
        -12    1    4    4    0    0  0.80154403152E+02  0.49216548745E+02 -0.18197520705E+03  0.20484621792E+03  0.00000000000E+00 0.  1.
</event>
<event>
12    1  0.8407180E-002  0.2090816E+03  0.7818608E-02  0.1142415E+00
         21   -1    0    0  503  502  0.00000000000E+00  0.00000000000E+00  0.66400161616E+03  0.66400161616E+03  0.00000000000E+00 0. -1.
         21   -1    0    0  501  503 -0.00000000000E+00 -0.00000000000E+00 -0.69067044139E+02  0.69067044139E+02  0.00000000000E+00 0. -1.
          6    2    1    2  501    0 -0.69375931311E+02 -0.92845658403E+02  0.21630674530E+03  0.30083834946E+03  0.17401657484E+03 0.  0.
         24    2    3    3    0    0  0.21060257549E+02 -0.62991002294E+02  0.68767133581E+02  0.12516811359E+03  0.80788224271E+02 0.  0.
         -6    2    1    2    0  502  0.69375931311E+02  0.92845658403E+02  0.37862782673E+03  0.43223031084E+03  0.17329360723E+03 0.  0.
        -24    2    5    5    0    0  0.35165047678E+01  0.95589114598E+02  0.15983395037E+03  0.20367432000E+03  0.82381383220E+02 0.  0.
          5    1    3    3  501    0 -0.90436188859E+02 -0.29854656108E+02  0.14753961172E+03  0.17567023587E+03  0.47000000000E+01 0. -1.
        -11    1    4    4    0    0  0.30589904488E+02 -0.72871247113E+02  0.76006349315E+02  0.10964910419E+03  0.00000000000E+00 0.  1.
         12    1    4    4    0    0 -0.95296469392E+01  0.98802448189E+01 -0.72392157344E+01  0.15519009405E+02  0.00000000000E+00 0. -1.
         -5    1    5    5    0  502  0.65859426543E+02 -0.27434561954E+01  0.21879387636E+03  0.22855599084E+03  0.47000000000E+01 0.  1.
         13    1    6    6    0    0  0.26908868599E+02  0.80762946653E+01  0.72884927555E+02  0.78112267984E+02  0.00000000000E+00 0. -1.
        -14    1    6    6    0    0 -0.23392363831E+02  0.87512819933E+02  0.86949022817E+02  0.12556205202E+03  0.00000000000E+00 0.  1.
</event>
<event>
12    1  0.8407180E-002  0.3876488E+03  0.7818608E-02  0.1048467E+00
         21   -1    0    0  503  502  0.00000000000E+00  0.00000000000E+00  0.45375078376E+03  0.45375078376E+03  0.00000000000E+00 0. -1.
         21   -1    0    0  501  503 -0.00000000000E+00 -0.00000000000E+00 -0.33467210002E+03  0.33467210002E+03  0.00000000000E+00 0.  1.
          6    2    1    2  501    0  0.34055023959E+03 -0.46515244225E+02  0.41228661927E+01  0.38408836548E+03  0.17137310418E+03 0.  0.
         24    2    3    3    0    0  0.23713737754E+03 -0.93037901013E+02  0.27837506776E+02  0.26814419007E+03  0.78969570302E+02 0.  0.
         -6    2    1    2    0  502 -0.34055023959E+03  0.46515244225E+02  0.11495581756E+03  0.40433451830E+03  0.17925799583E+03 0.  0.
        -24    2    5    5    0    0 -0.59323251500E+02  0.78778256157E+01  0.23682896261E+01  0.98917573138E+02  0.78725911712E+02 0.  0.
          5    1    3    3  501    0  0.10341286205E+03  0.46522656788E+02 -0.23714640583E+02  0.11594417540E+03  0.47000000000E+01 0. -1.
        -11    1    4    4    0    0  0.10612882810E+01 -0.32144101856E+01  0.14841998497E+02  0.15223129936E+02  0.00000000000E+00 0.  1.
         12    1    4    4    0    0  0.23607608926E+03 -0.89823490827E+02  0.12995508279E+02  0.25292106014E+03  0.00000000000E+00 0. -1.
         -5    1    5    5    0  502 -0.28122698809E+03  0.38637418609E+02  0.11258752793E+03  0.30541694516E+03  0.47000000000E+01 0.  1.
         11    1    6    6    0    0 -0.21483502585E+02 -0.70591630469E+01  0.38406563280E+02  0.44569460051E+02  0.00000000000E+00 0. -1.
        -12    1    6    6    0    0 -0.37839748915E+02  0.14936988663E+02 -0.36038273654E+02  0.54348113087E+02  0.00000000000E+00 0.  1.
</event>
<event>
12    1  0.8407180E-002  0.3044069E+03  0.7818608E-02  0.1083946E+00
         21   -1    0    0  501  502  0.00000000000E+00  0.00000000000E+00  0.77975165466E+03  0.77975165466E+03  0.00000000000E+00 0. -1.
         21   -1    0    0  502  503 -0.00000000000E+00 -0.00000000000E+00 -0.32571382082E+03  0.32571382082E+03  0.00000000000E+00 0.  1.
         -6    2    1    2    0  503  0.12974506049E+03 -0.20585236474E+03 -0.21545887763E+03  0.37294244697E+03  0.18290588839E+03 0.  0.
        -24    2    3    3    0    0  0.86292701706E+02 -0.10441817064E+03 -0.35721747746E+02  0.16198148120E+03  0.81316494411E+02 0.  0.
          6    2    1    2  501    0 -0.12974506049E+03  0.20585236474E+03  0.66949671148E+03  0.73252302851E+03  0.17074883258E+03 0.  0.
         24    2    5    5    0    0 -0.71474803916E+02  0.98504785540E+02  0.51694223817E+03  0.53703931336E+03  0.79812944592E+02 0.  0.
          5    1    5    5  501    0 -0.58270256575E+02  0.10734757920E+03  0.15255447331E+03  0.19548371515E+03  0.47000000000E+01 0. -1.
        -11    1    6    6    0    0 -0.42713539265E+02  0.50466704161E+02  0.12779670102E+03  0.14388652285E+03  0.00000000000E+00 0.  1.
         12    1    6    6    0    0 -0.28761264652E+02  0.48038081378E+02  0.38914553715E+03  0.39315279052E+03  0.00000000000E+00 0. -1.
         -5    1    3    3    0  503  0.43452358786E+02 -0.10143419410E+03 -0.17973712988E+03  0.21096096576E+03  0.47000000000E+01 0.  1.
         11    1    4    4    0    0 -0.81385488680E+01  0.71963390257E+01  0.18706079367E+01  0.11023722017E+02  0.00000000000E+00 0. -1.
        -12    1    4    4    0    0  0.94431250574E+02 -0.11161450967E+03 -0.37592355683E+02  0.15095775919E+03  0.00000000000E+00 0.  1.
</event>
<event>
12    1  0.8407180E-002  0.2546358E+03  0.7818608E-02  0.1110426E+00
         21   -1    0    0  503  502  0.00000000000E+00  0.00000000000E+00  0.30991521966E+03  0.30991521966E+03  0.00000000000E+00 0.  1.
         21   -1    0    0  501  503 -0.00000000000E+00 -0.00000000000E+00 -0.21341775580E+03  0.21341775580E+03  0.00000000000E+00 0. -1.
          6    2    1    2  501    0 -0.24099151284E+02 -0.18610232558E+03  0.11168017907E+02  0.25488059239E+03  0.17211782904E+03 0.  0.
         24    2    3    3    0    0 -0.38787277800E+02 -0.20353241713E+03  0.31517511162E+02  0.22396553089E+03  0.78976628035E+02 0.  0.
         -6    2    1    2    0  502  0.24099151284E+02  0.18610232558E+03  0.85329445954E+02  0.26845238308E+03  0.17196139961E+03 0.  0.
        -24    2    5    5    0    0  0.56734344864E+02  0.47386630020E+02  0.59487672017E+02  0.12354901067E+03  0.79128353476E+02 0.  0.
          5    1    3    3  501    0  0.14688126516E+02  0.17430091548E+02 -0.20349493255E+02  0.30915061501E+02  0.47000000000E+01 0. -1.
        -13    1    4    4    0    0  0.20296439993E+02 -0.70255621107E+02  0.27486644601E+02  0.78123705781E+02  0.00000000000E+00 0.  1.
         14    1    4    4    0    0 -0.59083717793E+02 -0.13327679602E+03  0.40308665608E+01  0.14584182511E+03  0.00000000000E+00 0. -1.
         -5    1    5    5    0  502 -0.32635193581E+02  0.13871569556E+03  0.25841773937E+02  0.14490337241E+03  0.47000000000E+01 0.  1.
         11    1    6    6    0    0  0.22245702629E+02 -0.16351378186E+02 -0.31141283771E+01  0.27783747940E+02  0.00000000000E+00 0. -1.
        -12    1    6    6    0    0  0.34488642236E+02  0.63738008206E+02  0.62601800394E+02  0.95765262731E+02  0.00000000000E+00 0.  1.
</event>
<event>
12    1  0.8407180E-002  0.2233632E+03  0.7818608E-02  0.1131776E+00
         21   -1    0    0  501  502  0.00000000000E+00  0.00000000000E+00  0.19208873403E+03  0.19208873403E+03  0.00000000000E+00 0.  1.
         21   -1    0    0  502  503 -0.00000000000E+00 -0.00000000000E+00 -0.25746170823E+03  0.25746170823E+03  0.00000000000E+00 0. -1.
         -6    2    1    2    0  503 -0.13630615355E+03  0.31047552140E+02 -0.37094136254E+02  0.22440421369E+03  0.17157493462E+03 0.  0.
        -24    2    3    3    0    0 -0.15354127001E+03  0.26610531482E+02  0.13745210624E+01  0.18175841686E+03  0.93547799609E+02 0.  0.
          6    2    1    2  501    0  0.13630615355E+03 -0.31047552140E+02 -0.28278837953E+02  0.22514622857E+03  0.17420623861E+03 0.  0.
         24    2    5    5    0    0  0.16885851744E+02 -0.21482673254E+02 -0.57478869792E+02  0.10174676645E+03  0.79384801887E+02 0.  0.
          5    1    5    5  501    0  0.11942030181E+03 -0.95648788857E+01  0.29200031839E+02  0.12339946212E+03  0.47000000000E+01 0. -1.
        -13    1    6    6    0    0 -0.14116734305E+02  0.18101036425E+02 -0.44101743573E+02  0.49718140485E+02  0.00000000000E+00 0.  1.
         14    1    6    6    0    0  0.31002586049E+02 -0.39583709679E+02 -0.13377126219E+02  0.52028625963E+02  0.00000000000E+00 0. -1.
         -5    1    3    3    0  503  0.17235116454E+02  0.44370206581E+01 -0.38468657316E+02  0.42645796829E+02  0.47000000000E+01 0.  1.
         11    1    4    4    0    0 -0.12086498536E+03 -0.10056466160E+01 -0.34748563407E+02  0.12576493419E+03  0.00000000000E+00 0. -1.
        -12    1    4    4    0    0 -0.32676284645E+02  0.27616178098E+02  0.36123084470E+02  0.55993482679E+02  0.00000000000E+00 0.  1.
</event>
<event>
12    1  0.8407180E-002  0.2091124E+03  0.7818608E-02  0.1142453E+00
         21   -1    0    0  501  502  0.00000000000E+00  0.00000000000E+00  0.12858044446E+04  0.12858044446E+04  0.00000000000E+00 0. -1.
         21   -1    0    0  502  503 -0.00000000000E+00 -0.00000000000E+00 -0.16306379210E+03  0.16306379210E+03  0.00000000000E+00 0. -1.
         -6    2    1    2    0  503 -0.11388350358E+03 -0.29497065495E+02 -0.83222947655E+02  0.22506458548E+03  0.17288284865E+03 0.  0.
        -24    2    3    3    0    0 -0.13996681662E+03 -0.44761277053E+02 -0.96344267809E+02  0.19178404437E+03  0.76841525597E+02 0.  0.
          6    2    1    2  501    0  0.11388350358E+03  0.29497065495E+02  0.12059636002E+04  0.12238036513E+04  0.17177788738E+03 0.  0.
         24    2    5    5    0    0  0.68001569890E+02  0.74941654256E+02  0.55290343943E+03  0.56754148867E+03  0.78489890861E+02 0.  0.
          5    1    5    5  501    0  0.45881933692E+02 -0.45444588761E+02  0.65306016076E+03  0.65626216260E+03  0.47000000000E+01 0. -1.
        -11    1    6    6    0    0 -0.25832360916E+01 -0.86141164929E+01  0.14340948394E+03  0.14369118343E+03  0.00000000000E+00 0.  1.
         12    1    6    6    0    0  0.70584805982E+02  0.83555770749E+02  0.40949395549E+03  0.42385030523E+03  0.00000000000E+00 0. -1.
         -5    1    3    3    0  503  0.26083313042E+02  0.15264211557E+02  0.13121320154E+02  0.33280541106E+02  0.47000000000E+01 0.  1.
         11    1    4    4    0    0 -0.47837584304E+01  0.11240731083E+02 -0.27463977351E+02  0.30058416990E+02  0.00000000000E+00 0. -1.
        -12    1    4    4    0    0 -0.13518305819E+03 -0.56002008136E+02 -0.68880290458E+02  0.16172562738E+03  0.00000000000E+00 0.  1.
</event>
<event>
12    1  0.8407180E-002  0.1885280E+03  0.7818608E-02  0.1160215E+00
         21   -1    0    0  503  502  0.00000000000E+00  0.00000000000E+00  0.16369377894E+03  0.16369377894E+03  0.00000000000E+00 0. -1.
         21   -1    0    0  501  503 -0.00000000000E+00 -0.00000000000E+00 -0.22815360843E+03  0.22815360843E+03  0.00000000000E+00 0.  1.
          6    2    1    2  501    0  0.71459741839E+02  0.97484240713E+01 -0.79376584128E+02  0.20455668956E+03  0.17418745840E+03 0.  0.
         24    2    3    3    0    0  0.10050091573E+03 -0.36399551486E+02 -0.51586173075E+02  0.14317735774E+03  0.80082839019E+02 0.  0.
         -6    2    1    2    0  502 -0.71459741839E+02 -0.97484240713E+01  0.14916754633E+02  0.18729069781E+03  0.17220269870E+03 0.  0.
        -24    2    5    5    0    0  0.15878624497E+01 -0.41251422837E+02 -0.18335991018E+02  0.10094125359E+03  0.90270299192E+02 0.  0.
          5    1    3    3  501    0 -0.29041173891E+02  0.46147975557E+02 -0.27790411053E+02  0.61379331827E+02  0.47000000000E+01 0. -1.
        -11    1    4    4    0    0  0.72341868401E+02 -0.12148979820E+02 -0.70271069534E+02  0.10158231563E+03  0.00000000000E+00 0.  1.
         12    1    4    4    0    0  0.28159047330E+02 -0.24250571666E+02  0.18684896459E+02  0.41595042112E+02  0.00000000000E+00 0. -1.
         -5    1    5    5    0  502 -0.73047604289E+02  0.31502998765E+02  0.33252745651E+02  0.86349444218E+02  0.47000000000E+01 0.  1.
         11    1    6    6    0    0  0.71927271092E+01 -0.18924567300E+02  0.36350071141E+02  0.41607718547E+02  0.00000000000E+00 0. -1.
        -12    1    6    6    0    0 -0.56048646595E+01 -0.22326855537E+02 -0.54686062159E+02  0.59333535041E+02  0.00000000000E+00 0.  1.
</event>
<event>
12    1  0.8407180E-002  0.1756301E+03  0.7818608E-02  0.1172383E+00
         21   -1    0    0  503  502  0.00000000000E+00  0.00000000000E+00  0.21444004026E+04  0.21444004026E+04  0.00000000000E+00 0.  1.
         21   -1    0    0  501  503 -0.00000000000E+00 -0.00000000000E+00 -0.19110057597E+02  0.19110057597E+02  0.00000000000E+00 0.  1.
          6    2    1    2  501    0  0.34899906780E+02  0.61995264879E+01  0.52205036008E+03  0.55080169015E+03  0.17201594634E+03 0.  0.
         24    2    3    3    0    0  0.77830455310E+02 -0.15394144823E+02  0.45459173714E+03  0.46784342084E+03  0.77001684944E+02 0.  0.
         -6    2    1    2    0  502 -0.34899906780E+02 -0.61995264879E+01  0.16032399849E+04  0.16127087700E+04  0.17086453726E+03 0.  0.
        -24    2    5    5    0    0  0.77708031632E+01 -0.14852548177E+02  0.37000972419E+03  0.37870122134E+03  0.78907765639E+02 0.  0.
          5    1    3    3  501    0 -0.42930548530E+02  0.21593671311E+02  0.67458622941E+02  0.82958269310E+02  0.47000000000E+01 0. -1.
        -13    1    4    4    0    0  0.85231986779E+02 -0.37151931856E+01  0.28008729290E+03  0.29279205227E+03  0.00000000000E+00 0.  1.
         14    1    4    4    0    0 -0.74015314689E+01 -0.11678951638E+02  0.17450444424E+03  0.17505136857E+03  0.00000000000E+00 0. -1.
         -5    1    5    5    0  502 -0.42670709943E+02  0.86530216895E+01  0.12332302607E+04  0.12340075487E+04  0.47000000000E+01 0.  1.
         11    1    6    6    0    0  0.19273603534E+02 -0.43899384411E+02  0.18724813439E+03  0.19328862247E+03  0.00000000000E+00 0. -1.
        -12    1    6    6    0    0 -0.11502800371E+02  0.29046836234E+02  0.18276158980E+03  0.18541259887E+03  0.00000000000E+00 0.  1.
</event>
<event>
12    1  0.8407180E-002  0.1768581E+03  0.7818608E-02  0.1170991E+00
         21   -1    0    0  501  502  0.00000000000E+00  0.00000000000E+00  0.78484500387E+02  0.78484500387E+02  0.00000000000E+00 0. -1.
         21   -1    0    0  502  503 -0.00000000000E+00 -0.00000000000E+00 -0.46560591313E+03  0.46560591313E+03  0.00000000000E+00 0. -1.
         -6    2    1    2    0  503 -0.18630965241E+02  0.30793782030E+02 -0.89315261011E+02  0.19772748065E+03  0.17269502273E+03 0.  0.
        -24    2    3    3    0    0 -0.46211774828E+02  0.39401312344E+02  0.21508582773E+01  0.10169138528E+03  0.81538457812E+02 0.  0.
          6    2    1    2  501    0  0.18630965241E+02 -0.30793782030E+02 -0.29780615173E+03  0.34636293286E+03  0.17315717535E+03 0.  0.
         24    2    5    5    0    0  0.63941417248E+02 -0.16423611452E+02 -0.27413216953E+03  0.29305171175E+03  0.79828688677E+02 0.  0.
          5    1    5    5  501    0 -0.45310452007E+02 -0.14370170577E+02 -0.23673982201E+02  0.53311221115E+02  0.47000000000E+01 0. -1.
        -13    1    6    6    0    0  0.21007617420E+02  0.12431353668E+02 -0.14661672213E+02  0.28474956993E+02  0.00000000000E+00 0.  1.
         14    1    6    6    0    0  0.42933799827E+02 -0.28854965121E+02 -0.25947049731E+03  0.26457675475E+03  0.00000000000E+00 0. -1.
         -5    1    3    3    0  503  0.27580809587E+02 -0.86075303145E+01 -0.91466119289E+02  0.96036095367E+02  0.47000000000E+01 0.  1.
         11    1    4    4    0    0 -0.43393017402E+02  0.63663707663E+02  0.43411944866E+01  0.77167788631E+02  0.00000000000E+00 0. -1.
        -12    1    4    4    0    0 -0.28187574267E+01 -0.24262395319E+02 -0.21903362093E+01  0.24523596652E+02  0.00000000000E+00 0.  1.
</event>
<event>
12    1  0.8407180E-002  0.2018708E+03  0.7818608E-02  0.1148225E+00
         21   -1    0    0  501  502  0.00000000000E+00  0.00000000000E+00  0.74705273344E+03  0.74705273344E+03  0.00000000000E+00 0.  1.
         21   -1    0    0  502  503 -0.00000000000E+00 -0.00000000000E+00 -0.54498425684E+02  0.54498425684E+02  0.00000000000E+00 0.  1.
         -6    2    1    2    0  503  0.41378664749E+02 -0.92847206165E+02  0.33904912126E+03  0.39459613662E+03  0.17441045502E+03 0.  0.
        -24    2    3    3    0    0  0.95430556245E+02 -0.66862183192E+02  0.22307069621E+03  0.26394425769E+03  0.79551826188E+02 0.  0.
          6    2    1    2  501    0 -0.41378664749E+02  0.92847206165E+02  0.35350518650E+03  0.40695502250E+03  0.17410823034E+03 0.  0.
         24    2    5    5    0    0  0.39241738080E+02  0.68609020447E+02  0.24682414149E+03  0.27097680968E+03  0.79114871337E+02 0.  0.
          5    1    5    5  501    0 -0.80620402829E+02  0.24238185718E+02  0.10668104501E+03  0.13597821282E+03  0.47000000000E+01 0. -1.
        -11    1    6    6    0    0 -0.64173195826E+01  0.62303676332E+02  0.10979857471E+03  0.12640671296E+03  0.00000000000E+00 0.  1.
         12    1    6    6    0    0  0.45659057663E+02  0.63053441147E+01  0.13702556679E+03  0.14457009671E+03  0.00000000000E+00 0. -1.
         -5    1    3    3    0  503 -0.54051891496E+02 -0.25985022973E+02  0.11597842504E+03  0.13065187893E+03  0.47000000000E+01 0.  1.
         13    1    4    4    0    0  0.52937037658E+02 -0.21141581851E+02  0.37687111197E+02  0.68334579749E+02  0.00000000000E+00 0. -1.
        -14    1    4    4    0    0  0.42493518587E+02 -0.45720601342E+02  0.18538358502E+03  0.19560967794E+03  0.00000000000E+00 0.  1.
</event>
<event>
12    1  0.8407180E-002  0.1800649E+03  0.7818608E-02  0.1168182E+00
         21   -1    0    0  503  502  0.00000000000E+00  0.00000000000E+00  0.13094244271E+02  0.13094244271E+02  0.00000000000E+00 0. -1.
         21   -1    0    0  501  503 -0.00000000000E+00 -0.00000000000E+00 -0.34664503031E+04  0.34664503031E+04  0.00000000000E+00 0. -1.
          6    2    1    2  501    0  0.50518686801E+02  0.88458904229E+01 -0.26743640259E+04  0.26804190526E+04  0.17260639220E+03 0.  0.
         24    2    3    3    0    0 -0.34658418798E+02  0.11870334010E+02 -0.98870726664E+03  0.99260238991E+03  0.79845691930E+02 0.  0.
         -6    2    1    2    0  502 -0.50518686801E+02 -0.88458904229E+01 -0.77899203288E+03  0.79912549479E+03  0.17071198449E+03 0.  0.
        -24    2    5    5    0    0  0.20829426598E+02  0.86490373371E+01 -0.22279794187E+03  0.23808130522E+03  0.80840052782E+02 0.  0.
          5    1    3    3  501    0  0.85177105599E+02 -0.30244435869E+01 -0.16856567593E+04  0.16878166627E+04  0.47000000000E+01 0. -1.
        -11    1    4    4    0    0 -0.19197489969E+02 -0.16111473595E+02 -0.92794296381E+02  0.96119220988E+02  0.00000000000E+00 0.  1.
         12    1    4    4    0    0 -0.15460928829E+02  0.27981807605E+02 -0.89591297026E+03  0.89648316892E+03  0.00000000000E+00 0. -1.
         -5    1    5    5    0  502 -0.71348113399E+02 -0.17494927760E+02 -0.55619409101E+03  0.56104418957E+03  0.47000000000E+01 0.  1.
         13    1    6    6    0    0 -0.28526258235E+02  0.15235604777E+02 -0.11267475317E+03  0.11722402085E+03  0.00000000000E+00 0. -1.
        -14    1    6    6    0    0  0.49355684833E+02 -0.65865674395E+01 -0.11012318870E+03  0.12085728437E+03  0.00000000000E+00 0.  1.
</event>
<event>
12    1  0.8407180E-002  0.1815015E+03  0.7818608E-02  0.1166496E+00
         21   -1    0    0  501  502  0.00000000000E+00  0.00000000000E+00  0.35122612677E+03  0.35122612677E+03  0.00000000000E+00 0. -1.
         21   -1    0    0  502  503 -0.00000000000E+00 -0.00000000000E+00 -0.11513965672E+03  0.11513965672E+03  0.00000000000E+00 0. -1.
         -6    2    1    2    0  503 -0.49759451430E+02  0.32757256625E+02  0.21929300815E+03  0.28466156063E+03  0.17144602593E+03 0.  0.
        -24    2    3    3    0    0 -0.15373896633E+01  0.70323210874E+02  0.80730928534E+02  0.13314222831E+03  0.79130604583E+02 0.  0.
          6    2    1    2  501    0  0.49759451430E+02 -0.32757256625E+02  0.16793461900E+02  0.18170422285E+03  0.17083724234E+03 0.  0.
         24    2    5    5    0    0  0.10237437112E+02 -0.37390105858E+02 -0.52783797500E+02  0.10141388761E+03  0.77432694561E+02 0.  0.
          5    1    5    5  501    0  0.39522014319E+02  0.46328492328E+01  0.69577259400E+02  0.80290335243E+02  0.47000000000E+01 0. -1.
        -13    1    6    6    0    0  0.38032357939E+02 -0.31612924793E+02 -0.53708500905E+02  0.73009864634E+02  0.00000000000E+00 0.  1.
         14    1    6    6    0    0 -0.27794920827E+02 -0.57771810650E+01  0.92470340518E+00  0.28404022976E+02  0.00000000000E+00 0. -1.
         -5    1    3    3    0  503 -0.48222061767E+02 -0.37565954249E+02  0.13856207962E+03  0.15151933232E+03  0.47000000000E+01 0.  1.
         13    1    4    4    0    0 -0.34452593574E+02  0.18077809040E+02  0.11931668518E+02  0.40695860935E+02  0.00000000000E+00 0. -1.
        -14    1    4    4    0    0  0.32915203910E+02  0.52245401834E+02  0.68799260016E+02  0.92446367371E+02  0.00000000000E+00 0.  1.
</event>
<event>
12    1  0.8407180E-002  0.1875456E+03  0.7818608E-02  0.1160902E+00
         21   -1    0    0  503  502  0.00000000000E+00  0.00000000000E+00  0.43010431098E+02  0.43010431098E+02  0.00000000000E+00 0.  1.
         21   -1    0    0  501  503 -0.00000000000E+00 -0.00000000000E+00 -0.84300985447E+03  0.84300985447E+03  0.00000000000E+00 0.  1.
          6    2    1    2  501    0  0.40751942606E+02 -0.54218228574E+02 -0.48333267265E+03  0.51844364865E+03  0.17485138617E+03 0.  0.
         24    2    3    3    0    0  0.85224051797E+02 -0.68155237050E+02 -0.29275193876E+03  0.32219096758E+03  0.78708618326E+02 0.  0.
         -6    2    1    2    0  502 -0.40751942606E+02  0.54218228574E+02 -0.31666675073E+03  0.36757663692E+03  0.17388046427E+03 0.  0.
        -24    2    5    5    0    0 -0.14847805636E+02  0.84286421051E+02 -0.12162383163E+03  0.16848130598E+03  0.79176612318E+02 0.  0.
          5    1    3    3  501    0 -0.44472109191E+02  0.13937008476E+02 -0.19058073389E+03  0.19625268108E+03  0.47000000000E+01 0. -1.
        -11    1    4    4    0    0  0.71588246829E+02 -0.78725668790E+02 -0.28306519846E+03  0.30240455451E+03  0.00000000000E+00 0.  1.
         12    1    4    4    0    0  0.13635804968E+02  0.10570431740E+02 -0.96867402962E+01  0.19786413062E+02  0.00000000000E+00 0. -1.
         -5    1    5    5    0  502 -0.25904136969E+02 -0.30068192477E+02 -0.19504291910E+03  0.19909533094E+03  0.47000000000E+01 0.  1.
         13    1    6    6    0    0 -0.35872224529E+02  0.86166426442E+02 -0.11042534046E+03  0.14458639408E+03  0.00000000000E+00 0. -1.
        -14    1    6    6    0    0  0.21024418893E+02 -0.18800053913E+01 -0.11198491176E+02  0.23894911899E+02  0.00000000000E+00 0.  1.
</event>
<event>
12    1  0.8407180E-002  0.2242628E+03  0.7818608E-02  0.1130885E+00
         21   -1    0    0  501  502  0.00000000000E+00  0.00000000000E+00  0.29808642115E+03  0.29808642115E+03  0.00000000000E+00 0.  1.
         21   -1    0    0  502  503 -0.00000000000E+00 -0.00000000000E+00 -0.12857095848E+04  0.12857095848E+04  0.00000000000E+00 0.  1.
         -6    2    1    2    0  503  0.18304505964E+02  0.14293165773E+03 -0.12322269473E+04  0.12524683790E+04  0.17184084813E+03 0.  0.
        -24    2    3    3    0    0  0.61404849619E+02  0.48504339092E+02 -0.81565434028E+03  0.82313286332E+03  0.78310161462E+02 0.  0.
          6    2    1    2  501    0 -0.18304505964E+02 -0.14293165773E+03  0.24460378357E+03  0.33132762700E+03  0.17082877906E+03 0.  0.
         24    2    5    5    0    0 -0.14563123723E+02 -0.15236995431E+02  0.16126652212E+03  0.17872646754E+03  0.74108086214E+02 0.  0.
          5    1    5    5  501    0 -0.37413822411E+01 -0.12769466230E+03  0.83337261454E+02  0.15260115946E+03  0.47000000000E+01 0. -1.
        -13    1    6    6    0    0 -0.17850163373E+02 -0.29972204393E+02  0.15979383688E+03  0.16355742622E+03  0.00000000000E+00 0.  1.
         14    1    6    6    0    0  0.32870396506E+01  0.14735208962E+02  0.14726852414E+01  0.15169041322E+02  0.00000000000E+00 0. -1.
         -5    1    3    3    0  503 -0.43100343655E+02  0.94427318639E+02 -0.41657260698E+03  0.42933551567E+03  0.47000000000E+01 0.  1.
         13    1    4    4    0    0  0.64885467048E+02  0.57930073634E+02 -0.51375948627E+03  0.52107084643E+03  0.00000000000E+00 0. -1.
        -14    1    4    4    0    0 -0.34806174297E+01 -0.94257345418E+01 -0.30189485401E+03  0.30206201689E+03  0.00000000000E+00 0.  1.
</event>
<event>
12    1  0.8407180E-002  0.2189310E+03  0.7818608E-02  0.1138045E+00
         21   -1    0    0  503  502  0.00000000000E+00  0.00000000000E+00  0.49779284259E+03  0.49779284259E+03  0.00000000000E+00 0. -1.
         21   -1    0    0  501  503 -0.00000000000E+00 -0.00000000000E+00 -0.28422170533E+03  0.28422170533E+03  0.00000000000E+00 0.  1.
          6    2    1    2  501    0 -0.66330452694E+02  0.87313775449E+02 -0.21591869499E+03  0.30749257307E+03  0.18949241492E+03 0.  0.
         24    2    3    3    0    0  0.10669712595E+01  0.33928296711E+02 -0.13181973964E+02  0.87227527850E+02  0.79262913345E+02 0.  0.
         -6    2    1    2    0  502  0.66330452694E+02 -0.87313775449E+02  0.42948983225E+03  0.47452197485E+03  0.16936990368E+03 0.  0.
        -24    2    5    5    0    0  0.74069961030E+02 -0.11396014176E+03  0.26832589056E+03  0.31091930089E+03  0.78732173111E+02 0.  0.
          5    1    3    3  501    0 -0.67397423953E+02  0.53385478738E+02 -0.20273672102E+03  0.22026504522E+03  0.47000000000E+01 0. -1.
        -11    1    4    4    0    0 -0.31393085068E+02  0.29073967810E+02 -0.28084511514E+02  0.51181648872E+02  0.00000000000E+00 0.  1.
         12    1    4    4    0    0  0.32460056327E+02  0.48543289009E+01  0.14902537550E+02  0.36045878978E+02  0.00000000000E+00 0. -1.
         -5    1    5    5    0  502 -0.77395083361E+01  0.26646366309E+02  0.16116394169E+03  0.16360267396E+03  0.47000000000E+01 0.  1.
         13    1    6    6    0    0  0.47239880671E+02 -0.90202047060E+02  0.11562132798E+03  0.15406591805E+03  0.00000000000E+00 0. -1.
        -14    1    6    6    0    0  0.26830080360E+02 -0.23758094698E+02  0.15270456258E+03  0.15685338284E+03  0.00000000000E+00 0.  1.
</event>
<event>
12    1  0.8407180E-002  0.2081095E+03  0.7818608E-02  0.1146328E+00
         21   -1    0    0  503  502  0.00000000000E+00  0.00000000000E+00  0.72083119312E+03  0.72083119312E+03  0.00000000000E+00 0.  1.
         21   -1    0    0  501  503 -0.00000000000E+00 -0.00000000000E+00 -0.74675371032E+02  0.74675371032E+02  0.00000000000E+00 0. -1.
          6    2    1    2  501    0 -0.60196136044E+02 -0.64722000985E+02  0.13188027075E+03  0.24637773932E+03  0.18840666764E+03 0.  0.
         24    2    3    3    0    0  0.18333657725E+02 -0.82154612371E+02  0.36638711867E+02  0.12162250301E+03  0.79775526892E+02 0.  0.
         -6    2    1    2    0  502  0.60196136044E+02  0.64722000985E+02  0.51427555134E+03  0.54912882483E+03  0.17102810105E+03 0.  0.
        -24    2    5    5    0    0  0.56187953071E+02  0.47602121028E+02  0.15963279741E+03  0.19401936461E+03  0.82084321524E+02 0.  0.
          5    1    3    3  501    0 -0.78529793769E+02  0.17432611386E+02  0.95241558878E+02  0.12475523631E+03  0.47000000000E+01 0. -1.
        -11    1    4    4    0    0 -0.14452438284E+02  0.10167945808E+02  0.89803438943E+01  0.19821873543E+02  0.00000000000E+00 0.  1.
         12    1    4    4    0    0  0.32786096009E+02 -0.92322558180E+02  0.27658367973E+02  0.10180062946E+03  0.00000000000E+00 0. -1.
         -5    1    5    5    0  502  0.40081829728E+01  0.17119879957E+02  0.35464275393E+03  0.35510946022E+03  0.47000000000E+01 0.  1.
         11    1    6    6    0    0  0.20182342162E+01  0.22757281213E+02 -0.81506152877E+00  0.22861133892E+02  0.00000000000E+00 0. -1.
        -12    1    6    6    0    0  0.54169718855E+02  0.24844839816E+02  0.16044785894E+03  0.17115823072E+03  0.00000000000E+00 0.  1.
</event>
<event>
12    1  0.8407180E-002  0.1975059E+03  0.7818608E-02  0.1152148E+00
         21   -1    0    0  501  502  0.00000000000E+00  0.00000000000E+00  0.42032860209E+03  0.42032860209E+03  0.00000000000E+00 0.  1.
         21   -1    0    0  502  503 -0.00000000000E+00 -0.00000000000E+00 -0.13987655826E+03  0.13987655826E+03  0.00000000000E+00 0.  1.
         -6    2    1    2    0  503 -0.11273214803E+02  0.89691718335E+02 -0.23026342949E+02  0.19884367762E+03  0.17560440185E+03 0.  0.
        -24    2    3    3    0    0  0.22467415229E+02 -0.17358048987E+02 -0.13828942919E+02  0.86128261790E+02  0.80129590071E+02 0.  0.
          6    2    1    2  501    0  0.11273214803E+02 -0.89691718335E+02  0.30347838677E+03  0.36136148273E+03  0.17410140796E+03 0.  0.
         24    2    5    5    0    0  0.43129253258E+01 -0.11792646291E+03  0.16038230171E+03  0.21526485036E+03  0.81799884583E+02 0.  0.
          5    1    5    5  501    0  0.69602894775E+01  0.28234744578E+02  0.14309608506E+03  0.14609663237E+03  0.47000000000E+01 0. -1.
        -11    1    6    6    0    0  0.42189979584E+02 -0.53279775370E+02  0.65737373643E+02  0.94552266680E+02  0.00000000000E+00 0.  1.
         12    1    6    6    0    0 -0.37877054258E+02 -0.64646687543E+02  0.94644928068E+02  0.12071258368E+03  0.00000000000E+00 0. -1.
         -5    1    3    3    0  503 -0.33740630033E+02  0.10704976732E+03 -0.91974000296E+01  0.11271541583E+03  0.47000000000E+01 0.  1.
         13    1    4    4    0    0 -0.30206798306E+02 -0.93176489553E+01 -0.29864724277E+01  0.31751980466E+02  0.00000000000E+00 0. -1.
        -14    1    4    4    0    0  0.52674213535E+02 -0.80404000320E+01 -0.10842470492E+02  0.54376281324E+02  0.00000000000E+00 0.  1.
</event>
<event>
12    1  0.8407180E-002  0.2133973E+03  0.7818608E-02  0.1138919E+00
         21   -1    0    0  501  502  0.00000000000E+00  0.00000000000E+00  0.70021008793E+02  0.70021008793E+02  0.00000000000E+00 0.  1.
         21   -1    0    0  502  503 -0.00000000000E+00 -0.00000000000E+00 -0.10701315151E+04  0.10701315151E+04  0.00000000000E+00 0.  1.
         -6    2    1    2    0  503  0.12319741068E+03  0.22162877694E+02 -0.85726317227E+03  0.88342432907E+03  0.17282824858E+03 0.  0.
        -24    2    3    3    0    0  0.70214555489E+02  0.53878570544E+02 -0.75001884726E+03  0.75958369210E+03  0.81278102162E+02 0.  0.
          6    2    1    2  501    0 -0.12319741068E+03 -0.22162877694E+02 -0.14284733400E+03  0.25672819479E+03  0.17272871801E+03 0.  0.
         24    2    5    5    0    0 -0.42722216969E+02  0.13993150899E+02 -0.14131522618E+03  0.16836557509E+03  0.79724385413E+02 0.  0.
          5    1    5    5  501    0 -0.80475193711E+02 -0.36156028593E+02 -0.15321078170E+01  0.88362619703E+02  0.47000000000E+01 0. -1.
        -11    1    6    6    0    0 -0.55875709490E+02  0.24966018576E+02 -0.61608288667E+02  0.86838805997E+02  0.00000000000E+00 0.  1.
         12    1    6    6    0    0  0.13153492521E+02 -0.10972867677E+02 -0.79706937516E+02  0.81526769093E+02  0.00000000000E+00 0. -1.
         -5    1    3    3    0  503  0.52982855191E+02 -0.31715692850E+02 -0.10724432501E+03  0.12384063697E+03  0.47000000000E+01 0.  1.
         11    1    4    4    0    0  0.27723114591E+02  0.29342818254E+02 -0.10181824542E+03  0.10952865911E+03  0.00000000000E+00 0. -1.
        -12    1    4    4    0    0  0.42491440898E+02  0.24535752289E+02 -0.64820060184E+03  0.65005503299E+03  0.00000000000E+00 0.  1.
</event>
<event>
12    1  0.8407180E-002  0.1996523E+03  0.7818608E-02  0.1150412E+00
         21   -1    0    0  501  502  0.00000000000E+00  0.00000000000E+00  0.30829959395E+03  0.30829959395E+03  0.00000000000E+00 0.  1.
         21   -1    0    0  502  503 -0.00000000000E+00 -0.00000000000E+00 -0.21782909829E+03  0.21782909829E+03  0.00000000000E+00 0. -1.
         -6    2    1    2    0  503  0.97913777213E+02 -0.63749008970E+01 -0.12344642568E+03  0.23473401468E+03  0.17387722826E+03 0.  0.
        -24    2    3    3    0    0 -0.10687876775E+02 -0.23398063940E+02 -0.82588215010E+02  0.11736455226E+03  0.79321653813E+02 0.  0.
          6    2    1    2  501    0 -0.97913777213E+02  0.63749008970E+01  0.21391692135E+03  0.29139467756E+03  0.17182159860E+03 0.  0.
         24    2    5    5    0    0 -0.21201643511E+02 -0.15871752070E+02  0.25292464372E+02  0.86502167222E+02  0.78367684530E+02 0.  0.
          5    1    5    5  501    0 -0.76712133702E+02  0.22246652967E+02  0.18862445697E+03  0.20489251034E+03  0.47000000000E+01 0. -1.
        -11    1    6    6    0    0  0.93243434921E+01 -0.41149502140E+02  0.19378392171E+02  0.46430022518E+02  0.00000000000E+00 0.  1.
         12    1    6    6    0    0 -0.30525987003E+02  0.25277750070E+02  0.59140722013E+01  0.40072144703E+02  0.00000000000E+00 0. -1.
         -5    1    3    3    0  503  0.10860165399E+03  0.17023163043E+02 -0.40858210673E+02  0.11736946242E+03  0.47000000000E+01 0.  1.
         13    1    4    4    0    0  0.11535622295E+02 -0.22121323035E+02 -0.90395409014E+02  0.93775015251E+02  0.00000000000E+00 0. -1.
        -14    1    4    4    0    0 -0.22223499071E+02 -0.12767409057E+01  0.78071940044E+01  0.23589537013E+02  0.00000000000E+00 0.  1.
</event>
<event>
12    1  0.8407180E-002  0.3002944E+03  0.7818608E-02  0.1085109E+00
         21   -1    0    0  501  502  0.00000000000E+00  0.00000000000E+00  0.13659275367E+04  0.13659275367E+04  0.00000000000E+00 0. -1.
         21   -1    0    0  502  503 -0.00000000000E+00 -0.00000000000E+00 -0.10100537918E+03  0.10100537918E+03  0.00000000000E+00 0.  1.
         -6    2    1    2    0  503 -0.15978807819E+03  0.18766984226E+03  0.20053220282E+03  0.36099317392E+03  0.17132048221E+03 0.  0.
        -24    2    3    3    0    0 -0.14897220900E+03  0.84105717321E+02  0.16617219407E+03  0.25124249647E+03  0.79013310342E+02 0.  0.
          6    2    1    2  501    0  0.15978807819E+03 -0.18766984226E+03  0.10643899547E+04  0.11059397420E+04  0.17153582004E+03 0.  0.
         24    2    5    5    0    0  0.67052564456E+02 -0.17723348336E+03  0.68831101159E+03  0.71842683309E+03  0.80357400393E+02 0.  0.
          5    1    5    5  501    0  0.92735513732E+02 -0.10436358901E+02  0.37607894311E+03  0.38751290887E+03  0.47000000000E+01 0. -1.
        -11    1    6    6    0    0 -0.99424473630E+01 -0.18358484593E+01  0.80853654384E+02  0.81483348154E+02  0.00000000000E+00 0.  1.
         12    1    6    6    0    0  0.76995011820E+02 -0.17539763490E+03  0.60745735721E+03  0.63694348493E+03  0.00000000000E+00 0. -1.
         -5    1    3    3    0  503 -0.10815869193E+02  0.10356412494E+03  0.34360008757E+02  0.10975067746E+03  0.47000000000E+01 0.  1.
         13    1    4    4    0    0 -0.20940569752E+02 -0.69093254053E+01 -0.70426743703E+00  0.22062235420E+02  0.00000000000E+00 0. -1.
        -14    1    4    4    0    0 -0.12803163924E+03  0.91015042727E+02  0.16687646150E+03  0.22918026105E+03  0.00000000000E+00 0.  1.
</event>
<event>
12    1  0.8407180E-002  0.2107131E+03  0.7818608E-02  0.1141101E+00
         21   -1    0    0  503  502  0.00000000000E+00  0.00000000000E+00  0.14862212144E+03  0.14862212144E+03  0.00000000000E+00 0.  1.
         21   -1    0    0  501  503 -0.00000000000E+00 -0.00000000000E+00 -0.36779125970E+03  0.36779125970E+03  0.00000000000E+00 0. -1.
          6    2    1    2  501    0 -0.13115471545E+02  0.12051572047E+03 -0.22213658071E+03  0.30617749399E+03  0.17234831842E+03 0.  0.
         24    2    3    3    0    0  0.48248964921E+02  0.27751391832E+02 -0.13043752927E+03  0.16194982409E+03  0.78202903497E+02 0.  0.
         -6    2    1    2    0  502  0.13115471545E+02 -0.12051572047E+03  0.29674424534E+01  0.21023588715E+03  0.17173895323E+03 0.  0.
        -24    2    5    5    0    0  0.53804105611E+02 -0.17530659464E+02 -0.11049355176E+01  0.99329791759E+02  0.81627084026E+02 0.  0.
          5    1    3    3  501    0 -0.61364436466E+02  0.92764328638E+02 -0.91699051438E+02  0.14422766990E+03  0.47000000000E+01 0. -1.
        -11    1    4    4    0    0  0.63749310940E+02  0.13555383725E+02 -0.60516818500E+02  0.88938227971E+02  0.00000000000E+00 0.  1.
         12    1    4    4    0    0 -0.15500346019E+02  0.14196008107E+02 -0.69920710771E+02  0.73011596117E+02  0.00000000000E+00 0. -1.
         -5    1    5    5    0  502 -0.40688634066E+02 -0.10298506101E+03  0.40723779710E+01  0.11090609539E+03  0.47000000000E+01 0.  1.
         13    1    6    6    0    0 -0.29760274538E+01  0.22241381794E+02  0.16443296702E+02  0.27819378317E+02  0.00000000000E+00 0. -1.
        -14    1    6    6    0    0  0.56780133065E+02 -0.39772041257E+02 -0.17548232219E+02  0.71510413442E+02  0.00000000000E+00 0.  1.
</event>
<event>
12    1  0.8407180E-002  0.2320940E+03  0.7818608E-02  0.1125471E+00
         21   -1    0    0  503  502  0.00000000000E+00  0.00000000000E+00  0.19433441127E+03  0.19433441127E+03  0.00000000000E+00 0.  1.
         21   -1    0    0  501  503 -0.00000000000E+00 -0.00000000000E+00 -0.29138308106E+03  0.29138308106E+03  0.00000000000E+00 0.  1.
          6    2    1    2  501    0 -0.25636395052E+02  0.15200564292E+03 -0.10565402863E+03  0.25346398935E+03  0.17122581552E+03 0.  0.
         24    2    3    3    0    0  0.48902171116E+02  0.60833239758E+02 -0.67848221854E+02  0.12969091485E+03  0.78257566966E+02 0.  0.
         -6    2    1    2    0  502  0.25636395052E+02 -0.15200564292E+03  0.86053588378E+01  0.23225350299E+03  0.17350705236E+03 0.  0.
        -24    2    5    5    0    0  0.66481044715E+02 -0.11680048599E+03  0.50176344380E+02  0.16400450798E+03  0.79484151048E+02 0.  0.
          5    1    3    3  501    0 -0.74538566168E+02  0.91172403163E+02 -0.37805806775E+02  0.12377307450E+03  0.47000000000E+01 0. -1.
        -13    1    4    4    0    0  0.62205423234E+02  0.55286575059E+02 -0.28796925826E+02  0.88064652378E+02  0.00000000000E+00 0.  1.
         14    1    4    4    0    0 -0.13303252117E+02  0.55466646990E+01 -0.39051296029E+02  0.41626262476E+02  0.00000000000E+00 0. -1.
         -5    1    5    5    0  502 -0.40844649663E+02 -0.35205156930E+02 -0.41570985542E+02  0.68248995007E+02  0.47000000000E+01 0.  1.
         13    1    6    6    0    0  0.19693749591E+02 -0.72327765612E+01  0.39072798956E+02  0.44349074940E+02  0.00000000000E+00 0. -1.
        -14    1    6    6    0    0  0.46787295124E+02 -0.10956770943E+03  0.11103545424E+02  0.11965543304E+03  0.00000000000E+00 0.  1.
</event>
<event>
12    1  0.8407180E-002  0.1786896E+03  0.7818608E-02  0.1169616E+00
         21   -1    0    0  503  502  0.00000000000E+00  0.00000000000E+00  0.41813970689E+03  0.41813970689E+03  0.00000000000E+00 0.  1.
         21   -1    0    0  501  503 -0.00000000000E+00 -0.00000000000E+00 -0.45950216450E+03  0.45950216450E+03  0.00000000000E+00 0.  1.
          6    2    1    2  501    0 -0.39539203338E+02 -0.13320777617E+02 -0.42184933359E+03  0.45728459567E+03  0.17149795762E+03 0.  0.
         24    2    3    3    0    0 -0.12850674700E+02 -0.44196841491E+02 -0.40019798947E+03  0.41084668461E+03  0.80734545533E+02 0.  0.
         -6    2    1    2    0  502  0.39539203338E+02  0.13320777617E+02  0.38048687598E+03  0.42035727572E+03  0.17375035176E+03 0.  0.
        -24    2    5    5    0    0  0.91723090006E+02 -0.44243107353E+01  0.29304019610E+03  0.31688236083E+03  0.78161207193E+02 0.  0.
          5    1    3    3  501    0 -0.26688528639E+02  0.30876063874E+02 -0.21651344123E+02  0.46437911060E+02  0.47000000000E+01 0. -1.
        -13    1    4    4    0    0 -0.13988040660E+02 -0.25469985602E+02 -0.38656384368E+03  0.38765447333E+03  0.00000000000E+00 0.  1.
         14    1    4    4    0    0  0.11373659601E+01 -0.18726855889E+02 -0.13634145784E+02  0.23192211280E+02  0.00000000000E+00 0. -1.
         -5    1    5    5    0  502 -0.52183886668E+02  0.17745088352E+02  0.87446679887E+02  0.10347491489E+03  0.47000000000E+01 0.  1.
         11    1    6    6    0    0  0.13941865607E+01 -0.20479425267E+02  0.19292990705E+02  0.28170376387E+02  0.00000000000E+00 0. -1.
        -12    1    6    6    0    0  0.90328903445E+02  0.16055114532E+02  0.27374720539E+03  0.28871198444E+03  0.00000000000E+00 0.  1.
</event>
<event>
12    1  0.8407180E-002  0.1856603E+03  0.7818608E-02  0.1164398E+00
         21   -1    0    0  503  502  0.00000000000E+00  0.00000000000E+00  0.43316507114E+02  0.43316507114E+02  0.00000000000E+00 0. -1.
         21   -1    0    0  501  503 -0.00000000000E+00 -0.00000000000E+00 -0.18438632009E+04  0.18438632009E+04  0.00000000000E+00 0. -1.
          6    2    1    2  501    0  0.21723528321E+02  0.65935185297E+02 -0.16149343280E+04  0.16246502856E+04  0.16326759136E+03 0.  0.
         24    2    3    3    0    0  0.31371117707E+02 -0.11335480528E+02 -0.55135138183E+03  0.55821013014E+03  0.80607462454E+02 0.  0.
         -6    2    1    2    0  502 -0.21723528321E+02 -0.65935185297E+02 -0.18561236571E+03  0.26252942235E+03  0.17219287717E+03 0.  0.
        -24    2    5    5    0    0 -0.69816684875E+02 -0.45874818534E+02 -0.17376159364E+03  0.20888335240E+03  0.80375960482E+02 0.  0.
          5    1    3    3  501    0 -0.96475893860E+01  0.77270665825E+02 -0.10635829462E+04  0.10664401555E+04  0.47000000000E+01 0. -1.
        -11    1    4    4    0    0 -0.15338575814E+02  0.58674722422E+01 -0.27730132212E+02  0.32228238720E+02  0.00000000000E+00 0.  1.
         12    1    4    4    0    0  0.46709693521E+02 -0.17202952770E+02 -0.52362124962E+03  0.52598189142E+03  0.00000000000E+00 0. -1.
         -5    1    5    5    0  502  0.48093156553E+02 -0.20060366763E+02 -0.11850772075E+02  0.53646069947E+02  0.47000000000E+01 0.  1.
         13    1    6    6    0    0 -0.19896446348E+02 -0.14732355968E+02  0.70034966760E+00  0.24766941259E+02  0.00000000000E+00 0. -1.
        -14    1    6    6    0    0 -0.49920238526E+02 -0.31142462566E+02 -0.17446194331E+03  0.18411641114E+03  0.00000000000E+00 0.  1.
</event>
<event>
12    1  0.8407180E-002  0.1907438E+03  0.7818608E-02  0.1157851E+00
         21   -1    0    0  503  502  0.00000000000E+00  0.00000000000E+00  0.15153046694E+03  0.15153046694E+03  0.00000000000E+00 0. -1.
         21   -1    0    0  501  503 -0.00000000000E+00 -0.00000000000E+00 -0.24353894523E+03  0.24353894523E+03  0.00000000000E+00 0. -1.
          6    2    1    2  501    0 -0.74592856156E+02 -0.34586871716E+02 -0.70589359866E+02  0.20338645669E+03  0.17211289073E+03 0.  0.
         24    2    3    3    0    0  0.84677086423E+01  0.33453872403E+02 -0.19177729041E+02  0.84248527935E+02  0.74425570200E+02 0.  0.
         -6    2    1    2    0  502  0.74592856156E+02  0.34586871716E+02 -0.21419118419E+02  0.19168295547E+03  0.17182325483E+03 0.  0.
        -24    2    5    5    0    0  0.10342141580E+03  0.67200186553E+02 -0.22127248494E+02  0.14789590711E+03  0.78560358287E+02 0.  0.
          5    1    3    3  501    0 -0.83060564798E+02 -0.68040744119E+02 -0.51411630825E+02  0.11913792876E+03  0.47000000000E+01 0. -1.
        -13    1    4    4    0    0  0.20255733436E+02  0.35502099166E+02  0.18390695315E+02  0.44820881924E+02  0.00000000000E+00 0.  1.
         14    1    4    4    0    0 -0.11788024794E+02 -0.20482267627E+01 -0.37568424356E+02  0.39427646012E+02  0.00000000000E+00 0. -1.
         -5    1    5    5    0  502 -0.28828559648E+02 -0.32613314837E+02  0.70813007510E+00  0.43787048362E+02  0.47000000000E+01 0.  1.
         13    1    6    6    0    0  0.18305635011E+02 -0.21867000276E+01 -0.32735854840E+02  0.37570122734E+02  0.00000000000E+00 0. -1.
        -14    1    6    6    0    0  0.85115780794E+02  0.69386886581E+02  0.10608606346E+02  0.11032578438E+03  0.00000000000E+00 0.  1.
</event>
<event>
12    1  0.8407180E-002  0.2199774E+03  0.7818608E-02  0.1134160E+00
         21   -1    0    0  501  502  0.00000000000E+00  0.00000000000E+00  0.99437058700E+02  0.99437058700E+02  0.00000000000E+00 0. -1.
         21   -1    0    0  502  503 -0.00000000000E+00 -0.00000000000E+00 -0.50081748613E+03  0.50081748613E+03  0.00000000000E+00 0. -1.
         -6    2    1    2    0  503  0.12896772252E+03  0.26151421195E+02 -0.25700841211E+03  0.33829479309E+03  0.17627669403E+03 0.  0.
        -24    2    3    3    0    0  0.67823485541E+02  0.27436632806E+02 -0.44202650995E+02  0.11682549173E+03  0.79633706125E+02 0.  0.
          6    2    1    2  501    0 -0.12896772252E+03 -0.26151421195E+02 -0.14437201532E+03  0.26195975174E+03  0.17453670801E+03 0.  0.
         24    2    5    5    0    0 -0.10689594728E+02 -0.51770449869E+02 -0.79631096598E+02  0.12462975975E+03  0.79981363797E+02 0.  0.
          5    1    5    5  501    0 -0.11827812779E+03  0.25619028673E+02 -0.64740918727E+02  0.13732999199E+03  0.47000000000E+01 0. -1.
        -11    1    6    6    0    0 -0.85812550507E+01 -0.22291191045E+00 -0.71962047307E+02  0.72472228340E+02  0.00000000000E+00 0.  1.
         12    1    6    6    0    0 -0.21083396777E+01 -0.51547537958E+02 -0.76690492910E+01  0.52157531410E+02  0.00000000000E+00 0. -1.
         -5    1    3    3    0  503  0.61144236975E+02 -0.12852116107E+01 -0.21280576111E+03  0.22146930137E+03  0.47000000000E+01 0.  1.
         11    1    4    4    0    0  0.51817363742E+02  0.11504078218E+02 -0.66501902599E+02  0.85087519943E+02  0.00000000000E+00 0. -1.
        -12    1    4    4    0    0  0.16006121799E+02  0.15932554588E+02  0.22299251604E+02  0.31737971782E+02  0.00000000000E+00 0.  1.
</event>
<event>
12    1  0.8407180E-002  0.2349298E+03  0.7818608E-02  0.1123233E+00
         21   -1    0    0  503  502  0.00000000000E+00  0.00000000000E+00  0.26064525108E+03  0.26064525108E+03  0.00000000000E+00 0. -1.
         21   -1    0    0  501  503 -0.00000000000E+00 -0.00000000000E+00 -0.21168327720E+03  0.21168327720E+03  0.00000000000E+00 0. -1.
          6    2    1    2  501    0 -0.15383515584E+03 -0.42071080404E+02  0.22584736025E+02  0.23592257134E+03  0.17237795215E+03 0.  0.
         24    2    3    3    0    0 -0.83560179780E+02  0.17453678088E+02 -0.37291430151E+02  0.12597251718E+03  0.84802652066E+02 0.  0.
         -6    2    1    2    0  502  0.15383515584E+03  0.42071080404E+02  0.26377237850E+02  0.23640595694E+03  0.17250155599E+03 0.  0.
        -24    2    5    5    0    0  0.40650431524E+02 -0.36666406101E+02  0.51420511289E+01  0.96823018311E+02  0.79695503421E+02 0.  0.
          5    1    3    3  501    0 -0.70274976064E+02 -0.59524758492E+02  0.59876166177E+02  0.10995005416E+03  0.47000000000E+01 0. -1.
        -11    1    4    4    0    0  0.93706541091E+01  0.10030080569E+02  0.13967318002E+02  0.19583095946E+02  0.00000000000E+00 0.  1.
         12    1    4    4    0    0 -0.92930833889E+02  0.74235975184E+01 -0.51258748154E+02  0.10638942123E+03  0.00000000000E+00 0. -1.
         -5    1    5    5    0  502  0.11318472432E+03  0.78737486505E+02  0.21235186721E+02  0.13958293863E+03  0.47000000000E+01 0.  1.
         13    1    6    6    0    0  0.29222248348E+02  0.21715349380E+02 -0.40323019222E+01  0.36629983019E+02  0.00000000000E+00 0. -1.
        -14    1    6    6    0    0  0.11428183177E+02 -0.58381755481E+02  0.91743530511E+01  0.60193035292E+02  0.00000000000E+00 0.  1.
</event>
<event>
12    1  0.8407180E-002  0.2209069E+03  0.7818608E-02  0.1133212E+00
         21   -1    0    0  501  502  0.00000000000E+00  0.00000000000E+00  0.17589161155E+03  0.17589161155E+03  0.00000000000E+00 0. -1.
         21   -1    0    0  502  503 -0.00000000000E+00 -0.00000000000E+00 -0.34953249998E+03  0.34953249998E+03  0.00000000000E+00 0.  1.
         -6    2    1    2    0  503  0.92226382035E+02  0.10503525790E+03 -0.20614489999E+03  0.30213874424E+03  0.17103797834E+03 0.  0.
        -24    2    3    3    0    0  0.54422647862E+02 -0.84162409771E+01 -0.94966581325E+02  0.13878920045E+03  0.84918389534E+02 0.  0.
          6    2    1    2  501    0 -0.92226382035E+02 -0.10503525790E+03  0.32504011558E+02  0.22328536730E+03  0.17106061364E+03 0.  0.
         24    2    5    5    0    0 -0.24633457120E+01 -0.93646723323E+01 -0.19776225474E+02  0.81985767806E+02  0.78973425080E+02 0.  0.
          5    1    5    5  501    0 -0.89763036323E+02 -0.95670585566E+02  0.52280237032E+02  0.14129959949E+03  0.47000000000E+01 0. -1.
        -11    1    6    6    0    0  0.22518919912E+02 -0.27536622519E+02 -0.32869639732E+02  0.48433258716E+02  0.00000000000E+00 0.  1.
         12    1    6    6    0    0 -0.24982265624E+02  0.18171950187E+02  0.13093414258E+02  0.33552509090E+02  0.00000000000E+00 0. -1.
         -5    1    3    3    0  503  0.37803734173E+02  0.11345149888E+03 -0.11117831866E+03  0.16334954379E+03  0.47000000000E+01 0.  1.
         11    1    4    4    0    0  0.83831496634E+01  0.29317473757E+02 -0.49814614504E+01  0.30896705713E+02  0.00000000000E+00 0. -1.
        -12    1    4    4    0    0  0.46039498199E+02 -0.37733714734E+02 -0.89985119874E+02  0.10789249474E+03  0.00000000000E+00 0.  1.
</event>
<event>
12    1  0.8407180E-002  0.1827375E+03  0.7818608E-02  0.1165194E+00
         21   -1    0    0  501  502  0.00000000000E+00  0.00000000000E+00  0.49823777409E+02  0.49823777409E+02  0.00000000000E+00 0.  1.
         21   -1    0    0  502  503 -0.00000000000E+00 -0.00000000000E+00 -0.74995084174E+03  0.74995084174E+03  0.00000000000E+00 0. -1.
         -6    2    1    2    0  503 -0.60957397157E+02 -0.35633950250E+01 -0.48068776340E+03  0.51425062969E+03  0.17223380100E+03 0.  0.
        -24    2    3    3    0    0 -0.15215147938E+02  0.19292889095E+01 -0.45317393190E+03  0.46038390653E+03  0.79696335896E+02 0.  0.
          6    2    1    2  501    0  0.60957397157E+02  0.35633950250E+01 -0.21943930094E+03  0.28552398946E+03  0.17216805659E+03 0.  0.
         24    2    5    5    0    0  0.90543462990E+02 -0.19169042314E+02 -0.21515833663E+03  0.24767540093E+03  0.80525918355E+02 0.  0.
          5    1    5    5  501    0 -0.29586065833E+02  0.22732437339E+02 -0.42809643030E+01  0.37848588537E+02  0.47000000000E+01 0. -1.
        -11    1    6    6    0    0 -0.12796877075E+02 -0.12755330768E+02 -0.21569031053E+02  0.28136837535E+02  0.00000000000E+00 0.  1.
         12    1    6    6    0    0  0.10334034006E+03 -0.64137115462E+01 -0.19358930558E+03  0.21953856339E+03  0.00000000000E+00 0. -1.
         -5    1    3    3    0  503 -0.45742249219E+02 -0.54926839346E+01 -0.27513831495E+02  0.53866723159E+02  0.47000000000E+01 0.  1.
         13    1    4    4    0    0 -0.11407546697E+02  0.37899909083E+02 -0.31801415878E+03  0.32046769013E+03  0.00000000000E+00 0. -1.
        -14    1    4    4    0    0 -0.38076012416E+01 -0.35970620173E+02 -0.13515977312E+03  0.13991621640E+03  0.00000000000E+00 0.  1.
</event>
<event>
12    1  0.8407180E-002  0.2329110E+03  0.7818608E-02  0.1124686E+00
         21   -1    0    0  501  502  0.00000000000E+00  0.00000000000E+00  0.36036400821E+03  0.36036400821E+03  0.00000000000E+00 0.  1.
         21   -1    0    0  502  503 -0.00000000000E+00 -0.00000000000E+00 -0.20208506973E+03  0.20208506973E+03  0.00000000000E+00 0. -1.
         -6    2    1    2    0  503  0.14686101433E+02  0.15560508613E+03  0.22163700353E+03  0.32151280114E+03  0.17268148585E+03 0.  0.
        -24    2    3    3    0    0 -0.22399052801E+02  0.14877528590E+02  0.54807635286E+02  0.10007729760E+03  0.79300253380E+02 0.  0.
          6    2    1    2  501    0 -0.14686101433E+02 -0.15560508613E+03 -0.63358065056E+02  0.24093627680E+03  0.17206806986E+03 0.  0.
         24    2    5    5    0    0  0.38384213274E+02 -0.29918641480E+02  0.58608092609E+01  0.87877846020E+02  0.72936231047E+02 0.  0.
          5    1    5    5  501    0 -0.53070314707E+02 -0.12568644465E+03 -0.69218874317E+02  0.15305843078E+03  0.47000000000E+01 0. -1.
        -11    1    6    6    0    0  0.39936009403E+02  0.12045030004E+02 -0.10161250328E+02  0.42932721823E+02  0.00000000000E+00 0.  1.
         12    1    6    6    0    0 -0.15517961292E+01 -0.41963671484E+02  0.16022059589E+02  0.44945124198E+02  0.00000000000E+00 0. -1.
         -5    1    3    3    0  503  0.37085154234E+02  0.14072755754E+03  0.16682936825E+03  0.22143550354E+03  0.47000000000E+01 0.  1.
         13    1    4    4    0    0 -0.48943563133E+02  0.21191840189E+02  0.22760194354E+02  0.57987868643E+02  0.00000000000E+00 0. -1.
        -14    1    4    4    0    0  0.26544510332E+02 -0.63143115992E+01  0.32047440932E+02  0.42089428958E+02  0.00000000000E+00 0.  1.
</event>
<event>
12    1  0.8407180E-002  0.3113086E+03  0.7818608E-02  0.1079758E+00
         21   -1    0    0  501  502  0.00000000000E+00  0.00000000000E+00  0.16735747238E+03  0.16735747238E+03  0.00000000000E+00 0. -1.
         21   -1    0    0  502  503 -0.00000000000E+00 -0.00000000000E+00 -0.74648564344E+03  0.74648564344E+03  0.00000000000E+00 0. -1.
         -6    2    1    2    0  503  0.24647940524E+03  0.81229581448E+02 -0.72919481895E+02  0.31973476329E+03  0.17193814558E+03 0.  0.
        -24    2    3    3    0    0  0.22046598213E+03  0.94767934721E+02 -0.10725083756E+03  0.27433964050E+03  0.78570258135E+02 0.  0.
          6    2    1    2  501    0 -0.24647940524E+03 -0.81229581448E+02 -0.50620868916E+03  0.59410835253E+03  0.17136847859E+03 0.  0.
         24    2    5    5    0    0 -0.71706874777E+02  0.10284018183E+01 -0.11089407809E+03  0.15409977881E+03  0.79412289825E+02 0.  0.
          5    1    5    5  501    0 -0.17477253046E+03 -0.82257983266E+02 -0.39531461108E+03  0.44000857372E+03  0.47000000000E+01 0. -1.
        -11    1    6    6    0    0 -0.78095243983E+02  0.68948722050E+01 -0.50879981872E+02  0.93462179253E+02  0.00000000000E+00 0.  1.
         12    1    6    6    0    0  0.63883692063E+01 -0.58664703867E+01 -0.60014096216E+02  0.60637599561E+02  0.00000000000E+00 0. -1.
         -5    1    3    3    0  503  0.26013423111E+02 -0.13538353273E+02  0.34331355667E+02  0.45395122791E+02  0.47000000000E+01 0.  1.
         11    1    4    4    0    0  0.12325527384E+03  0.87342207813E+02 -0.88435496524E+02  0.17504673902E+03  0.00000000000E+00 0. -1.
        -12    1    4    4    0    0  0.97210708289E+02  0.74257269077E+01 -0.18815341037E+02  0.99292901481E+02  0.00000000000E+00 0.  1.
</event>
<event>
12    1  0.8407180E-002  0.1869485E+03  0.7818608E-02  0.1161721E+00
         21   -1    0    0  503  502  0.00000000000E+00  0.00000000000E+00  0.32204320798E+03  0.32204320798E+03  0.00000000000E+00 0.  1.
         21   -1    0    0  501  503 -0.00000000000E+00 -0.00000000000E+00 -0.13604051171E+03  0.13604051171E+03  0.00000000000E+00 0.  1.
          6    2    1    2  501    0  0.11227715344E+01  0.67098129162E+02 -0.12623619658E+02  0.18531612497E+03  0.17227678557E+03 0.  0.
         24    2    3    3    0    0  0.33617117366E+02  0.33800361384E+02 -0.64661007657E+02  0.11535468130E+03  0.82783341183E+02 0.  0.
         -6    2    1    2    0  502 -0.11227715344E+01 -0.67098129162E+02  0.19862631592E+03  0.27276759472E+03  0.17448876125E+03 0.  0.
        -24    2    5    5    0    0  0.13648683284E+02  0.27888710057E+02  0.12760432124E+03  0.15315610183E+03  0.78802677786E+02 0.  0.
          5    1    3    3  501    0 -0.32494345831E+02  0.33297767778E+02  0.52037387999E+02  0.69961443665E+02  0.47000000000E+01 0. -1.
        -11    1    4    4    0    0  0.21774771491E+02  0.61412224371E+02 -0.48600097648E+02  0.81286969848E+02  0.00000000000E+00 0.  1.
         12    1    4    4    0    0  0.11842345875E+02 -0.27611862987E+02 -0.16060910009E+02  0.34067711454E+02  0.00000000000E+00 0. -1.
         -5    1    5    5    0  502 -0.14771454819E+02 -0.94986839219E+02  0.71021994684E+02  0.11961149289E+03  0.47000000000E+01 0.  1.
         13    1    6    6    0    0  0.43851746605E+02  0.13361659160E+02  0.46022518656E+02  0.64958308470E+02  0.00000000000E+00 0. -1.
        -14    1    6    6    0    0 -0.30203063321E+02  0.14527050897E+02  0.81581802582E+02  0.88197793364E+02  0.00000000000E+00 0.  1.
</event>
<event>
12    1  0.8407180E-002  0.2172036E+03  0.7818608E-02  0.1136218E+00
         21   -1    0    0  501  502  0.00000000000E+00  0.00000000000E+00  0.91039336880E+03  0.91039336880E+03  0.00000000000E+00 0.  1.
         21   -1    0    0  502  503 -0.00000000000E+00 -0.00000000000E+00 -0.94240746989E+02  0.94240746989E+02  0.00000000000E+00 0. -1.
         -6    2    1    2    0  503 -0.32836680204E+02 -0.12684088007E+03  0.69275807445E+02  0.22681511789E+03  0.17169479836E+03 0.  0.
        -24    2    3    3    0    0 -0.50043519583E+01 -0.13163202477E+03  0.10127577273E+03  0.18387700730E+03  0.78752385268E+02 0.  0.
          6    2    1    2  501    0  0.32836680204E+02  0.12684088007E+03  0.74687681436E+03  0.77781899789E+03  0.17323556571E+03 0.  0.
         24    2    5    5    0    0  0.64661767298E+01  0.14517378232E+03  0.71118254714E+03  0.72957307090E+03  0.73341747448E+02 0.  0.
          5    1    5    5  501    0  0.26370503474E+02 -0.18332902252E+02  0.35694267226E+02  0.48245926991E+02  0.47000000000E+01 0. -1.
        -13    1    6    6    0    0 -0.77114406618E+01 -0.14851027402E+01  0.12177424437E+03  0.12202720369E+03  0.00000000000E+00 0.  1.
         14    1    6    6    0    0  0.14177617392E+02  0.14665888507E+03  0.58940830276E+03  0.60754586721E+03  0.00000000000E+00 0. -1.
         -5    1    3    3    0  503 -0.27832328246E+02  0.47911446996E+01 -0.31999965288E+02  0.42938110596E+02  0.47000000000E+01 0.  1.
         13    1    4    4    0    0 -0.22309523264E+02 -0.10060180459E+03  0.35267092299E+02  0.10891375356E+03  0.00000000000E+00 0. -1.
        -14    1    4    4    0    0  0.17305171306E+02 -0.31030220186E+02  0.66008680435E+02  0.74963253741E+02  0.00000000000E+00 0.  1.
</event>
<event>
12    1  0.8407180E-002  0.2858424E+03  0.7818608E-02  0.1093967E+00
         21   -1    0    0  503  502  0.00000000000E+00  0.00000000000E+00  0.30766108947E+03  0.30766108947E+03  0.00000000000E+00 0. -1.
         21   -1    0    0  501  503 -0.00000000000E+00 -0.00000000000E+00 -0.13072601748E+04  0.13072601748E+04  0.00000000000E+00 0.  1.
          6    2    1    2  501    0  0.16372532310E+03  0.15712019395E+03 -0.12257401095E+04  0.12586280976E+04  0.17381926011E+03 0.  0.
         24    2    3    3    0    0  0.16295962970E+03  0.66399405369E+02 -0.77095587498E+03  0.79485914892E+03  0.80395170909E+02 0.  0.
         -6    2    1    2    0  502 -0.16372532310E+03 -0.15712019395E+03  0.22614102423E+03  0.35629316665E+03  0.15592408727E+03 0.  0.
        -24    2    5    5    0    0 -0.12993054875E+03 -0.17663145664E+03  0.17333981297E+03  0.29046890019E+03  0.79024504070E+02 0.  0.
          5    1    3    3  501    0  0.76569340378E+00  0.90720788581E+02 -0.45478423455E+03  0.46376894868E+03  0.47000000000E+01 0. -1.
        -13    1    4    4    0    0  0.10895093095E+03  0.82773699885E+02 -0.52907896762E+03  0.54648544786E+03  0.00000000000E+00 0.  1.
         14    1    4    4    0    0  0.54008698747E+02 -0.16374294516E+02 -0.24187690736E+03  0.24837370106E+03  0.00000000000E+00 0. -1.
         -5    1    5    5    0  502 -0.33794774353E+02  0.19511262685E+02  0.52801211258E+02  0.65824266463E+02  0.47000000000E+01 0.  1.
         11    1    6    6    0    0 -0.90673430424E+02 -0.56901732547E+02  0.81868608551E+02  0.13476626884E+03  0.00000000000E+00 0. -1.
        -12    1    6    6    0    0 -0.39257118326E+02 -0.11972972409E+03  0.91471204419E+02  0.15570263134E+03  0.00000000000E+00 0.  1.
</event>
<event>
12    1  0.8407180E-002  0.1941986E+03  0.7818608E-02  0.1155052E+00
         21   -1    0    0  503  502  0.00000000000E+00  0.00000000000E+00  0.16996854912E+04  0.16996854912E+04  0.00000000000E+00 0.  1.
         21   -1    0    0  501  503 -0.00000000000E+00 -0.00000000000E+00 -0.34534038144E+02  0.34534038144E+02  0.00000000000E+00 0.  1.
          6    2    1    2  501    0 -0.86515770665E+02  0.86154952064E+01  0.30858696184E+03  0.36382531617E+03  0.17199925097E+03 0.  0.
         24    2    3    3    0    0 -0.93773767887E+02  0.39521315722E+02  0.13629843893E+03  0.18857328795E+03  0.81407410812E+02 0.  0.
         -6    2    1    2    0  502  0.86515770665E+02 -0.86154952064E+01  0.13565644912E+04  0.13703942132E+04  0.17364871251E+03 0.  0.
        -24    2    5    5    0    0  0.65007828888E+02 -0.72421755014E+02  0.84318214452E+03  0.85259371661E+03  0.80554257163E+02 0.  0.
          5    1    3    3  501    0  0.72579972219E+01 -0.30905820516E+02  0.17228852291E+03  0.17525202822E+03  0.47000000000E+01 0. -1.
        -11    1    4    4    0    0 -0.10533976540E+03  0.27739023777E+02  0.13268534359E+03  0.17167212942E+03  0.00000000000E+00 0.  1.
         12    1    4    4    0    0  0.11565997513E+02  0.11782291945E+02  0.36130953374E+01  0.16901158536E+02  0.00000000000E+00 0. -1.
         -5    1    5    5    0  502  0.21507941777E+02  0.63806259808E+02  0.51338234671E+03  0.51780049658E+03  0.47000000000E+01 0.  1.
         13    1    6    6    0    0  0.28219452256E+02 -0.58206004393E+02  0.25450124331E+03  0.26259314400E+03  0.00000000000E+00 0. -1.
        -14    1    6    6    0    0  0.36788376632E+02 -0.14215750621E+02  0.58868090121E+03  0.59000057261E+03  0.00000000000E+00 0.  1.
</event>
<event>
12    1  0.8407180E-002  0.2148443E+03  0.7818608E-02  0.1137911E+00
         21   -1    0    0  503  502  0.00000000000E+00  0.00000000000E+00  0.24713503797E+03  0.24713503797E+03  0.00000000000E+00 0. -1.
         21   -1    0    0  501  503 -0.00000000000E+00 -0.00000000000E+00 -0.33953422032E+03  0.33953422032E+03  0.00000000000E+00 0.  1.
          6    2    1    2  501    0  0.49095570364E+01  0.12898458826E+03 -0.24328050164E+03  0.32413691163E+03  0.17093334152E+03 0.  0.
         24    2    3    3    0    0  0.23391000045E+02  0.50169520037E+02 -0.21852143224E+03  0.23935200595E+03  0.80458975755E+02 0.  0.
         -6    2    1    2    0  502 -0.49095570364E+01 -0.12898458826E+03  0.15088131929E+03  0.26253234666E+03  0.17174671110E+03 0.  0.
        -24    2    5    5    0    0 -0.64574650341E+02 -0.11524524558E+03  0.11302483452E+03  0.19039430998E+03  0.77614611777E+02 0.  0.
          5    1    3    3  501    0 -0.18481443009E+02  0.78815068222E+02 -0.24759069406E+02  0.84784905687E+02  0.47000000000E+01 0. -1.
        -13    1    4    4    0    0 -0.29932466632E+02  0.22647425666E+02 -0.89911632560E+02  0.97431822921E+02  0.00000000000E+00 0.  1.
         14    1    4    4    0    0  0.53323466677E+02  0.27522094371E+02 -0.12860979968E+03  0.14192018303E+03  0.00000000000E+00 0. -1.
         -5    1    5    5    0  502  0.59665093305E+02 -0.13739342683E+02  0.37856484768E+02  0.72138036675E+02  0.47000000000E+01 0.  1.
         13    1    6    6    0    0 -0.40706084250E+02 -0.53662424972E+02  0.10109702408E+02  0.68109083327E+02  0.00000000000E+00 0. -1.
        -14    1    6    6    0    0 -0.23868566092E+02 -0.61582820604E+02  0.10291513211E+03  0.12228522666E+03  0.00000000000E+00 0.  1.
</event>
<event>
12    1  0.8407180E-002  0.2815163E+03  0.7818608E-02  0.1094932E+00
         21   -1    0    0  503  502  0.00000000000E+00  0.00000000000E+00  0.29290741457E+03  0.29290741457E+03  0.00000000000E+00 0. -1.
         21   -1    0    0  501  503 -0.00000000000E+00 -0.00000000000E+00 -0.81773377503E+03  0.81773377503E+03  0.00000000000E+00 0.  1.
          6    2    1    2  501    0 -0.53733429773E+02  0.21614919756E+03 -0.71694368419E+03  0.77023352552E+03  0.17217340229E+03 0.  0.
         24    2    3    3    0    0 -0.62623833791E+02  0.15860733666E+03 -0.34266173631E+03  0.39142068051E+03  0.81945419618E+02 0.  0.
         -6    2    1    2    0  502  0.53733429773E+02 -0.21614919756E+03  0.19211732373E+03  0.34040766409E+03  0.17134921830E+03 0.  0.
        -24    2    5    5    0    0  0.27367127354E+02 -0.99591270476E+02  0.22217846531E+02  0.13263650483E+03  0.80196190018E+02 0.  0.
          5    1    3    3  501    0  0.88904040177E+01  0.57541860900E+02 -0.37428194787E+03  0.37881284501E+03  0.47000000000E+01 0. -1.
        -13    1    4    4    0    0 -0.43242265444E+01  0.68896346731E+02 -0.20962869109E+03  0.22070250034E+03  0.00000000000E+00 0.  1.
         14    1    4    4    0    0 -0.58299607246E+02  0.89710989928E+02 -0.13303304522E+03  0.17071818017E+03  0.00000000000E+00 0. -1.
         -5    1    5    5    0  502  0.26366302419E+02 -0.11655792708E+03  0.16989947720E+03  0.20777115926E+03  0.47000000000E+01 0.  1.
         13    1    6    6    0    0  0.55562978059E+02 -0.67567940044E+02  0.20936124802E+02  0.89949943715E+02  0.00000000000E+00 0. -1.
        -14    1    6    6    0    0 -0.28195850705E+02 -0.32023330432E+02  0.12817217285E+01  0.42686561111E+02  0.00000000000E+00 0.  1.
</event>
<event>
12    1  0.8407180E-002  0.2210980E+03  0.7818608E-02  0.1133153E+00
         21   -1    0    0  501  502  0.00000000000E+00  0.00000000000E+00  0.26882598690E+03  0.26882598690E+03  0.00000000000E+00 0. -1.
         21   -1    0    0  502  503 -0.00000000000E+00 -0.00000000000E+00 -0.21155723164E+03  0.21155723164E+03  0.00000000000E+00 0.  1.
         -6    2    1    2    0  503 -0.10200886209E+03  0.97649032276E+02 -0.61984842659E+02  0.22917465711E+03  0.16952215575E+03 0.  0.
        -24    2    3    3    0    0  0.45305098463E+00  0.10434633008E+02 -0.20240454568E+02  0.88215517608E+02  0.85224496036E+02 0.  0.
          6    2    1    2  501    0  0.10200886209E+03 -0.97649032276E+02  0.11925359792E+03  0.25120856143E+03  0.17012695045E+03 0.  0.
         24    2    5    5    0    0  0.81183092064E+02 -0.46223494764E+02  0.22413687248E+01  0.12162364569E+03  0.77845883340E+02 0.  0.
          5    1    5    5  501    0  0.20825770030E+02 -0.51425537512E+02  0.11701222919E+03  0.12958491574E+03  0.47000000000E+01 0. -1.
        -11    1    6    6    0    0  0.34899130368E+02 -0.14865958303E+02 -0.37258740799E+02  0.53171042708E+02  0.00000000000E+00 0.  1.
         12    1    6    6    0    0  0.46283961696E+02 -0.31357536461E+02  0.39500109524E+02  0.68452602986E+02  0.00000000000E+00 0. -1.
         -5    1    3    3    0  503 -0.10246191308E+03  0.87214399267E+02 -0.41744388091E+02  0.14095913950E+03  0.47000000000E+01 0.  1.
         11    1    4    4    0    0  0.14876794199E+02  0.27791818677E+02 -0.44853062494E+02  0.54822453485E+02  0.00000000000E+00 0. -1.
        -12    1    4    4    0    0 -0.14423743215E+02 -0.17357185669E+02  0.24612607926E+02  0.33393064123E+02  0.00000000000E+00 0.  1.
</event>
<event>
12    1  0.8407180E-002  0.2341179E+03  0.7818608E-02  0.1124018E+00
         21   -1    0    0  503  502  0.00000000000E+00  0.00000000000E+00  0.85351224637E+03  0.85351224637E+03  0.00000000000E+00 0.  1.
         21   -1    0    0  501  503 -0.00000000000E+00 -0.00000000000E+00 -0.87432808803E+02  0.87432808803E+02  0.00000000000E+00 0.  1.
          6    2    1    2  501    0  0.15507938938E+03 -0.25145776668E+02  0.13945171129E+03  0.27250312131E+03  0.17357777579E+03 0.  0.
         24    2    3    3    0    0  0.36039210802E+02 -0.31801036946E+02  0.11481452790E+03  0.15066742288E+03  0.84900917757E+02 0.  0.
         -6    2    1    2    0  502 -0.15507938938E+03  0.25145776668E+02  0.62662772628E+03  0.66844193386E+03  0.17166940470E+03 0.  0.
        -24    2    5    5    0    0 -0.46531921850E+02  0.66420833871E+02  0.32709990212E+03  0.34715516087E+03  0.83339143437E+02 0.  0.
          5    1    3    3  501    0  0.11904017858E+03  0.66552602775E+01  0.24637183391E+02  0.12183569843E+03  0.47000000000E+01 0. -1.
        -11    1    4    4    0    0  0.17667021402E+02 -0.39321478972E+02  0.10349663432E+02  0.44333033811E+02  0.00000000000E+00 0.  1.
         12    1    4    4    0    0  0.18372189400E+02  0.75204420261E+01  0.10446486447E+03  0.10633438907E+03  0.00000000000E+00 0. -1.
         -5    1    5    5    0  502 -0.10854746753E+03 -0.41275057202E+02  0.29952782416E+03  0.32128677299E+03  0.47000000000E+01 0.  1.
         11    1    6    6    0    0  0.21678716662E+00 -0.15801972675E+02  0.18222711151E+02  0.24120873507E+02  0.00000000000E+00 0. -1.
        -12    1    6    6    0    0 -0.46748709017E+02  0.82222806545E+02  0.30887719097E+03  0.32303428736E+03  0.00000000000E+00 0.  1.
</event>
<event>
12    1  0.8407180E-002  0.2254532E+03  0.7818608E-02  0.1129952E+00
         21   -1    0    0  501  502  0.00000000000E+00  0.00000000000E+00  0.40494845526E+03  0.40494845526E+03  0.00000000000E+00 0. -1.
         21   -1    0    0  502  503 -0.00000000000E+00 -0.00000000000E+00 -0.12530514463E+03  0.12530514463E+03  0.00000000000E+00 0.  1.
         -6    2    1    2    0  503 -0.97284945810E+02  0.10866343011E+03  0.13865811533E+03  0.26434765052E+03  0.17141034293E+03 0.  0.
        -24    2    3    3    0    0 -0.12885621786E+03  0.10975422338E+03  0.93740833879E+02  0.20923334002E+03  0.79632482126E+02 0.  0.
          6    2    1    2  501    0  0.97284945810E+02 -0.10866343011E+03  0.14098519530E+03  0.26590594937E+03  0.17192163009E+03 0.  0.
         24    2    5    5    0    0 -0.15058410638E+02 -0.45239927195E+02  0.31807378570E+02  0.96833609451E+02  0.78048906745E+02 0.  0.
          5    1    5    5  501    0  0.11234335645E+03 -0.63423502917E+02  0.10917781673E+03  0.16907233992E+03  0.47000000000E+01 0. -1.
        -13    1    6    6    0    0  0.16200958496E+02 -0.19503915244E+02 -0.19131081842E+02  0.31762746394E+02  0.00000000000E+00 0.  1.
         14    1    6    6    0    0 -0.31259369133E+02 -0.25736011951E+02  0.50938460413E+02  0.65070863057E+02  0.00000000000E+00 0. -1.
         -5    1    3    3    0  503  0.31571272050E+02 -0.10907932690E+01  0.44917281448E+02  0.55114310496E+02  0.47000000000E+01 0.  1.
         13    1    4    4    0    0 -0.57719446103E+02  0.76749409075E+02  0.88575329125E+02  0.13064300663E+03  0.00000000000E+00 0. -1.
        -14    1    4    4    0    0 -0.71136771757E+02  0.33004814306E+02  0.51655047545E+01  0.78590333392E+02  0.00000000000E+00 0.  1.
</event>
<event>
12    1  0.8407180E-002  0.1749924E+03  0.7818608E-02  0.1177854E+00
         21   -1    0    0  501  502  0.00000000000E+00  0.00000000000E+00  0.34633496588E+03  0.34633496588E+03  0.00000000000E+00 0. -1.
         21   -1    0    0  502  503 -0.00000000000E+00 -0.00000000000E+00 -0.82162098645E+02  0.82162098645E+02  0.00000000000E+00 0. -1.
         -6    2    1    2    0  503  0.27172418643E+02  0.20691560142E+02  0.82806871933E+02  0.17647331681E+03  0.15205055906E+03 0.  0.
        -24    2    3    3    0    0  0.59236306656E+02 -0.16419385481E+02  0.26654124024E+02  0.10177032960E+03  0.76604317205E+02 0.  0.
          6    2    1    2  501    0 -0.27172418643E+02 -0.20691560142E+02  0.18136599530E+03  0.25202374771E+03  0.17162710790E+03 0.  0.
         24    2    5    5    0    0  0.36539704063E+02 -0.10984036355E+02  0.16234672434E+03  0.18466431433E+03  0.79301015486E+02 0.  0.
          5    1    5    5  501    0 -0.63712122706E+02 -0.97075237871E+01  0.19019270964E+02  0.67359433384E+02  0.47000000000E+01 0. -1.
        -13    1    6    6    0    0 -0.22521551625E+02 -0.34121025384E+01  0.19801108685E+02  0.30181892527E+02  0.00000000000E+00 0.  1.
         14    1    6    6    0    0  0.59061255688E+02 -0.75719338164E+01  0.14254561565E+03  0.15448242180E+03  0.00000000000E+00 0. -1.
         -5    1    3    3    0  503 -0.32063888013E+02  0.37110945623E+02  0.56152747909E+02  0.74702987205E+02  0.47000000000E+01 0.  1.
         13    1    4    4    0    0 -0.58367645597E+01  0.11736109049E+02 -0.14694909283E+02  0.19691227361E+02  0.00000000000E+00 0. -1.
        -14    1    4    4    0    0  0.65073071216E+02 -0.28155494530E+02  0.41349033307E+02  0.82079102244E+02  0.00000000000E+00 0.  1.
</event>
<event>
12    1  0.8407180E-002  0.2803082E+03  0.7818608E-02  0.1095665E+00
         21   -1    0    0  503  502  0.00000000000E+00  0.00000000000E+00  0.14888127462E+03  0.14888127462E+03  0.00000000000E+00 0. -1.
         21   -1    0    0  501  503 -0.00000000000E+00 -0.00000000000E+00 -0.76343797890E+03  0.76343797890E+03  0.00000000000E+00 0. -1.
          6    2    1    2  501    0 -0.15305996903E+03 -0.15840760173E+03 -0.56219362862E+03  0.62819929162E+03  0.17335614072E+03 0.  0.
         24    2    3    3    0    0 -0.15440651418E+03 -0.14088931988E+03 -0.56701698465E+03  0.60938285874E+03  0.78409409910E+02 0.  0.
         -6    2    1    2    0  502  0.15305996903E+03  0.15840760173E+03 -0.52363075671E+02  0.28411996190E+03  0.17164480374E+03 0.  0.
        -24    2    5    5    0    0  0.16034205439E+03  0.73599378204E+02 -0.45293773588E+02  0.19857740771E+03  0.79088672065E+02 0.  0.
          5    1    3    3  501    0  0.13465451506E+01 -0.17518281851E+02  0.48233560349E+01  0.18816432880E+02  0.47000000000E+01 0. -1.
        -11    1    4    4    0    0 -0.12987359293E+03 -0.70078448254E+02 -0.39876651876E+03  0.42519745476E+03  0.00000000000E+00 0.  1.
         12    1    4    4    0    0 -0.24532921247E+02 -0.70810871627E+02 -0.16825046589E+03  0.18418540397E+03  0.00000000000E+00 0. -1.
         -5    1    5    5    0  502 -0.72820853651E+01  0.84808223529E+02 -0.70693020822E+01  0.85542554190E+02  0.47000000000E+01 0.  1.
         13    1    6    6    0    0  0.48645904631E+02  0.59591016558E+02  0.81377267791E+00  0.76929679043E+02  0.00000000000E+00 0. -1.
        -14    1    6    6    0    0  0.11169614976E+03  0.14008361646E+02 -0.46107546266E+02  0.12164772867E+03  0.00000000000E+00 0.  1.
</event>
<event>
12    1  0.8407180E-002  0.2229464E+03  0.7818608E-02  0.1131940E+00
         21   -1    0    0  503  502  0.00000000000E+00  0.00000000000E+00  0.13864760841E+03  0.13864760841E+03  0.00000000000E+00 0. -1.
         21   -1    0    0  501  503 -0.00000000000E+00 -0.00000000000E+00 -0.84741766325E+03  0.84741766325E+03  0.00000000000E+00 0.  1.
          6    2    1    2  501    0  0.60771103675E+02  0.12666909690E+03 -0.72923506055E+03  0.76218156982E+03  0.17146073806E+03 0.  0.
         24    2    3    3    0    0  0.26494774418E+02  0.57017229240E+02 -0.61859104392E+03  0.62693942465E+03  0.80282159051E+02 0.  0.
         -6    2    1    2    0  502 -0.60771103675E+02 -0.12666909690E+03  0.20465005702E+02  0.22388370183E+03  0.17310952700E+03 0.  0.
        -24    2    5    5    0    0 -0.84041789260E+02 -0.64231616333E+02  0.63066955729E+02  0.14465630800E+03  0.75889944404E+02 0.  0.
          5    1    3    3  501    0  0.34276329257E+02  0.69651867658E+02 -0.11064401663E+03  0.13524214518E+03  0.47000000000E+01 0. -1.
        -11    1    4    4    0    0  0.51769246643E+02  0.55794671146E+02 -0.49088304473E+03  0.49674869284E+03  0.00000000000E+00 0.  1.
         12    1    4    4    0    0 -0.25274472225E+02  0.12225580938E+01 -0.12770799918E+03  0.13019073181E+03  0.00000000000E+00 0. -1.
         -5    1    5    5    0  502  0.23270685585E+02 -0.62437480565E+02 -0.42601950027E+02  0.79227393829E+02  0.47000000000E+01 0. -1.
         11    1    6    6    0    0 -0.13781037807E+02  0.16563688917E+02  0.26357586763E+01  0.21707602755E+02  0.00000000000E+00 0. -1.
        -12    1    6    6    0    0 -0.70260751454E+02 -0.80795305250E+02  0.60431197052E+02  0.12294870525E+03  0.00000000000E+00 0.  1.
</event>
<event>
12    1  0.8407180E-002  0.1753295E+03  0.7818608E-02  0.1172984E+00
         21   -1    0    0  503  502  0.00000000000E+00  0.00000000000E+00  0.33519941634E+03  0.33519941634E+03  0.00000000000E+00 0.  1.
         21   -1    0    0  501  503 -0.00000000000E+00 -0.00000000000E+00 -0.10253313946E+03  0.10253313946E+03  0.00000000000E+00 0.  1.
          6    2    1    2  501    0  0.18968516498E+02  0.17730456915E+02  0.19061955174E+03  0.25743182189E+03  0.17105892464E+03 0.  0.
         24    2    3    3    0    0 -0.10621507080E+02 -0.36574315305E+02  0.17098741423E+03  0.19237731702E+03  0.79509995133E+02 0.  0.
         -6    2    1    2    0  502 -0.18968516498E+02 -0.17730456915E+02  0.42046725146E+02  0.18030073391E+03  0.17339623362E+03 0.  0.
        -24    2    5    5    0    0 -0.67587764631E+01 -0.72708282518E+02  0.56538126269E+02  0.12195924125E+03  0.79657525678E+02 0.  0.
          5    1    3    3  501    0  0.29590023578E+02  0.54304772221E+02  0.19632137513E+02  0.65054504876E+02  0.47000000000E+01 0. -1.
        -11    1    4    4    0    0 -0.12944469770E+02  0.78959984090E+01  0.13295161858E+03  0.13381344839E+03  0.00000000000E+00 0.  1.
         12    1    4    4    0    0  0.23229626900E+01 -0.44470313714E+02  0.38035795649E+02  0.58563868624E+02  0.00000000000E+00 0. -1.
         -5    1    5    5    0  502 -0.12209740035E+02  0.54977825603E+02 -0.14491401124E+02  0.58341492664E+02  0.47000000000E+01 0.  1.
         11    1    6    6    0    0 -0.36730350915E+02 -0.43844421991E+02  0.75632331363E+01  0.57694492922E+02  0.00000000000E+00 0. -1.
        -12    1    6    6    0    0  0.29971574452E+02 -0.28863860527E+02  0.48974893133E+02  0.64264748323E+02  0.00000000000E+00 0.  1.
</event>
<event>
12    1  0.8407180E-002  0.3875832E+03  0.7818608E-02  0.1048212E+00
         21   -1    0    0  501  502  0.00000000000E+00  0.00000000000E+00  0.50627290698E+03  0.50627290698E+03  0.00000000000E+00 0. -1.
         21   -1    0    0  502  503 -0.00000000000E+00 -0.00000000000E+00 -0.56559952200E+03  0.56559952200E+03  0.00000000000E+00 0.  1.
         -6    2    1    2    0  503  0.30669752332E+03 -0.16270885722E+03 -0.39946105690E+03  0.55658770540E+03  0.17228811564E+03 0.  0.
        -24    2    3    3    0    0  0.10439739815E+03 -0.10525987546E+02 -0.16293791136E+03  0.21010501486E+03  0.81152579483E+02 0.  0.
          6    2    1    2  501    0 -0.30669752332E+03  0.16270885722E+03  0.34013444188E+03  0.51528472358E+03  0.17114135902E+03 0.  0.
         24    2    5    5    0    0 -0.30377103941E+03  0.11771410013E+03  0.32579191402E+03  0.46773590046E+03  0.80641475589E+02 0.  0.
          5    1    5    5  501    0 -0.29264839093E+01  0.44994757097E+02  0.14342527867E+02  0.47548823118E+02  0.47000000000E+01 0. -1.
        -11    1    6    6    0    0 -0.33392520013E+02 -0.10217875845E+02  0.49223976703E+02  0.60352839718E+02  0.00000000000E+00 0.  1.
         12    1    6    6    0    0 -0.27037851940E+03  0.12793197597E+03  0.27656793732E+03  0.40738306074E+03  0.00000000000E+00 0. -1.
         -5    1    3    3    0  503  0.20230012517E+03 -0.15218286968E+03 -0.23652314554E+03  0.34648269054E+03  0.47000000000E+01 0.  1.
         11    1    4    4    0    0  0.35856992326E+02  0.13346790643E+02 -0.81110967265E+01  0.39110748001E+02  0.00000000000E+00 0. -1.
        -12    1    4    4    0    0  0.68540405826E+02 -0.23872778189E+02 -0.15482681463E+03  0.17099426686E+03  0.00000000000E+00 0.  1.
</event>
<event>
12    1  0.8407180E-002  0.1808998E+03  0.7818608E-02  0.1168724E+00
         21   -1    0    0  501  502  0.00000000000E+00  0.00000000000E+00  0.12925247694E+04  0.12925247694E+04  0.00000000000E+00 0. -1.
         21   -1    0    0  502  503 -0.00000000000E+00 -0.00000000000E+00 -0.24314702751E+02  0.24314702751E+02  0.00000000000E+00 0. -1.
         -6    2    1    2    0  503  0.56389998937E+02 -0.47561469470E+01  0.65659593706E+03  0.68106018740E+03  0.17182054995E+03 0.  0.
        -24    2    3    3    0    0  0.69242134267E+02  0.51676795031E+02  0.50768888131E+03  0.52123135529E+03  0.80431096137E+02 0.  0.
          6    2    1    2  501    0 -0.56389998937E+02  0.47561469470E+01  0.61161412957E+03  0.63577928473E+03  0.16413714537E+03 0.  0.
         24    2    5    5    0    0 -0.33717769256E+02  0.36840609129E+02  0.57297895952E+03  0.58047820810E+03  0.78459821416E+02 0.  0.
          5    1    5    5  501    0 -0.22672229681E+02 -0.32084462182E+02  0.38635170050E+02  0.55301076635E+02  0.47000000000E+01 0. -1.
        -13    1    6    6    0    0  0.21787922246E+02 -0.17198317453E+01  0.22032353328E+03  0.22140490215E+03  0.00000000000E+00 0.  1.
         14    1    6    6    0    0 -0.55505691502E+02  0.38560440874E+02  0.35265542624E+03  0.35907330595E+03  0.00000000000E+00 0. -1.
         -5    1    3    3    0  503 -0.12852135331E+02 -0.56432941978E+02  0.14890705574E+03  0.15982883211E+03  0.47000000000E+01 0.  1.
         13    1    4    4    0    0  0.18688929300E+02  0.14029233949E+02  0.24163795818E+02  0.33615242256E+02  0.00000000000E+00 0. -1.
        -14    1    4    4    0    0  0.50553204968E+02  0.37647561082E+02  0.48352508549E+03  0.48761611303E+03  0.00000000000E+00 0.  1.
</event>
<event>
12    1  0.8407180E-002  0.1754259E+03  0.7818608E-02  0.1172754E+00
         21   -1    0    0  503  502  0.00000000000E+00  0.00000000000E+00  0.54825473785E+03  0.54825473785E+03  0.00000000000E+00 0. -1.
         21   -1    0    0  501  503 -0.00000000000E+00 -0.00000000000E+00 -0.55749652805E+02  0.55749652805E+02  0.00000000000E+00 0. -1.
          6    2    1    2  501    0  0.22052428730E+02 -0.96051808921E+01  0.26256100376E+03  0.31478383162E+03  0.17196514428E+03 0.  0.
         24    2    3    3    0    0 -0.26484270315E+00 -0.57956304872E+02  0.87009983735E+02  0.13127322587E+03  0.79390926084E+02 0.  0.
         -6    2    1    2    0  502 -0.22052428730E+02  0.96051808921E+01  0.22994408129E+03  0.28922055903E+03  0.17376904826E+03 0.  0.
        -24    2    5    5    0    0  0.43270546555E+02  0.44837489322E+02  0.16285601989E+03  0.18906415814E+03  0.73078259627E+02 0.  0.
          5    1    3    3  501    0  0.22317271433E+02  0.48351123980E+02  0.17555102002E+03  0.18351060575E+03  0.47000000000E+01 0. -1.
        -11    1    4    4    0    0  0.95220956836E+01  0.69249959514E+01  0.58600691970E+02  0.59771790792E+02  0.00000000000E+00 0.  1.
         12    1    4    4    0    0 -0.97869383868E+01 -0.64881300823E+02  0.28409291765E+02  0.71501435077E+02  0.00000000000E+00 0. -1.
         -5    1    5    5    0  502 -0.65322975285E+02 -0.35232308430E+02  0.67088061397E+02  0.10015640089E+03  0.47000000000E+01 0.  1.
         11    1    6    6    0    0  0.12309887941E+02  0.19200531057E+02  0.15891885541E+01  0.22863054351E+02  0.00000000000E+00 0. -1.
        -12    1    6    6    0    0  0.30960658615E+02  0.25636958265E+02  0.16126683134E+03  0.16620110379E+03  0.00000000000E+00 0.  1.
</event>
<event>
12    1  0.8407180E-002  0.2303550E+03  0.7818608E-02  0.1126672E+00
         21   -1    0    0  501  502  0.00000000000E+00  0.00000000000E+00  0.10626993026E+04  0.10626993026E+04  0.00000000000E+00 0. -1.
         21   -1    0    0  502  503 -0.00000000000E+00 -0.00000000000E+00 -0.49655947092E+02  0.49655947092E+02  0.00000000000E+00 0.  1.
         -6    2    1    2    0  503  0.65356934936E+02  0.13764696438E+03  0.48400880033E+03  0.53534487037E+03  0.17062061917E+03 0.  0.
        -24    2    3    3    0    0 -0.84811922036E+01  0.38943096343E+02  0.11637249181E+03  0.14756520622E+03  0.81513421367E+02 0.  0.
          6    2    1    2  501    0 -0.65356934936E+02 -0.13764696438E+03  0.52903455513E+03  0.57701037927E+03  0.17275763810E+03 0.  0.
         24    2    5    5    0    0  0.11152006035E+02 -0.36559507680E+02  0.12001440096E+03  0.14876761113E+03  0.79166791292E+02 0.  0.
          5    1    5    5  501    0 -0.76508940972E+02 -0.10108745670E+03  0.40902015416E+03  0.42824276814E+03  0.47000000000E+01 0. -1.
        -11    1    6    6    0    0  0.37036534206E+02  0.45575240746E+01  0.68170442580E+02  0.77715411170E+02  0.00000000000E+00 0.  1.
         12    1    6    6    0    0 -0.25884528171E+02 -0.41117031754E+02  0.51843958384E+02  0.71052199965E+02  0.00000000000E+00 0. -1.
         -5    1    3    3    0  503  0.73838127140E+02  0.98703868038E+02  0.36763630852E+03  0.38777966415E+03  0.47000000000E+01 0.  1.
         13    1    4    4    0    0 -0.86199869889E+01  0.15498035874E+02  0.12214003677E+03  0.12342075139E+03  0.00000000000E+00 0. -1.
        -14    1    4    4    0    0  0.13879478538E+00  0.23445060469E+02 -0.57675449562E+01  0.24144454834E+02  0.00000000000E+00 0.  1.
</event>
<event>
12    1  0.8407180E-002  0.2013154E+03  0.7818608E-02  0.1151413E+00
         21   -1    0    0  503  502  0.00000000000E+00  0.00000000000E+00  0.78628098799E+03  0.78628098799E+03  0.00000000000E+00 0.  1.
         21   -1    0    0  501  503 -0.00000000000E+00 -0.00000000000E+00 -0.81412262435E+02  0.81412262435E+02  0.00000000000E+00 0.  1.
          6    2    1    2  501    0  0.16472322243E+02  0.71282419825E+02  0.82769627715E+02  0.21766651033E+03  0.18755100018E+03 0.  0.
         24    2    3    3    0    0 -0.13944991206E+02 -0.37087543227E+01 -0.23304350309E+02  0.84164944900E+02  0.79576551624E+02 0.  0.
         -6    2    1    2    0  502 -0.16472322243E+02 -0.71282419825E+02  0.62209909784E+03  0.65002674009E+03  0.17370939679E+03 0.  0.
        -24    2    5    5    0    0  0.17842065853E+02  0.24207516025E+02  0.27804655610E+03  0.29129279055E+03  0.81469376592E+02 0.  0.
          5    1    3    3  501    0  0.30417313449E+02  0.74991174148E+02  0.10607397802E+03  0.13350156543E+03  0.47000000000E+01 0. -1.
        -11    1    4    4    0    0  0.25386922779E+02 -0.19152629927E+01 -0.34827396116E+02  0.43140602693E+02  0.00000000000E+00 0.  1.
         12    1    4    4    0    0 -0.39331913985E+02 -0.17934913300E+01  0.11523045807E+02  0.41024342207E+02  0.00000000000E+00 0. -1.
         -5    1    5    5    0  502 -0.34314388096E+02 -0.95489935850E+02  0.34405254174E+03  0.35873394954E+03  0.47000000000E+01 0.  1.
         11    1    6    6    0    0  0.48550502972E+02  0.26814028313E+02  0.19406310754E+03  0.20183318152E+03  0.00000000000E+00 0. -1.
        -12    1    6    6    0    0 -0.30708437119E+02 -0.26065122877E+01  0.83983448559E+02  0.89459609033E+02  0.00000000000E+00 0.  1.
</event>
<event>
12    1  0.8407180E-002  0.2210850E+03  0.7818608E-02  0.1133602E+00
         21   -1    0    0  501  502  0.00000000000E+00  0.00000000000E+00  0.26225915317E+03  0.26225915317E+03  0.00000000000E+00 0. -1.
         21   -1    0    0  502  503 -0.00000000000E+00 -0.00000000000E+00 -0.23379536848E+03  0.23379536848E+03  0.00000000000E+00 0.  1.
         -6    2    1    2    0  503  0.12695680539E+03  0.44815239333E+02 -0.10029711822E+03  0.24020701928E+03  0.17179483135E+03 0.  0.
        -24    2    3    3    0    0  0.15144224832E+03  0.35910019794E+02 -0.44767961121E+02  0.17868940279E+03  0.75507934873E+02 0.  0.
          6    2    1    2  501    0 -0.12695680539E+03 -0.44815239333E+02  0.12876090292E+03  0.25584750237E+03  0.17536287588E+03 0.  0.
         24    2    5    5    0    0 -0.55350446318E+02  0.24286605870E+02  0.11658431825E+03  0.15548368974E+03  0.83245200357E+02 0.  0.
          5    1    5    5  501    0 -0.71606359075E+02 -0.69101845203E+02  0.12176584670E+02  0.10036381263E+03  0.47000000000E+01 0. -1.
        -11    1    6    6    0    0 -0.67627891802E+02  0.34883398084E+02  0.60834846349E+02  0.97423106817E+02  0.00000000000E+00 0.  1.
         12    1    6    6    0    0  0.12277445484E+02 -0.10596792213E+02  0.55749471896E+02  0.58060582925E+02  0.00000000000E+00 0. -1.
         -5    1    3    3    0  503 -0.24485442932E+02  0.89052195387E+01 -0.55529157097E+02  0.61517616490E+02  0.47000000000E+01 0.  1.
         13    1    4    4    0    0  0.47967121752E+01 -0.57516485096E+01  0.13537727508E+02  0.15471262856E+02  0.00000000000E+00 0. -1.
        -14    1    4    4    0    0  0.14664553615E+03  0.41661668304E+02 -0.58305688629E+02  0.16321813994E+03  0.00000000000E+00 0.  1.
</event>
<event>
12    1  0.8407180E-002  0.1996872E+03  0.7818608E-02  0.1151559E+00
         21   -1    0    0  501  502  0.00000000000E+00  0.00000000000E+00  0.10259116031E+03  0.10259116031E+03  0.00000000000E+00 0. -1.
         21   -1    0    0  502  503 -0.00000000000E+00 -0.00000000000E+00 -0.48870509345E+03  0.48870509345E+03  0.00000000000E+00 0. -1.
         -6    2    1    2    0  503  0.11642359749E+02  0.10085608452E+03 -0.33852066222E+03  0.39302824427E+03  0.17195193432E+03 0.  0.
        -24    2    3    3    0    0  0.45445220260E+02  0.92313013432E+02 -0.33293211134E+03  0.35740606939E+03  0.79425104230E+02 0.  0.
          6    2    1    2  501    0 -0.11642359749E+02 -0.10085608452E+03 -0.47593270918E+02  0.19826800949E+03  0.16351632892E+03 0.  0.
         24    2    5    5    0    0  0.14238544871E+02 -0.19393010440E+02 -0.71045720170E+02  0.10950900409E+03  0.79786606700E+02 0.  0.
          5    1    5    5  501    0 -0.25880904620E+02 -0.81463074084E+02  0.23452449252E+02  0.88759005397E+02  0.47000000000E+01 0. -1.
        -11    1    6    6    0    0  0.20738961191E+02 -0.45885835386E+02 -0.63812883518E+02  0.81287751250E+02  0.00000000000E+00 0.  1.
         12    1    6    6    0    0 -0.65004163195E+01  0.26492824946E+02 -0.72328366513E+01  0.28221252842E+02  0.00000000000E+00 0. -1.
         -5    1    3    3    0  503 -0.33802860511E+02  0.85430710911E+01 -0.55885508854E+01  0.35622174883E+02  0.47000000000E+01 0.  1.
         13    1    4    4    0    0  0.38195538717E+02  0.74049838100E+02 -0.13598400038E+03  0.15948017450E+03  0.00000000000E+00 0. -1.
        -14    1    4    4    0    0  0.72496815433E+01  0.18263175332E+02 -0.19694811096E+03  0.19792589488E+03  0.00000000000E+00 0.  1.
</event>
<event>
12    1  0.8407180E-002  0.1812960E+03  0.7818608E-02  0.1167527E+00
         21   -1    0    0  501  502  0.00000000000E+00  0.00000000000E+00  0.26673892425E+03  0.26673892425E+03  0.00000000000E+00 0. -1.
         21   -1    0    0  502  503 -0.00000000000E+00 -0.00000000000E+00 -0.15559427307E+03  0.15559427307E+03  0.00000000000E+00 0. -1.
         -6    2    1    2    0  503  0.33160648812E+01  0.39415523791E+02 -0.44209209322E+02  0.18660838847E+03  0.17692839415E+03 0.  0.
        -24    2    3    3    0    0  0.56928944672E+02  0.23268667822E+02  0.16758971093E+02  0.10369716571E+03  0.81791829786E+02 0.  0.
          6    2    1    2  501    0 -0.33160648812E+01 -0.39415523791E+02  0.15535386050E+03  0.23572480885E+03  0.17282009066E+03 0.  0.
         24    2    5    5    0    0  0.30834710038E+02 -0.54919935954E+02  0.16785970601E+03  0.19591088672E+03  0.78976046533E+02 0.  0.
          5    1    5    5  501    0 -0.34150774919E+02  0.15504412162E+02 -0.12505845504E+02  0.39813922136E+02  0.47000000000E+01 0. -1.
        -11    1    6    6    0    0 -0.20763164254E+01  0.51723620010E+01 -0.65062134030E+01  0.85671016927E+01  0.00000000000E+00 0.  1.
         12    1    6    6    0    0  0.32911026464E+02 -0.60092297955E+02  0.17436591941E+03  0.18734378503E+03  0.00000000000E+00 0. -1.
         -5    1    3    3    0  503 -0.53612879791E+02  0.16146855970E+02 -0.60968180415E+02  0.82911222765E+02  0.47000000000E+01 0.  1.
         11    1    4    4    0    0  0.55737463100E+02  0.36694276349E+02 -0.15697582229E+02  0.68553255192E+02  0.00000000000E+00 0. -1.
        -12    1    4    4    0    0  0.11914815715E+01 -0.13425608527E+02  0.32456553322E+02  0.35143910514E+02  0.00000000000E+00 0.  1.
</event>
<event>
12    1  0.8407180E-002  0.3138835E+03  0.7818608E-02  0.1078552E+00
         21   -1    0    0  503  502  0.00000000000E+00  0.00000000000E+00  0.10742422577E+03  0.10742422577E+03  0.00000000000E+00 0.  1.
         21   -1    0    0  501  503 -0.00000000000E+00 -0.00000000000E+00 -0.10698129571E+04  0.10698129571E+04  0.00000000000E+00 0. -1.
          6    2    1    2  501    0 -0.25473527286E+03 -0.63645800362E+02 -0.25817115582E+03  0.40641748552E+03  0.17199412692E+03 0.  0.
         24    2    3    3    0    0 -0.13450761913E+03  0.51811782492E+01 -0.20783229288E+03  0.25894568202E+03  0.75759224262E+02 0.  0.
         -6    2    1    2    0  502  0.25473527286E+03  0.63645800362E+02 -0.70421757555E+03  0.77081969739E+03  0.17117174133E+03 0.  0.
        -24    2    5    5    0    0  0.20742227056E+03  0.47430905070E+02 -0.37777069087E+03  0.44053027653E+03  0.77990644165E+02 0.  0.
          5    1    3    3  501    0 -0.12022765372E+03 -0.68826978611E+02 -0.50338862944E+02  0.14747180350E+03  0.47000000000E+01 0. -1.
        -11    1    4    4    0    0 -0.91595060680E+02 -0.26624642869E+02 -0.97692178972E+02  0.13653676641E+03  0.00000000000E+00 0.  1.
         12    1    4    4    0    0 -0.42912558452E+02  0.31805821118E+02 -0.11014011391E+03  0.12240891561E+03  0.00000000000E+00 0. -1.
         -5    1    5    5    0  502  0.47313002294E+02  0.16214895291E+02 -0.32644688468E+03  0.33028942086E+03  0.47000000000E+01 0.  1.
         11    1    6    6    0    0  0.10738866093E+03  0.41128408039E+02 -0.26938353421E+03  0.29290161991E+03  0.00000000000E+00 0. -1.
        -12    1    6    6    0    0  0.10003360964E+03  0.63024970318E+01 -0.10838715666E+03  0.14762865662E+03  0.00000000000E+00 0.  1.
</event>
<event>
12    1  0.8407180E-002  0.2007412E+03  0.7818608E-02  0.1149402E+00
         21   -1    0    0  501  502  0.00000000000E+00  0.00000000000E+00  0.75105662352E+03  0.75105662352E+03  0.00000000000E+00 0. -1.
         21   -1    0    0  502  503 -0.00000000000E+00 -0.00000000000E+00 -0.54437599277E+02  0.54437599277E+02  0.00000000000E+00 0.  1.
         -6    2    1    2    0  503 -0.99744588847E+02 -0.30021676879E+02  0.29101104123E+03  0.35353142114E+03  0.17160056973E+03 0.  0.
        -24    2    3    3    0    0 -0.18406657835E+01  0.30292956806E+02  0.13680290688E+03  0.16111190060E+03  0.79504452076E+02 0.  0.
          6    2    1    2  501    0  0.99744588847E+02  0.30021676879E+02  0.40560798302E+03  0.45196280166E+03  0.17000662961E+03 0.  0.
         24    2    5    5    0    0  0.43942151614E+02  0.62458315477E+02  0.13592279971E+03  0.17462143147E+03  0.78649113067E+02 0.  0.
          5    1    5    5  501    0  0.55802437233E+02 -0.32436638598E+02  0.26968518330E+03  0.27734137019E+03  0.47000000000E+01 0. -1.
        -13    1    6    6    0    0  0.62707067943E+02  0.24722449087E+02  0.80439164692E+02  0.10494682022E+03  0.00000000000E+00 0.  1.
         14    1    6    6    0    0 -0.18764916330E+02  0.37735866390E+02  0.55483635021E+02  0.69674611246E+02  0.00000000000E+00 0. -1.
         -5    1    3    3    0  503 -0.97903923063E+02 -0.60314633686E+02  0.15420813435E+03  0.19241952054E+03  0.47000000000E+01 0.  1.
         13    1    4    4    0    0  0.50013936816E+00  0.44349422884E+02  0.13969897991E+03  0.14657055106E+03  0.00000000000E+00 0. -1.
        -14    1    4    4    0    0 -0.23408051517E+01 -0.14056466077E+02 -0.28960730306E+01  0.14541349536E+02  0.00000000000E+00 0.  1.
</event>
<event>
12    1  0.8407180E-002  0.2449523E+03  0.7818608E-02  0.1116715E+00
         21   -1    0    0  501  502  0.00000000000E+00  0.00000000000E+00  0.11501904862E+04  0.11501904862E+04  0.00000000000E+00 0. -1.
         21   -1    0    0  502  503 -0.00000000000E+00 -0.00000000000E+00 -0.65731416051E+02  0.65731416051E+02  0.00000000000E+00 0.  1.
         -6    2    1    2    0  503  0.12776639832E+03  0.11627547155E+03  0.81981063647E+03  0.85531074802E+03  0.17211263224E+03 0.  0.
        -24    2    3    3    0    0  0.45513147698E+02  0.64728147634E+01  0.47648126625E+03  0.48555492706E+03  0.81337851947E+02 0.  0.
          6    2    1    2  501    0 -0.12776639832E+03 -0.11627547155E+03  0.26464843372E+03  0.36061115428E+03  0.17365878410E+03 0.  0.
         24    2    5    5    0    0  0.42416992560E+01 -0.22866625174E+02  0.10349764255E+03  0.13226269709E+03  0.78998635863E+02 0.  0.
          5    1    5    5  501    0 -0.13200809758E+03 -0.93408846377E+02  0.16115079118E+03  0.22834845720E+03  0.47000000000E+01 0. -1.
        -13    1    6    6    0    0  0.17212479617E+02 -0.48308657404E+02  0.81167167472E+02  0.96010962448E+02  0.00000000000E+00 0.  1.
         14    1    6    6    0    0 -0.12970780361E+02  0.25442032230E+02  0.22330475075E+02  0.36251734638E+02  0.00000000000E+00 0. -1.
         -5    1    3    3    0  503  0.82253250622E+02  0.10980265679E+03  0.34332937023E+03  0.36975582096E+03  0.47000000000E+01 0.  1.
         11    1    4    4    0    0  0.62711660842E+02  0.16617035385E+02  0.25307669430E+03  0.26125981603E+03  0.00000000000E+00 0. -1.
        -12    1    4    4    0    0 -0.17198513144E+02 -0.10144220622E+02  0.22340457194E+03  0.22429511103E+03  0.00000000000E+00 0.  1.
</event>
<event>
12    1  0.8407180E-002  0.2005162E+03  0.7818608E-02  0.1149336E+00
         21   -1    0    0  501  502  0.00000000000E+00  0.00000000000E+00  0.25096317028E+03  0.25096317028E+03  0.00000000000E+00 0. -1.
         21   -1    0    0  502  503 -0.00000000000E+00 -0.00000000000E+00 -0.27134042230E+03  0.27134042230E+03  0.00000000000E+00 0. -1.
         -6    2    1    2    0  503 -0.20487052619E+02 -0.10113218677E+03 -0.17740721318E+03  0.26761723469E+03  0.17175047741E+03 0.  0.
        -24    2    3    3    0    0 -0.26470240988E+02 -0.47549842597E+00 -0.12869457354E+03  0.15553432470E+03  0.83233005134E+02 0.  0.
          6    2    1    2  501    0  0.20487052619E+02  0.10113218677E+03  0.15702996115E+03  0.25468635789E+03  0.17192816427E+03 0.  0.
         24    2    5    5    0    0  0.18682803053E+02 -0.81998810962E+01  0.33178058734E+02  0.89404356103E+02  0.80474033879E+02 0.  0.
          5    1    5    5  501    0  0.18042495666E+01  0.10933206787E+03  0.12385190242E+03  0.16528200179E+03  0.47000000000E+01 0. -1.
        -13    1    6    6    0    0 -0.25153666531E+02 -0.25527121739E+02  0.15803342233E+02  0.39167416432E+02  0.00000000000E+00 0.  1.
         14    1    6    6    0    0  0.43836469584E+02  0.17327240643E+02  0.17374716501E+02  0.50236939670E+02  0.00000000000E+00 0. -1.
         -5    1    3    3    0  503  0.59831883687E+01 -0.10065668835E+03 -0.48712639634E+02  0.11208290999E+03  0.47000000000E+01 0.  1.
         11    1    4    4    0    0 -0.48227165116E+01 -0.36309392783E+02 -0.94926330644E+02  0.10174791815E+03  0.00000000000E+00 0. -1.
        -12    1    4    4    0    0 -0.21647524477E+02  0.35833894357E+02 -0.33768242898E+02  0.53786406546E+02  0.00000000000E+00 0.  1.
</event>
<event>
12    1  0.8407180E-002  0.2961559E+03  0.7818608E-02  0.1087224E+00
         21   -1    0    0  503  502  0.00000000000E+00  0.00000000000E+00  0.29862170456E+03  0.29862170456E+03  0.00000000000E+00 0.  1.
         21   -1    0    0  501  503 -0.00000000000E+00 -0.00000000000E+00 -0.29973729717E+03  0.29973729717E+03  0.00000000000E+00 0. -1.
          6    2    1    2  501    0 -0.23095917283E+03  0.68572707840E+02  0.43094985487E+02  0.29892137618E+03  0.17161717743E+03 0.  0.
         24    2    3    3    0    0 -0.20318505137E+03  0.55665567164E+02  0.90248207899E+02  0.24249875229E+03  0.79234369848E+02 0.  0.
         -6    2    1    2    0  502  0.23095917283E+03 -0.68572707840E+02 -0.44210578098E+02  0.29943762555E+03  0.17223228677E+03 0.  0.
        -24    2    5    5    0    0  0.14392900128E+03  0.18906911156E+02  0.63748719481E+01  0.16599133577E+03  0.80246220217E+02 0.  0.
          5    1    3    3  501    0 -0.27774121460E+02  0.12907140676E+02 -0.47153222412E+02  0.56422623894E+02  0.47000000000E+01 0. -1.
        -11    1    4    4    0    0  0.51053097183E+01 -0.51849174262E+01 -0.49316043594E+00  0.72931997951E+01  0.00000000000E+00 0.  1.
         12    1    4    4    0    0 -0.20829036109E+03  0.60850484590E+02  0.90741368334E+02  0.23520555249E+03  0.00000000000E+00 0. -1.
         -5    1    5    5    0  502  0.87030171548E+02 -0.87479618997E+02 -0.50585450046E+02  0.13344628978E+03  0.47000000000E+01 0.  1.
         11    1    6    6    0    0  0.57417460226E+02 -0.31698878021E+02  0.46442732156E+01  0.65750687299E+02  0.00000000000E+00 0. -1.
        -12    1    6    6    0    0  0.86511541055E+02  0.50605789177E+02  0.17305987325E+01  0.10024064847E+03  0.00000000000E+00 0.  1.
</event>
<event>
12    1  0.8407180E-002  0.1910326E+03  0.7818608E-02  0.1157740E+00
         21   -1    0    0  503  502  0.00000000000E+00  0.00000000000E+00  0.15554635718E+03  0.15554635718E+03  0.00000000000E+00 0.  1.
         21   -1    0    0  501  503 -0.00000000000E+00 -0.00000000000E+00 -0.28825698274E+03  0.28825698274E+03  0.00000000000E+00 0.  1.
          6    2    1    2  501    0  0.70919524775E+02  0.43421926346E+02  0.30501160827E+02  0.19254342564E+03  0.17096083547E+03 0.  0.
         24    2    3    3    0    0  0.92837382096E+02  0.62157551219E+02  0.53214912726E+02  0.15553774183E+03  0.94222192238E+02 0.  0.
         -6    2    1    2    0  502 -0.70919524775E+02 -0.43421926346E+02 -0.16321178639E+03  0.25125991427E+03  0.17198376267E+03 0.  0.
        -24    2    5    5    0    0 -0.75773391340E+02  0.27658965668E+02 -0.81692553387E+02  0.14289235188E+03  0.85075999723E+02 0.  0.
          5    1    3    3  501    0 -0.21917857321E+02 -0.18735624874E+02 -0.22713751900E+02  0.37005683811E+02  0.47000000000E+01 0. -1.
        -13    1    4    4    0    0  0.10607077421E+03  0.32899061786E+02  0.53842702226E+02  0.12341958512E+03  0.00000000000E+00 0.  1.
         14    1    4    4    0    0 -0.13233392118E+02  0.29258489433E+02 -0.62778949977E+00  0.32118156711E+02  0.00000000000E+00 0. -1.
         -5    1    5    5    0  502  0.48538665650E+01 -0.71080892014E+02 -0.81519233006E+02  0.10836756240E+03  0.47000000000E+01 0.  1.
         11    1    6    6    0    0 -0.28595773951E+02  0.55478539038E+02 -0.45660492702E+02  0.77333480301E+02  0.00000000000E+00 0. -1.
        -12    1    6    6    0    0 -0.47177617389E+02 -0.27819573370E+02 -0.36032060685E+02  0.65558871575E+02  0.00000000000E+00 0.  1.
</event>
<event>
12    1  0.8407180E-002  0.1972864E+03  0.7818608E-02  0.1152308E+00
         21   -1    0    0  501  502  0.00000000000E+00  0.00000000000E+00  0.33612257884E+03  0.33612257884E+03  0.00000000000E+00 0. -1.
         21   -1    0    0  502  503 -0.00000000000E+00 -0.00000000000E+00 -0.16626764414E+03  0.16626764414E+03  0.00000000000E+00 0.  1.
         -6    2    1    2    0  503 -0.62437737612E+02  0.72088021775E+02 -0.54610567060E+02  0.20354795821E+03  0.17133097588E+03 0.  0.
        -24    2    3    3    0    0 -0.46627317041E+02  0.13194223450E+02  0.34029772433E+02  0.95855578419E+02  0.75379521591E+02 0.  0.
          6    2    1    2  501    0  0.62437737612E+02 -0.72088021775E+02  0.22446550176E+03  0.29884226476E+03  0.17270432470E+03 0.  0.
         24    2    5    5    0    0  0.15950555735E+02 -0.46598017176E+02  0.36022700478E+02  0.10302710251E+03  0.83012971695E+02 0.  0.
          5    1    5    5  501    0  0.46487181877E+02 -0.25490004600E+02  0.18844280128E+03  0.19581516225E+03  0.47000000000E+01 0. -1.
        -13    1    6    6    0    0  0.44264610535E+02 -0.20774231476E+02  0.41729523927E+02  0.64282794015E+02  0.00000000000E+00 0.  1.
         14    1    6    6    0    0 -0.28314054800E+02 -0.25823785700E+02 -0.57068234492E+01  0.38744308498E+02  0.00000000000E+00 0. -1.
         -5    1    3    3    0  503 -0.15810420571E+02  0.58893798325E+02 -0.88640339493E+02  0.10769237979E+03  0.47000000000E+01 0.  1.
         11    1    4    4    0    0 -0.56798091739E+02 -0.54185321171E+01  0.44352100104E+02  0.72266814647E+02  0.00000000000E+00 0. -1.
        -12    1    4    4    0    0  0.10170774698E+02  0.18612755567E+02 -0.10322327671E+02  0.23588763772E+02  0.00000000000E+00 0.  1.
</event>
<event>
12    1  0.8407180E-002  0.2404167E+03  0.7818608E-02  0.1119539E+00
         21   -1    0    0  503  502  0.00000000000E+00  0.00000000000E+00  0.55965832303E+02  0.55965832303E+02  0.00000000000E+00 0.  1.
         21   -1    0    0  501  503 -0.00000000000E+00 -0.00000000000E+00 -0.10689468568E+04  0.10689468568E+04  0.00000000000E+00 0. -1.
          6    2    1    2  501    0  0.10119249549E+02 -0.16769402604E+03 -0.61068203333E+03  0.65625002919E+03  0.17177854755E+03 0.  0.
         24    2    3    3    0    0 -0.55463046708E+02 -0.11368636765E+03 -0.31622299948E+03  0.34974378560E+03  0.79517233492E+02 0.  0.
         -6    2    1    2    0  502 -0.10119249549E+02  0.16769402604E+03 -0.40229899118E+03  0.46866265993E+03  0.17197826876E+03 0.  0.
        -24    2    5    5    0    0 -0.28956155948E+02  0.17913341275E+03 -0.27177468365E+03  0.33620748462E+03  0.79036418879E+02 0.  0.
          5    1    3    3  501    0  0.65582296256E+02 -0.54007658385E+02 -0.29445903385E+03  0.30650624359E+03  0.47000000000E+01 0. -1.
        -13    1    4    4    0    0 -0.44696393037E+02 -0.26998154637E+02 -0.18403785474E+03  0.19130237814E+03  0.00000000000E+00 0.  1.
         14    1    4    4    0    0 -0.10766653670E+02 -0.86688213014E+02 -0.13218514475E+03  0.15844140746E+03  0.00000000000E+00 0. -1.
         -5    1    5    5    0  502  0.18836906399E+02 -0.11439386710E+02 -0.13052430753E+03  0.13245517531E+03  0.47000000000E+01 0.  1.
         13    1    6    6    0    0  0.17843896684E+02  0.57727937497E+02 -0.13241233488E+03  0.14554705715E+03  0.00000000000E+00 0. -1.
        -14    1    6    6    0    0 -0.46800052632E+02  0.12140547525E+03 -0.13936234877E+03  0.19066042747E+03  0.00000000000E+00 0.  1.
</event>
<event>
12    1  0.8407180E-002  0.1837481E+03  0.7818608E-02  0.1164266E+00
         21   -1    0    0  501  502  0.00000000000E+00  0.00000000000E+00  0.29630452917E+02  0.29630452917E+02  0.00000000000E+00 0. -1.
         21   -1    0    0  502  503 -0.00000000000E+00 -0.00000000000E+00 -0.13240632515E+04  0.13240632515E+04  0.00000000000E+00 0. -1.
         -6    2    1    2    0  503  0.65198043324E+02 -0.53286305532E+01 -0.90094916721E+03  0.91949592697E+03  0.17170957650E+03 0.  0.
        -24    2    3    3    0    0  0.76439025824E+02 -0.13925476355E+02 -0.89663400886E+03  0.90397252409E+03  0.84716792317E+02 0.  0.
          6    2    1    2  501    0 -0.65198043324E+02  0.53286305532E+01 -0.39348363142E+03  0.43419777749E+03  0.17152015225E+03 0.  0.
         24    2    5    5    0    0  0.14229548632E+02  0.27381383922E+02 -0.28548842334E+03  0.29825616774E+03  0.80628044083E+02 0.  0.
          5    1    5    5  501    0 -0.79427591956E+02 -0.22052753369E+02 -0.10799520808E+03  0.13594160975E+03  0.47000000000E+01 0. -1.
        -11    1    6    6    0    0 -0.32846497832E+02  0.20593008798E+02 -0.12781620340E+03  0.13356626176E+03  0.00000000000E+00 0.  1.
         12    1    6    6    0    0  0.47076046463E+02  0.67883751247E+01 -0.15767221994E+03  0.16468990597E+03  0.00000000000E+00 0. -1.
         -5    1    3    3    0  503 -0.11240982500E+02  0.85968458016E+01 -0.43151583435E+01  0.15523402875E+02  0.47000000000E+01 0.  1.
         11    1    4    4    0    0 -0.14032461536E+02  0.14814421880E+01 -0.29902886635E+03  0.29936160001E+03  0.00000000000E+00 0. -1.
        -12    1    4    4    0    0  0.90471487361E+02 -0.15406918543E+02 -0.59760514251E+03  0.60461092408E+03  0.00000000000E+00 0.  1.
</event>
<event>
12    1  0.8407180E-002  0.2486117E+03  0.7818608E-02  0.1114655E+00
         21   -1    0    0  501  502  0.00000000000E+00  0.00000000000E+00  0.24911237594E+03  0.24911237594E+03  0.00000000000E+00 0.  1.
         21   -1    0    0  502  503 -0.00000000000E+00 -0.00000000000E+00 -0.31420897967E+03  0.31420897967E+03  0.00000000000E+00 0.  1.
         -6    2    1    2    0  503  0.13503114916E+03 -0.11049062192E+03  0.99603145283E+02  0.26510364436E+03  0.17296695327E+03 0.  0.
        -24    2    3    3    0    0  0.15176542569E+02  0.34799334460E+01  0.90627293763E+01  0.76492745615E+02  0.74340901843E+02 0.  0.
          6    2    1    2  501    0 -0.13503114916E+03  0.11049062192E+03 -0.16469974901E+03  0.29821771125E+03  0.17710507391E+03 0.  0.
         24    2    5    5    0    0 -0.85137359222E+01  0.31704534610E+02 -0.10941814008E+03  0.13918296759E+03  0.79510426192E+02 0.  0.
          5    1    5    5  501    0 -0.12651741324E+03  0.78786087307E+02 -0.55281608929E+02  0.15903474366E+03  0.47000000000E+01 0. -1.
        -13    1    6    6    0    0 -0.38929445887E+00  0.55680409917E+02 -0.50968496392E+02  0.75486735412E+02  0.00000000000E+00 0.  1.
         14    1    6    6    0    0 -0.81244414633E+01 -0.23975875307E+02 -0.58449643692E+02  0.63696232177E+02  0.00000000000E+00 0. -1.
         -5    1    3    3    0  503  0.11985460659E+03 -0.11397055536E+03  0.90540415907E+02  0.18861089874E+03  0.47000000000E+01 0.  1.
         13    1    4    4    0    0  0.11386846507E+02  0.27391640358E+02 -0.22128293953E+02  0.37008426448E+02  0.00000000000E+00 0. -1.
        -14    1    4    4    0    0  0.37896960615E+01 -0.23911706912E+02  0.31191023330E+02  0.39484319167E+02  0.00000000000E+00 0.  1.
</event>
<event>
12    1  0.8407180E-002  0.2132707E+03  0.7818608E-02  0.1139152E+00
         21   -1    0    0  503  502  0.00000000000E+00  0.00000000000E+00  0.11335506627E+03  0.11335506627E+03  0.00000000000E+00 0.  1.
         21   -1    0    0  501  503 -0.00000000000E+00 -0.00000000000E+00 -0.46760248835E+03  0.46760248835E+03  0.00000000000E+00 0.  1.
          6    2    1    2  501    0 -0.11475758138E+03 -0.49176137486E+02 -0.28800165939E+03  0.35837038223E+03  0.17290685373E+03 0.  0.
         24    2    3    3    0    0 -0.24226174203E+02  0.27732759913E+02 -0.16937650031E+03  0.19042714018E+03  0.78854824646E+02 0.  0.
         -6    2    1    2    0  502  0.11475758138E+03  0.49176137486E+02 -0.66245762692E+02  0.22258717238E+03  0.17195625389E+03 0.  0.
        -24    2    5    5    0    0  0.10094642183E+03  0.47894977440E+02  0.17506841837E+02  0.13756377405E+03  0.78314707909E+02 0.  0.
          5    1    3    3  501    0 -0.90531407180E+02 -0.76908897399E+02 -0.11862515908E+03  0.16794324205E+03  0.47000000000E+01 0. -1.
        -13    1    4    4    0    0 -0.13309593513E+02 -0.50039798076E+01  0.30824627239E+01  0.14549455998E+02  0.00000000000E+00 0.  1.
         14    1    4    4    0    0 -0.10916580690E+02  0.32736739721E+02 -0.17245896303E+03  0.17587768418E+03  0.00000000000E+00 0. -1.
         -5    1    5    5    0  502  0.13811159555E+02  0.12811600459E+01 -0.83752604529E+02  0.85023398337E+02  0.47000000000E+01 0.  1.
         13    1    6    6    0    0  0.42206524075E+02  0.57508388873E+02  0.28891993263E+02  0.76963320744E+02  0.00000000000E+00 0. -1.
        -14    1    6    6    0    0  0.58739897752E+02 -0.96134114330E+01 -0.11385151426E+02  0.60600453301E+02  0.00000000000E+00 0.  1.
</event>
<event>
12    1  0.8407180E-002  0.2121999E+03  0.7818608E-02  0.1140055E+00
         21   -1    0    0  501  502  0.00000000000E+00  0.00000000000E+00  0.76401296242E+02  0.76401296242E+02  0.00000000000E+00 0. -1.
         21   -1    0    0  502  503 -0.00000000000E+00 -0.00000000000E+00 -0.82042753002E+03  0.82042753002E+03  0.00000000000E+00 0. -1.
         -6    2    1    2    0  503  0.99578300708E+02 -0.73485129123E+02 -0.61086941367E+03  0.64631032899E+03  0.17099619479E+03 0.  0.
        -24    2    3    3    0    0  0.10340554907E+03 -0.32956688027E+01 -0.48095061739E+03  0.49851928801E+03  0.80649954316E+02 0.  0.
          6    2    1    2  501    0 -0.99578300708E+02  0.73485129123E+02 -0.13315682011E+03  0.25051849727E+03  0.17237423404E+03 0.  0.
         24    2    5    5    0    0 -0.38856397897E+02  0.13448037635E+02 -0.13675728141E+03  0.16492261445E+03  0.82499971899E+02 0.  0.
          5    1    5    5  501    0 -0.60721902810E+02  0.60037091489E+02  0.36004612988E+01  0.85595882827E+02  0.47000000000E+01 0. -1.
        -11    1    6    6    0    0 -0.62519223215E+02 -0.21242944055E+01 -0.80616963065E+02  0.10204048526E+03  0.00000000000E+00 0.  1.
         12    1    6    6    0    0  0.23662825318E+02  0.15572332040E+02 -0.56140318344E+02  0.62882129186E+02  0.00000000000E+00 0. -1.
         -5    1    3    3    0  503 -0.38272483636E+01 -0.70189460321E+02 -0.12991879628E+03  0.14779104099E+03  0.47000000000E+01 0.  1.
         11    1    4    4    0    0  0.18049761056E+02 -0.93834731219E+01 -0.27151686274E+03  0.27227789149E+03  0.00000000000E+00 0. -1.
        -12    1    4    4    0    0  0.85355788015E+02  0.60878043192E+01 -0.20943375465E+03  0.22624139651E+03  0.00000000000E+00 0.  1.
</event>
<event>
12    1  0.8407180E-002  0.2673135E+03  0.7818608E-02  0.1102883E+00
         21   -1    0    0  503  502  0.00000000000E+00  0.00000000000E+00  0.17881072782E+03  0.17881072782E+03  0.00000000000E+00 0. -1.
         21   -1    0    0  501  503 -0.00000000000E+00 -0.00000000000E+00 -0.58197077562E+03  0.58197077562E+03  0.00000000000E+00 0.  1.
          6    2    1    2  501    0  0.13350087178E+02  0.20427420080E+03 -0.41494258852E+03  0.49359282363E+03  0.17190215193E+03 0.  0.
         24    2    3    3    0    0  0.57542363845E+02  0.17369675888E+03 -0.24912424405E+03  0.31922037560E+03  0.79731245709E+02 0.  0.
         -6    2    1    2    0  502 -0.13350087178E+02 -0.20427420080E+03  0.11782540724E+02  0.26718867981E+03  0.17130320608E+03 0.  0.
        -24    2    5    5    0    0 -0.50433952458E+02 -0.14295878117E+03  0.59225220671E+02  0.18112073206E+03  0.79475129103E+02 0.  0.
          5    1    3    3  501    0 -0.44192276666E+02  0.30577441913E+02 -0.16581834446E+03  0.17437244803E+03  0.47000000000E+01 0. -1.
        -11    1    4    4    0    0  0.66543590116E+02  0.15176139632E+03 -0.24402023902E+03  0.29496685890E+03  0.00000000000E+00 0.  1.
         12    1    4    4    0    0 -0.90012262719E+01  0.21935362559E+02 -0.51040050339E+01  0.24253516701E+02  0.00000000000E+00 0. -1.
         -5    1    5    5    0  502  0.37083865280E+02 -0.61315419625E+02 -0.47442679946E+02  0.86067947741E+02  0.47000000000E+01 0.  1.
         13    1    6    6    0    0 -0.19112996905E+02 -0.11507783681E+03  0.72244690913E+02  0.13721337596E+03  0.00000000000E+00 0. -1.
        -14    1    6    6    0    0 -0.31320955553E+02 -0.27880944356E+02 -0.13019470242E+02  0.43907356107E+02  0.00000000000E+00 0.  1.
</event>
<event>
12    1  0.8407180E-002  0.1947335E+03  0.7818608E-02  0.1154526E+00
         21   -1    0    0  503  502  0.00000000000E+00  0.00000000000E+00  0.17562783200E+03  0.17562783200E+03  0.00000000000E+00 0.  1.
         21   -1    0    0  501  503 -0.00000000000E+00 -0.00000000000E+00 -0.33389203018E+03  0.33389203018E+03  0.00000000000E+00 0.  1.
          6    2    1    2  501    0  0.33143396263E+02 -0.84110014911E+02 -0.23126637956E+03  0.30155245928E+03  0.17110455301E+03 0.  0.
         24    2    3    3    0    0  0.28865293822E+02 -0.12440982990E+03 -0.18908688942E+03  0.24287046343E+03  0.83193745510E+02 0.  0.
         -6    2    1    2    0  502 -0.33143396263E+02  0.84110014911E+02  0.73002181380E+02  0.20796740290E+03  0.17247649944E+03 0.  0.
        -24    2    5    5    0    0 -0.47309538368E+02  0.35196472964E+02  0.26184864079E+01  0.12096643345E+03  0.10558900237E+03 0.  0.
          5    1    3    3  501    0  0.42781024413E+01  0.40299814992E+02 -0.42179490139E+02  0.58681995853E+02  0.47000000000E+01 0. -1.
        -13    1    4    4    0    0 -0.24688654893E+02 -0.32326531645E+02 -0.26679185723E+02  0.48644766208E+02  0.00000000000E+00 0.  1.
         14    1    4    4    0    0  0.53553948715E+02 -0.92083298258E+02 -0.16240770369E+03  0.19422569722E+03  0.00000000000E+00 0. -1.
         -5    1    5    5    0  502  0.14166142105E+02  0.48913541947E+02  0.70383694972E+02  0.87000969454E+02  0.47000000000E+01 0.  1.
         13    1    6    6    0    0  0.24903661181E+02  0.92537290252E+01 -0.27774151087E+02  0.38434714904E+02  0.00000000000E+00 0. -1.
        -14    1    6    6    0    0 -0.72213199550E+02  0.25942743939E+02  0.30392637495E+02  0.82531718546E+02  0.00000000000E+00 0.  1.
</event>
<event>
12    1  0.8407180E-002  0.2396858E+03  0.7818608E-02  0.1120756E+00
         21   -1    0    0  503  502  0.00000000000E+00  0.00000000000E+00  0.19425282612E+03  0.19425282612E+03  0.00000000000E+00 0. -1.
         21   -1    0    0  501  503 -0.00000000000E+00 -0.00000000000E+00 -0.76592970628E+03  0.76592970628E+03  0.00000000000E+00 0.  1.
          6    2    1    2  501    0 -0.15089782234E+03 -0.71960650852E+02 -0.66519569121E+03  0.70706054091E+03  0.17175800666E+03 0.  0.
         24    2    3    3    0    0 -0.22050811778E+02 -0.15736542080E+02 -0.14104195580E+03  0.16436179309E+03  0.79925519556E+02 0.  0.
         -6    2    1    2    0  502  0.15089782234E+03  0.71960650852E+02  0.93518811040E+02  0.25312199149E+03  0.16545841320E+03 0.  0.
        -24    2    5    5    0    0  0.70510314871E+02 -0.13380199733E+02  0.82511851496E+01  0.10807761842E+03  0.80386287997E+02 0.  0.
          5    1    3    3  501    0 -0.12884701056E+03 -0.56224108772E+02 -0.52415373541E+03  0.54269874782E+03  0.47000000000E+01 0. -1.
        -11    1    4    4    0    0  0.20990724270E+02 -0.25380208994E+02 -0.95239963990E+02  0.10077408523E+03  0.00000000000E+00 0.  1.
         12    1    4    4    0    0 -0.43041536048E+02  0.96436669142E+01 -0.45801991807E+02  0.63587707857E+02  0.00000000000E+00 0. -1.
         -5    1    5    5    0  502  0.80387507470E+02  0.85340850585E+02  0.85267625891E+02  0.14504437308E+03  0.47000000000E+01 0.  1.
         13    1    6    6    0    0  0.46412865897E+02 -0.27807695807E+02  0.38800036126E+02  0.66579763218E+02  0.00000000000E+00 0. -1.
        -14    1    6    6    0    0  0.24097448974E+02  0.14427496074E+02 -0.30548850976E+02  0.41497855197E+02  0.00000000000E+00 0.  1.
</event>
<event>
12    1  0.8407180E-002  0.2375855E+03  0.7818608E-02  0.1121468E+00
         21   -1    0    0  501  502  0.00000000000E+00  0.00000000000E+00  0.12971896148E+03  0.12971896148E+03  0.00000000000E+00 0. -1.
         21   -1    0    0  502  503 -0.00000000000E+00 -0.00000000000E+00 -0.63325150322E+03  0.63325150322E+03  0.00000000000E+00 0. -1.
         -6    2    1    2    0  503 -0.42684547244E+02  0.15717432221E+03 -0.46534278496E+03  0.52233520348E+03  0.17252367706E+03 0.  0.
        -24    2    3    3    0    0  0.17435918544E+01  0.38868322941E+02 -0.90338372103E+02  0.12658203714E+03  0.79675617425E+02 0.  0.
          6    2    1    2  501    0  0.42684547244E+02 -0.15717432221E+03 -0.38189756781E+02  0.24063526121E+03  0.17297726232E+03 0.  0.
         24    2    5    5    0    0 -0.33330553497E+02 -0.13496588099E+03 -0.23738780876E+02  0.15999760806E+03  0.75557858878E+02 0.  0.
          5    1    5    5  501    0  0.76015100741E+02 -0.22208441220E+02 -0.14450975905E+02  0.80637653157E+02  0.47000000000E+01 0. -1.
        -11    1    6    6    0    0 -0.77504723707E+00 -0.10857060963E+03 -0.39042088504E+02  0.11537964573E+03  0.00000000000E+00 0.  1.
         12    1    6    6    0    0 -0.32555506260E+02 -0.26395271364E+02  0.15303307628E+02  0.44617962331E+02  0.00000000000E+00 0. -1.
         -5    1    3    3    0  503 -0.44428139099E+02  0.11830599927E+03 -0.37500441285E+03  0.39575316634E+03  0.47000000000E+01 0.  1.
         13    1    4    4    0    0 -0.20048352672E+02  0.55503558213E+02 -0.47654535751E+02  0.75852067849E+02  0.00000000000E+00 0. -1.
        -14    1    4    4    0    0  0.21791944527E+02 -0.16635235273E+02 -0.42683836352E+02  0.50729969294E+02  0.00000000000E+00 0.  1.
</event>
<event>
12    1  0.8407180E-002  0.2676343E+03  0.7818608E-02  0.1102678E+00
         21   -1    0    0  503  502  0.00000000000E+00  0.00000000000E+00  0.17520154410E+04  0.17520154410E+04  0.00000000000E+00 0.  1.
         21   -1    0    0  501  503 -0.00000000000E+00 -0.00000000000E+00 -0.28600052721E+03  0.28600052721E+03  0.00000000000E+00 0.  1.
          6    2    1    2  501    0 -0.11463447182E+03 -0.16935743995E+03 -0.21038559832E+03  0.34042655947E+03  0.17264164566E+03 0.  0.
         24    2    3    3    0    0 -0.30779831779E+01 -0.58594321516E+02 -0.36017201792E+02  0.10560802044E+03  0.80081500127E+02 0.  0.
         -6    2    1    2    0  502  0.11463447182E+03  0.16935743995E+03  0.16764005121E+04  0.16975894087E+04  0.17224435852E+03 0.  0.
        -24    2    5    5    0    0  0.39659232679E+02  0.33635197958E+02  0.35050467083E+03  0.36264982756E+03  0.77182847046E+02 0.  0.
          5    1    3    3  501    0 -0.11155648864E+03 -0.11076311844E+03 -0.17436839653E+03  0.23481853903E+03  0.47000000000E+01 0. -1.
        -11    1    4    4    0    0 -0.24677142960E+02 -0.28394699485E+02 -0.52825611040E+02  0.64851873722E+02  0.00000000000E+00 0.  1.
         12    1    4    4    0    0  0.21599159782E+02 -0.30199622030E+02  0.16808409248E+02  0.40756146721E+02  0.00000000000E+00 0. -1.
         -5    1    5    5    0  502  0.74975239144E+02  0.13572224199E+03  0.13258958412E+04  0.13349395811E+04  0.47000000000E+01 0.  1.
         13    1    6    6    0    0 -0.12020529864E+02  0.32631193543E+02  0.79699738003E+02  0.86955943834E+02  0.00000000000E+00 0. -1.
        -14    1    6    6    0    0  0.51679762542E+02  0.10040044150E+01  0.27080493283E+03  0.27569388373E+03  0.00000000000E+00 0.  1.
</event>
<event>
12    1  0.8407180E-002  0.1759314E+03  0.7818608E-02  0.1171834E+00
         21   -1    0    0  503  502  0.00000000000E+00  0.00000000000E+00  0.16772496141E+03  0.16772496141E+03  0.00000000000E+00 0. -1.
         21   -1    0    0  501  503 -0.00000000000E+00 -0.00000000000E+00 -0.18533261194E+03  0.18533261194E+03  0.00000000000E+00 0. -1.
          6    2    1    2  501    0  0.76615383702E+01 -0.34462025799E+02  0.37520739099E+01  0.17583423812E+03  0.17221286492E+03 0.  0.
         24    2    3    3    0    0  0.16319423960E+02  0.30930432958E+02 -0.43631154213E+02  0.94480732029E+02  0.76157178423E+02 0.  0.
         -6    2    1    2    0  502 -0.76615383702E+01  0.34462025799E+02 -0.21359724444E+02  0.17722333523E+03  0.17235295858E+03 0.  0.
        -24    2    5    5    0    0 -0.11287240800E+02  0.51609574206E+02 -0.74563032082E+02  0.12101064913E+03  0.79328314593E+02 0.  0.
          5    1    3    3  501    0 -0.86578855901E+01 -0.65392458757E+02  0.47383228123E+02  0.81353506087E+02  0.47000000000E+01 0. -1.
        -11    1    4    4    0    0 -0.22063872214E+02 -0.87043459395E+01 -0.28874321237E+02  0.37367185098E+02  0.00000000000E+00 0.  1.
         12    1    4    4    0    0  0.38383296174E+02  0.39634778898E+02 -0.14756832976E+02  0.57113546930E+02  0.00000000000E+00 0. -1.
         -5    1    5    5    0  502  0.36257024299E+01 -0.17147548407E+02  0.53203307639E+02  0.56212686097E+02  0.47000000000E+01 0.  1.
         13    1    6    6    0    0 -0.32680262740E+02  0.30893267582E+02 -0.78999092707E+02  0.90902421327E+02  0.00000000000E+00 0. -1.
        -14    1    6    6    0    0  0.21393021939E+02  0.20716306624E+02  0.44360606246E+01  0.30108227808E+02  0.00000000000E+00 0.  1.
</event>
<event>
12    1  0.8407180E-002  0.2004139E+03  0.7818608E-02  0.1149446E+00
         21   -1    0    0  501  502  0.00000000000E+00  0.00000000000E+00  0.14818007445E+03  0.14818007445E+03  0.00000000000E+00 0. -1.
         21   -1    0    0  502  503 -0.00000000000E+00 -0.00000000000E+00 -0.53887478361E+03  0.53887478361E+03  0.00000000000E+00 0. -1.
         -6    2    1    2    0  503  0.32814247322E+02 -0.10129765059E+03 -0.43775255916E+03  0.48144890835E+03  0.16978739488E+03 0.  0.
        -24    2    3    3    0    0  0.75927034718E+02 -0.38499465009E+02 -0.20240235164E+03  0.23403400434E+03  0.80981972252E+02 0.  0.
          6    2    1    2  501    0 -0.32814247322E+02  0.10129765059E+03  0.47057849994E+02  0.20560594972E+03  0.16947382238E+03 0.  0.
         24    2    5    5    0    0 -0.36563778006E+02  0.26801350333E+02  0.81190884220E+02  0.12344201750E+03  0.81183432808E+02 0.  0.
          5    1    5    5  501    0  0.37495306837E+01  0.74496300255E+02 -0.34133034225E+02  0.82163932218E+02  0.47000000000E+01 0. -1.
        -13    1    6    6    0    0  0.47447578838E+01  0.44013455326E+02  0.58223318946E+02  0.73141314223E+02  0.00000000000E+00 0.  1.
         14    1    6    6    0    0 -0.41308535889E+02 -0.17212104994E+02  0.22967565274E+02  0.50300703278E+02  0.00000000000E+00 0. -1.
         -5    1    3    3    0  503 -0.43112787396E+02 -0.62798185578E+02 -0.23535020751E+03  0.24741490401E+03  0.47000000000E+01 0.  1.
         11    1    4    4    0    0  0.26544647781E+02  0.21862535980E+02 -0.33561450930E+02  0.48051636744E+02  0.00000000000E+00 0. -1.
        -12    1    4    4    0    0  0.49382386938E+02 -0.60362000989E+02 -0.16884090071E+03  0.18598236759E+03  0.00000000000E+00 0.  1.
</event>
<event>
12    1  0.8407180E-002  0.1764697E+03  0.7818608E-02  0.1171432E+00
         21   -1    0    0  501  502  0.00000000000E+00  0.00000000000E+00  0.10790310066E+03  0.10790310066E+03  0.00000000000E+00 0. -1.
         21   -1    0    0  502  503 -0.00000000000E+00 -0.00000000000E+00 -0.61956357064E+03  0.61956357064E+03  0.00000000000E+00 0. -1.
         -6    2    1    2    0  503 -0.13212624821E+02 -0.34225217751E+02 -0.52188855050E+03  0.55070082066E+03  0.17192380797E+03 0.  0.
        -24    2    3    3    0    0 -0.47750657907E+02  0.12275088635E+02 -0.44348387778E+03  0.45310708660E+03  0.78722798120E+02 0.  0.
          6    2    1    2  501    0  0.13212624821E+02  0.34225217751E+02  0.10228080514E+02  0.17676585065E+03  0.17261405893E+03 0.  0.
         24    2    5    5    0    0 -0.59125915619E+02  0.30228763400E+02  0.85169422171E+01  0.10414454472E+03  0.79774029959E+02 0.  0.
          5    1    5    5  501    0  0.72338540440E+02  0.39964543515E+01  0.17111382974E+01  0.72621305928E+02  0.47000000000E+01 0. -1.
        -11    1    6    6    0    0 -0.49987622228E+02 -0.46363993790E+01  0.33443569216E+02  0.60321894011E+02  0.00000000000E+00 0.  1.
         12    1    6    6    0    0 -0.91382933908E+01  0.34865162779E+02 -0.24926626999E+02  0.43822650710E+02  0.00000000000E+00 0. -1.
         -5    1    3    3    0  503  0.34538033086E+02 -0.46500306386E+02 -0.78404672719E+02  0.97593734059E+02  0.47000000000E+01 0.  1.
         11    1    4    4    0    0 -0.44750214529E+02  0.38951241156E+02 -0.21444461029E+03  0.22250004893E+03  0.00000000000E+00 0. -1.
        -12    1    4    4    0    0 -0.30004433785E+01 -0.26676152521E+02 -0.22903926748E+03  0.23060703767E+03  0.00000000000E+00 0.  1.
</event>
<event>
12    1  0.8407180E-002  0.1941113E+03  0.7818608E-02  0.1154814E+00
         21   -1    0    0  501  502  0.00000000000E+00  0.00000000000E+00  0.97339996554E+02  0.97339996554E+02  0.00000000000E+00 0. -1.
         21   -1    0    0  502  503 -0.00000000000E+00 -0.00000000000E+00 -0.45787790660E+03  0.45787790660E+03  0.00000000000E+00 0.  1.
         -6    2    1    2    0  503 -0.84928983343E+02 -0.36634808683E+02 -0.28950741849E+03  0.34855952888E+03  0.17065801592E+03 0.  0.
        -24    2    3    3    0    0  0.43629898407E+01  0.32289059188E+01 -0.57340510134E+02  0.96595770474E+02  0.77545775238E+02 0.  0.
          6    2    1    2  501    0  0.84928983343E+02  0.36634808683E+02 -0.71030491555E+02  0.20665837427E+03  0.17060865015E+03 0.  0.
         24    2    5    5    0    0 -0.19255690984E+02 -0.33566157457E+01 -0.22679106307E+02  0.84946801902E+02  0.79495715520E+02 0.  0.
          5    1    5    5  501    0  0.10418467433E+03  0.39991424429E+02 -0.48351385248E+02  0.12171157237E+03  0.47000000000E+01 0. -1.
        -13    1    6    6    0    0 -0.83414314172E+01  0.29767918352E+02  0.14346967726E+02  0.34081430780E+02  0.00000000000E+00 0.  1.
         14    1    6    6    0    0 -0.10914259567E+02 -0.33124534097E+02 -0.37026074034E+02  0.50865371122E+02  0.00000000000E+00 0. -1.
         -5    1    3    3    0  503 -0.89291973184E+02 -0.39863714602E+02 -0.23216690836E+03  0.25196375841E+03  0.47000000000E+01 0.  1.
         11    1    4    4    0    0  0.15500626138E+02 -0.32167015629E+02 -0.11276953048E+02  0.37445373215E+02  0.00000000000E+00 0. -1.
        -12    1    4    4    0    0 -0.11137636298E+02  0.35395921548E+02 -0.46063557086E+02  0.59150397259E+02  0.00000000000E+00 0.  1.
</event>
<event>
12    1  0.8407180E-002  0.1856043E+03  0.7818608E-02  0.1165494E+00
         21   -1    0    0  501  502  0.00000000000E+00  0.00000000000E+00  0.17096506413E+02  0.17096506413E+02  0.00000000000E+00 0.  1.
         21   -1    0    0  502  503 -0.00000000000E+00 -0.00000000000E+00 -0.36375905546E+04  0.36375905546E+04  0.00000000000E+00 0.  1.
         -6    2    1    2    0  503  0.42843596716E+02  0.52800654710E+02 -0.31118977278E+04  0.31174278538E+04  0.17270052769E+03 0.  0.
        -24    2    3    3    0    0  0.27534431933E+02  0.72658087577E+01 -0.69985550232E+03  0.70490270775E+03  0.79241190909E+02 0.  0.
          6    2    1    2  501    0 -0.42843596716E+02 -0.52800654710E+02 -0.50859632043E+03  0.53725920728E+03  0.15922862726E+03 0.  0.
         24    2    5    5    0    0 -0.72338283737E+02 -0.70382228125E+02 -0.31259230331E+03  0.33821470720E+03  0.80552807202E+02 0.  0.
          5    1    5    5  501    0  0.29494687020E+02  0.17581573415E+02 -0.19600401712E+03  0.19904450008E+03  0.47000000000E+01 0. -1.
        -11    1    6    6    0    0 -0.34472654433E+02 -0.61142875288E+02 -0.27588493470E+03  0.28467404570E+03  0.00000000000E+00 0.  1.
         12    1    6    6    0    0 -0.37865629303E+02 -0.92393528376E+01 -0.36707368610E+02  0.53540661498E+02  0.00000000000E+00 0. -1.
         -5    1    3    3    0  503  0.15309164783E+02  0.45534845952E+02 -0.24120422255E+04  0.24125251460E+04  0.47000000000E+01 0.  1.
         13    1    4    4    0    0 -0.18188066792E+02  0.22862004206E+02 -0.41085365036E+03  0.41189100382E+03  0.00000000000E+00 0. -1.
        -14    1    4    4    0    0  0.45722498724E+02 -0.15596195448E+02 -0.28900185196E+03  0.29301170393E+03  0.00000000000E+00 0.  1.
</event>
<event>
12    1  0.8407180E-002  0.1790191E+03  0.7818608E-02  0.1168948E+00
         21   -1    0    0  503  502  0.00000000000E+00  0.00000000000E+00  0.32863099468E+03  0.32863099468E+03  0.00000000000E+00 0.  1.
         21   -1    0    0  501  503 -0.00000000000E+00 -0.00000000000E+00 -0.97368578912E+02  0.97368578912E+02  0.00000000000E+00 0.  1.
          6    2    1    2  501    0  0.31045107469E+02  0.36260825045E+02  0.12674507584E+03  0.21870335747E+03  0.17172128053E+03 0.  0.
         24    2    3    3    0    0 -0.58282043190E+01  0.82609653464E+02  0.51416830160E+02  0.12276436844E+03  0.74626248227E+02 0.  0.
         -6    2    1    2    0  502 -0.31045107469E+02 -0.36260825045E+02  0.10451733993E+03  0.20729621613E+03  0.17253753430E+03 0.  0.
        -24    2    5    5    0    0  0.26374931010E+02  0.92143126481E+01  0.46567106110E+01  0.83363636651E+02  0.78404530601E+02 0.  0.
          5    1    3    3  501    0  0.36873311788E+02 -0.46348828420E+02  0.75328245676E+02  0.95938989023E+02  0.47000000000E+01 0. -1.
        -11    1    4    4    0    0 -0.17287568439E+02 -0.90570783289E+00  0.31811423453E+02  0.36216667314E+02  0.00000000000E+00 0.  1.
         12    1    4    4    0    0  0.11459364120E+02  0.83515361297E+02  0.19605406707E+02  0.86547701129E+02  0.00000000000E+00 0. -1.
         -5    1    5    5    0  502 -0.57420038479E+02 -0.45475137693E+02  0.99860629322E+02  0.12393257948E+03  0.47000000000E+01 0.  1.
         11    1    6    6    0    0  0.12309138755E+02  0.24627731069E+00  0.41303186254E+02  0.43099057346E+02  0.00000000000E+00 0. -1.
        -12    1    6    6    0    0  0.14065792255E+02  0.89680353374E+01 -0.36646475643E+02  0.40264579305E+02  0.00000000000E+00 0.  1.
</event>
<event>
12    1  0.8407180E-002  0.2236377E+03  0.7818608E-02  0.1131704E+00
         21   -1    0    0  501  502  0.00000000000E+00  0.00000000000E+00  0.17258100562E+02  0.17258100562E+02  0.00000000000E+00 0. -1.
         21   -1    0    0  502  503 -0.00000000000E+00 -0.00000000000E+00 -0.40414268668E+04  0.40414268668E+04  0.00000000000E+00 0.  1.
         -6    2    1    2    0  503  0.13424422719E+03 -0.51038130931E+02 -0.30993158923E+04  0.31071774040E+04  0.16782734088E+03 0.  0.
        -24    2    3    3    0    0  0.78138289043E+02 -0.94732186380E+02 -0.23071831485E+04  0.23118451334E+04  0.80337170753E+02 0.  0.
          6    2    1    2  501    0 -0.13424422719E+03  0.51038130931E+02 -0.92485287401E+03  0.95150756343E+03  0.17142753967E+03 0.  0.
         24    2    5    5    0    0 -0.11650413067E+03  0.77680097657E+02 -0.88657293775E+03  0.90138821651E+03  0.82956210574E+02 0.  0.
          5    1    5    5  501    0 -0.17740096527E+02 -0.26641966726E+02 -0.38279936255E+02  0.50119346919E+02  0.47000000000E+01 0. -1.
        -11    1    6    6    0    0 -0.12347577781E+03  0.48833194420E+02 -0.74461307164E+03  0.75635942186E+03  0.00000000000E+00 0.  1.
         12    1    6    6    0    0  0.69716471408E+01  0.28846903238E+02 -0.14195986612E+03  0.14502879465E+03  0.00000000000E+00 0. -1.
         -5    1    3    3    0  503  0.56105938150E+02  0.43694055449E+02 -0.79213274379E+03  0.79533227054E+03  0.47000000000E+01 0.  1.
         11    1    4    4    0    0  0.19955602893E+02  0.54746450400E+01 -0.13530846595E+03  0.13688162324E+03  0.00000000000E+00 0. -1.
        -12    1    4    4    0    0  0.58182686151E+02 -0.10020683142E+03 -0.21718746825E+04  0.21749635102E+04  0.00000000000E+00 0.  1.
</event>
<event>
12    1  0.8407180E-002  0.2102394E+03  0.7818608E-02  0.1141406E+00
         21   -1    0    0  503  502  0.00000000000E+00  0.00000000000E+00  0.68445389889E+03  0.68445389889E+03  0.00000000000E+00 0.  1.
         21   -1    0    0  501  503 -0.00000000000E+00 -0.00000000000E+00 -0.99276292467E+02  0.99276292467E+02  0.00000000000E+00 0. -1.
          6    2    1    2  501    0 -0.62593451669E+02 -0.10428694148E+03  0.60696375543E+02  0.21868049657E+03  0.17129916293E+03 0.  0.
         24    2    3    3    0    0 -0.90778664132E+02 -0.78229126383E+02  0.90819324052E+02  0.16966113350E+03  0.78588730248E+02 0.  0.
         -6    2    1    2    0  502  0.62593451669E+02  0.10428694148E+03  0.52448123088E+03  0.56504969478E+03  0.17148437153E+03 0.  0.
        -24    2    5    5    0    0  0.69607395460E+02  0.64396121947E+00  0.29178212917E+03  0.31017320568E+03  0.78898684575E+02 0.  0.
          5    1    3    3  501    0  0.28185212464E+02 -0.26057815095E+02 -0.30122948509E+02  0.49019363073E+02  0.47000000000E+01 0. -1.
        -13    1    4    4    0    0  0.95136667105E+01 -0.98045763439E+01  0.31914809061E+02  0.34715912907E+02  0.00000000000E+00 0.  1.
         14    1    4    4    0    0 -0.10029233084E+03 -0.68424550039E+02  0.58904514991E+02  0.13494522059E+03  0.00000000000E+00 0. -1.
         -5    1    5    5    0  502 -0.70139437916E+01  0.10364298026E+03  0.23269910171E+03  0.25487648911E+03  0.47000000000E+01 0.  1.
         11    1    6    6    0    0 -0.14729503355E+02 -0.10672127782E+02  0.31981068794E+02  0.36791865156E+02  0.00000000000E+00 0. -1.
        -12    1    6    6    0    0  0.84336898815E+02  0.11316089001E+02  0.25980106038E+03  0.27338134052E+03  0.00000000000E+00 0.  1.
</event>
<event>
12    1  0.8407180E-002  0.1772953E+03  0.7818608E-02  0.1171550E+00
         21   -1    0    0  501  502  0.00000000000E+00  0.00000000000E+00  0.16773068527E+04  0.16773068527E+04  0.00000000000E+00 0. -1.
         21   -1    0    0  502  503 -0.00000000000E+00 -0.00000000000E+00 -0.21102861794E+02  0.21102861794E+02  0.00000000000E+00 0. -1.
         -6    2    1    2    0  503  0.20642873503E+02 -0.63714439681E+01  0.11478544232E+04  0.11614660628E+04  0.17597418722E+03 0.  0.
        -24    2    3    3    0    0  0.20850163211E+02  0.26432430075E+02  0.10987138258E+04  0.11021952821E+04  0.80802019398E+02 0.  0.
          6    2    1    2  501    0 -0.20642873503E+02  0.63714439681E+01  0.50834956769E+03  0.53694365171E+03  0.17152981846E+03 0.  0.
         24    2    5    5    0    0 -0.31972112326E+01 -0.62143532632E+02  0.31531342558E+03  0.33131365558E+03  0.80462048273E+02 0.  0.
          5    1    5    5  501    0 -0.17445662271E+02  0.68514976600E+02  0.19303614210E+03  0.20562999613E+03  0.47000000000E+01 0. -1.
        -11    1    6    6    0    0  0.97424622394E+01 -0.89963544052E+01  0.22730542961E+03  0.22769191530E+03  0.00000000000E+00 0.  1.
         12    1    6    6    0    0 -0.12939673472E+02 -0.53147178227E+02  0.88007995973E+02  0.10362174028E+03  0.00000000000E+00 0. -1.
         -5    1    3    3    0  503 -0.20728970798E+00 -0.32803874043E+02  0.49140597413E+02  0.59270780620E+02  0.47000000000E+01 0.  1.
         13    1    4    4    0    0  0.19574007733E+02 -0.22055007459E+02  0.68726327324E+03  0.68789561118E+03  0.00000000000E+00 0. -1.
        -14    1    4    4    0    0  0.12761554781E+01  0.48487437534E+02  0.41145055253E+03  0.41429967095E+03  0.00000000000E+00 0.  1.
</event>
<event>
12    1  0.8407180E-002  0.2310677E+03  0.7818608E-02  0.1126568E+00
         21   -1    0    0  501  502  0.00000000000E+00  0.00000000000E+00  0.39986891568E+03  0.39986891568E+03  0.00000000000E+00 0.  1.
         21   -1    0    0  502  503 -0.00000000000E+00 -0.00000000000E+00 -0.16681959910E+03  0.16681959910E+03  0.00000000000E+00 0. -1.
         -6    2    1    2    0  503 -0.14391033392E+03  0.43716634858E+02 -0.14959799500E+02  0.22771828292E+03  0.17032466763E+03 0.  0.
        -24    2    3    3    0    0 -0.14454408887E+03  0.84896860528E+02 -0.16196433488E+02  0.18624742695E+03  0.79531811452E+02 0.  0.
          6    2    1    2  501    0  0.14391033392E+03 -0.43716634858E+02  0.24800911608E+03  0.33897023186E+03  0.17541655582E+03 0.  0.
         24    2    5    5    0    0  0.12900203265E+03 -0.80755186584E+02  0.13375837594E+03  0.21785279553E+03  0.80035072308E+02 0.  0.
          5    1    5    5  501    0  0.14908301271E+02  0.37038551726E+02  0.11425074014E+03  0.12111743633E+03  0.47000000000E+01 0. -1.
        -13    1    6    6    0    0  0.82954179154E+02 -0.75251322452E+02  0.12960144866E+03  0.17129125157E+03  0.00000000000E+00 0.  1.
         14    1    6    6    0    0  0.46047853493E+02 -0.55038641321E+01  0.41569272827E+01  0.46561543962E+02  0.00000000000E+00 0. -1.
         -5    1    3    3    0  503  0.63375494785E+00 -0.41180225670E+02  0.12366339882E+01  0.41470855973E+02  0.47000000000E+01 0.  1.
         13    1    4    4    0    0 -0.23722719827E+02 -0.10781095812E+02 -0.18761361377E+02  0.32109004089E+02  0.00000000000E+00 0. -1.
        -14    1    4    4    0    0 -0.12082136904E+03  0.95677956340E+02  0.25649278888E+01  0.15413842286E+03  0.00000000000E+00 0.  1.
</event>
<event>
12    1  0.8407180E-002  0.1865757E+03  0.7818608E-02  0.1164392E+00
         21   -1    0    0  501  502  0.00000000000E+00  0.00000000000E+00  0.19568688671E+03  0.19568688671E+03  0.00000000000E+00 0. -1.
         21   -1    0    0  502  503 -0.00000000000E+00 -0.00000000000E+00 -0.27691314923E+03  0.27691314923E+03  0.00000000000E+00 0. -1.
         -6    2    1    2    0  503  0.56189132789E+02 -0.44060521065E+02 -0.19031838094E+03  0.26651748089E+03  0.17237149804E+03 0.  0.
        -24    2    3    3    0    0  0.97272120730E+02 -0.60436785597E+02 -0.16253105177E+03  0.21407494472E+03  0.79355331528E+02 0.  0.
          6    2    1    2  501    0 -0.56189132789E+02  0.44060521065E+02  0.10909211843E+03  0.20608255505E+03  0.15959442670E+03 0.  0.
         24    2    5    5    0    0  0.28297858766E+02  0.11602486169E+02  0.59372956758E+02  0.10271108506E+03  0.78032252970E+02 0.  0.
          5    1    5    5  501    0 -0.84486991555E+02  0.32458034896E+02  0.49719161668E+02  0.10337146999E+03  0.47000000000E+01 0. -1.
        -13    1    6    6    0    0  0.13894040802E+02 -0.32513792964E+02  0.37046630884E+02  0.51211756097E+02  0.00000000000E+00 0.  1.
         14    1    6    6    0    0  0.14403817964E+02  0.44116279133E+02  0.22326325874E+02  0.51499328961E+02  0.00000000000E+00 0. -1.
         -5    1    3    3    0  503 -0.41082987941E+02  0.16376264532E+02 -0.27787329169E+02  0.52442536175E+02  0.47000000000E+01 0.  1.
         11    1    4    4    0    0  0.97886268712E+02 -0.63261457430E+02 -0.10622356626E+03  0.15769330876E+03  0.00000000000E+00 0. -1.
        -12    1    4    4    0    0 -0.61414798253E+00  0.28246718337E+01 -0.56307485513E+02  0.56381635960E+02  0.00000000000E+00 0.  1.
</event>
<event>
12    1  0.8407180E-002  0.1776689E+03  0.7818608E-02  0.1173590E+00
         21   -1    0    0  503  502  0.00000000000E+00  0.00000000000E+00  0.46909491481E+03  0.46909491481E+03  0.00000000000E+00 0.  1.
         21   -1    0    0  501  503 -0.00000000000E+00 -0.00000000000E+00 -0.69472254417E+02  0.69472254417E+02  0.00000000000E+00 0.  1.
          6    2    1    2  501    0 -0.22501030219E+02  0.34221384619E+02  0.11998826676E+03  0.21439078349E+03  0.17288384644E+03 0.  0.
         24    2    3    3    0    0 -0.78034157977E+02  0.25364670912E+02  0.48970927579E+02  0.12368288901E+03  0.78527759071E+02 0.  0.
         -6    2    1    2    0  502  0.22501030219E+02 -0.34221384619E+02  0.27963439363E+03  0.32417638573E+03  0.15880030051E+03 0.  0.
        -24    2    5    5    0    0 -0.13162454400E+02 -0.53758278666E+02  0.26227343194E+03  0.27971216017E+03  0.79927071226E+02 0.  0.
          5    1    3    3  501    0  0.55533127759E+02  0.88567137067E+01  0.71017339184E+02  0.90707894481E+02  0.47000000000E+01 0. -1.
        -13    1    4    4    0    0 -0.14630915981E+02  0.30003028344E+02  0.49980284164E+02  0.60102198107E+02  0.00000000000E+00 0.  1.
         14    1    4    4    0    0 -0.63403241996E+02 -0.46383574312E+01 -0.10093565844E+01  0.63580690905E+02  0.00000000000E+00 0. -1.
         -5    1    5    5    0  502  0.35663484619E+02  0.19536894047E+02  0.17360961689E+02  0.44464225563E+02  0.47000000000E+01 0.  1.
         11    1    6    6    0    0  0.99504842980E+01  0.11737638454E+02  0.10738350263E+02  0.18764233547E+02  0.00000000000E+00 0. -1.
        -12    1    6    6    0    0 -0.23112938698E+02 -0.65495917120E+02  0.25153508168E+03  0.26094792662E+03  0.00000000000E+00 0.  1.
</event>
<event>
12    1  0.8407180E-002  0.1738222E+03  0.7818608E-02  0.1174001E+00
         21   -1    0    0  501  502  0.00000000000E+00  0.00000000000E+00  0.98722331800E+02  0.98722331800E+02  0.00000000000E+00 0.  1.
         21   -1    0    0  502  503 -0.00000000000E+00 -0.00000000000E+00 -0.80999943135E+03  0.80999943135E+03  0.00000000000E+00 0.  1.
         -6    2    1    2    0  503  0.14595323418E+02 -0.25435952632E+02 -0.71410154394E+03  0.73487666292E+03  0.17100492246E+03 0.  0.
        -24    2    3    3    0    0  0.83399894358E+01 -0.63045965591E+02 -0.26246747540E+03  0.28161176892E+03  0.79822700706E+02 0.  0.
          6    2    1    2  501    0 -0.14595323418E+02  0.25435952632E+02  0.28244443883E+01  0.17384510022E+03  0.17133047083E+03 0.  0.
         24    2    5    5    0    0  0.44979810797E+02  0.35519181231E+02  0.36203740020E+02  0.10465597180E+03  0.79733092417E+02 0.  0.
          5    1    5    5  501    0 -0.59575134215E+02 -0.10083228599E+02 -0.33379295632E+02  0.69189128428E+02  0.47000000000E+01 0. -1.
        -11    1    6    6    0    0 -0.13990431622E+02  0.13093251131E+02 -0.14244199308E+02  0.23875984086E+02  0.00000000000E+00 0.  1.
         12    1    6    6    0    0  0.58970242419E+02  0.22425930099E+02  0.50447939328E+02  0.80779987709E+02  0.00000000000E+00 0. -1.
         -5    1    3    3    0  503  0.62553339818E+01  0.37610012959E+02 -0.45163406853E+03  0.45326489401E+03  0.47000000000E+01 0.  1.
         13    1    4    4    0    0  0.19746888199E+02  0.79705938582E+01 -0.22002242496E+02  0.30619742566E+02  0.00000000000E+00 0. -1.
        -14    1    4    4    0    0 -0.11406898763E+02 -0.71016559449E+02 -0.24046523291E+03  0.25099202635E+03  0.00000000000E+00 0.  1.
</event>
<event>
12    1  0.8407180E-002  0.2165963E+03  0.7818608E-02  0.1136602E+00
         21   -1    0    0  503  502  0.00000000000E+00  0.00000000000E+00  0.18701206654E+03  0.18701206654E+03  0.00000000000E+00 0.  1.
         21   -1    0    0  501  503 -0.00000000000E+00 -0.00000000000E+00 -0.35562168722E+03  0.35562168722E+03  0.00000000000E+00 0.  1.
          6    2    1    2  501    0  0.13069282027E+03  0.17432277616E+02  0.63730901007E+02  0.22499230245E+03  0.17080811119E+03 0.  0.
         24    2    3    3    0    0  0.10949867842E+03 -0.15623705675E+02  0.10233987436E+03  0.16972357257E+03  0.78093408461E+02 0.  0.
         -6    2    1    2    0  502 -0.13069282027E+03 -0.17432277616E+02 -0.23234052169E+03  0.31764145132E+03  0.17184142691E+03 0.  0.
        -24    2    5    5    0    0 -0.14570366068E+03 -0.26699461625E+02 -0.23756690988E+03  0.29865168663E+03  0.10398257194E+03 0.  0.
          5    1    3    3  501    0  0.21194141845E+02  0.33055983291E+02 -0.38608973354E+02  0.55268729887E+02  0.47000000000E+01 0. -1.
        -13    1    4    4    0    0  0.83416084187E+02  0.13852119238E+02  0.34567333516E+02  0.91351107573E+02  0.00000000000E+00 0.  1.
         14    1    4    4    0    0  0.26082594234E+02 -0.29475824913E+02  0.67772540846E+02  0.78372464992E+02  0.00000000000E+00 0. -1.
         -5    1    5    5    0  502  0.15010840415E+02  0.92671840098E+01  0.52263881908E+01  0.18989764690E+02  0.47000000000E+01 0.  1.
         13    1    6    6    0    0 -0.67350097001E+02  0.32093435927E+02 -0.59532692366E+02  0.95447187784E+02  0.00000000000E+00 0. -1.
        -14    1    6    6    0    0 -0.78353563680E+02 -0.58792897552E+02 -0.17803421751E+03  0.20320449884E+03  0.00000000000E+00 0.  1.
</event>
<event>
12    1  0.8407180E-002  0.1978656E+03  0.7818608E-02  0.1151613E+00
         21   -1    0    0  503  502  0.00000000000E+00  0.00000000000E+00  0.10113261769E+03  0.10113261769E+03  0.00000000000E+00 0. -1.
         21   -1    0    0  501  503 -0.00000000000E+00 -0.00000000000E+00 -0.61468294655E+03  0.61468294655E+03  0.00000000000E+00 0. -1.
          6    2    1    2  501    0  0.30674450121E+02  0.91931962532E+02 -0.47469217076E+03  0.51417046212E+03  0.17218071760E+03 0.  0.
         24    2    3    3    0    0  0.16717542842E+02  0.49331708709E+02 -0.10891450140E+03  0.14562606820E+03  0.81433957304E+02 0.  0.
         -6    2    1    2    0  502 -0.30674450121E+02 -0.91931962532E+02 -0.38858158101E+02  0.20164510211E+03  0.17250618288E+03 0.  0.
        -24    2    5    5    0    0 -0.59616322058E+02 -0.68196794667E+02  0.29973295851E+02  0.12315402493E+03  0.77869164200E+02 0.  0.
          5    1    3    3  501    0  0.13956907278E+02  0.42600253823E+02 -0.36577766937E+03  0.36854439392E+03  0.47000000000E+01 0. -1.
        -13    1    4    4    0    0 -0.14655841103E+02 -0.71256388695E+01  0.28472270127E+01  0.16543128767E+02  0.00000000000E+00 0.  1.
         14    1    4    4    0    0  0.31373383945E+02  0.56457347579E+02 -0.11176172841E+03  0.12908293943E+03  0.00000000000E+00 0. -1.
         -5    1    5    5    0  502  0.28941871938E+02 -0.23735167865E+02 -0.68831453952E+02  0.78491077187E+02  0.47000000000E+01 0.  1.
         13    1    6    6    0    0 -0.68091611080E+02 -0.72180541637E+02  0.83383863554E+01  0.99579248729E+02  0.00000000000E+00 0. -1.
        -14    1    6    6    0    0  0.84752890221E+01  0.39837469701E+01  0.21634909496E+02  0.23574776198E+02  0.00000000000E+00 0.  1.
</event>
<event>
12    1  0.8407180E-002  0.2034253E+03  0.7818608E-02  0.1148030E+00
         21   -1    0    0  501  502  0.00000000000E+00  0.00000000000E+00  0.58445409329E+03  0.58445409329E+03  0.00000000000E+00 0.  1.
         21   -1    0    0  502  503 -0.00000000000E+00 -0.00000000000E+00 -0.70029966341E+02  0.70029966341E+02  0.00000000000E+00 0.  1.
         -6    2    1    2    0  503 -0.10126020313E+03 -0.96217410947E+01  0.21230828257E+03  0.29026459779E+03  0.16980142297E+03 0.  0.
        -24    2    3    3    0    0  0.78784430268E+01  0.20932580830E+02  0.72111145393E+02  0.10992564485E+03  0.79896103171E+02 0.  0.
          6    2    1    2  501    0  0.10126020313E+03  0.96217410947E+01  0.30211584437E+03  0.36421946184E+03  0.17616931152E+03 0.  0.
         24    2    5    5    0    0  0.13842985651E+03 -0.84054506981E+01  0.26936430305E+03  0.31129199982E+03  0.71498983337E+02 0.  0.
          5    1    5    5  501    0 -0.37169653385E+02  0.18027191793E+02  0.32751541327E+02  0.52927462021E+02  0.47000000000E+01 0. -1.
        -13    1    6    6    0    0  0.68850814292E+02 -0.35620659211E+02  0.17117788847E+03  0.18791257407E+03  0.00000000000E+00 0.  1.
         14    1    6    6    0    0  0.69579042222E+02  0.27215208513E+02  0.98186414574E+02  0.12337942575E+03  0.00000000000E+00 0. -1.
         -5    1    3    3    0  503 -0.10913864616E+03 -0.30554321924E+02  0.14019713718E+03  0.18033895294E+03  0.47000000000E+01 0.  1.
         13    1    4    4    0    0 -0.13383382455E+02 -0.26706428630E+02  0.18582441598E+02  0.35180326772E+02  0.00000000000E+00 0. -1.
        -14    1    4    4    0    0  0.21261825481E+02  0.47639009459E+02  0.53528703795E+02  0.74745318081E+02  0.00000000000E+00 0.  1.
</event>
<event>
12    1  0.8407180E-002  0.2694995E+03  0.7818608E-02  0.1101874E+00
         21   -1    0    0  503  502  0.00000000000E+00  0.00000000000E+00  0.28159002823E+03  0.28159002823E+03  0.00000000000E+00 0.  1.
         21   -1    0    0  501  503 -0.00000000000E+00 -0.00000000000E+00 -0.25656327925E+03  0.25656327925E+03  0.00000000000E+00 0.  1.
          6    2    1    2  501    0 -0.17130125164E+03 -0.11431819367E+03  0.26255387735E+02  0.26865098152E+03  0.17050289225E+03 0.  0.
         24    2    3    3    0    0 -0.18573379902E+02 -0.26704599042E+02 -0.17561963140E+02  0.87146174395E+02  0.78917216825E+02 0.  0.
         -6    2    1    2    0  502  0.17130125164E+03  0.11431819367E+03 -0.12286387515E+01  0.26950232596E+03  0.17383102693E+03 0.  0.
        -24    2    5    5    0    0  0.16415031701E+03  0.12271057386E+03  0.35147399369E+02  0.23120253404E+03  0.10107452971E+03 0.  0.
          5    1    3    3  501    0 -0.15272787174E+03 -0.87613594633E+02  0.43817350874E+02  0.18150480712E+03  0.47000000000E+01 0. -1.
        -13    1    4    4    0    0 -0.22700760166E+01 -0.49013425469E+02  0.77494833128E+01  0.49674174506E+02  0.00000000000E+00 0.  1.
         14    1    4    4    0    0 -0.16303303885E+02  0.22308826427E+02 -0.25311446452E+02  0.37471999888E+02  0.00000000000E+00 0. -1.
         -5    1    5    5    0  502  0.71509346354E+01 -0.83923801845E+01 -0.36376038120E+02  0.38299791914E+02  0.47000000000E+01 0.  1.
         11    1    6    6    0    0  0.28428211941E+02  0.50122306398E+02 -0.28936345460E+02  0.64480391759E+02  0.00000000000E+00 0. -1.
        -12    1    6    6    0    0  0.13572210507E+03  0.72588267462E+02  0.64083744829E+02  0.16672214229E+03  0.00000000000E+00 0.  1.
</event>
<event>
12    1  0.8407180E-002  0.2273326E+03  0.7818608E-02  0.1129896E+00
         21   -1    0    0  501  502  0.00000000000E+00  0.00000000000E+00  0.19397064909E+03  0.19397064909E+03  0.00000000000E+00 0. -1.
         21   -1    0    0  502  503 -0.00000000000E+00 -0.00000000000E+00 -0.78915241234E+03  0.78915241234E+03  0.00000000000E+00 0. -1.
         -6    2    1    2    0  503 -0.10454319446E+03  0.10901594653E+03 -0.69933187350E+03  0.73306836346E+03  0.15971975492E+03 0.  0.
        -24    2    3    3    0    0 -0.47989716884E+02  0.34549711980E+01 -0.22743663339E+03  0.24619196952E+03  0.81043901044E+02 0.  0.
          6    2    1    2  501    0  0.10454319446E+03 -0.10901594653E+03  0.10415011024E+03  0.25005469797E+03  0.16990100180E+03 0.  0.
         24    2    5    5    0    0  0.11761882327E+03 -0.13569646687E+03  0.96813853902E+02  0.21909128583E+03  0.79877096285E+02 0.  0.
          5    1    5    5  501    0 -0.13075628816E+02  0.26680520341E+02  0.73362563408E+01  0.30963412145E+02  0.47000000000E+01 0. -1.
        -13    1    6    6    0    0  0.66246080138E+02 -0.73971219181E+02  0.96957944121E+02  0.13878446357E+03  0.00000000000E+00 0.  1.
         14    1    6    6    0    0  0.51372743134E+02 -0.61725247686E+02 -0.14409021971E+00  0.80306822257E+02  0.00000000000E+00 0. -1.
         -5    1    3    3    0  503 -0.56553477571E+02  0.10556097533E+03 -0.47189524011E+03  0.48687639394E+03  0.47000000000E+01 0.  1.
         13    1    4    4    0    0 -0.16432484349E+02  0.41192376828E+02 -0.12295471322E+03  0.13070845402E+03  0.00000000000E+00 0. -1.
        -14    1    4    4    0    0 -0.31557232536E+02 -0.37737405630E+02 -0.10448192017E+03  0.11548351550E+03  0.00000000000E+00 0.  1.
</event>
<event>
12    1  0.8407180E-002  0.1796918E+03  0.7818608E-02  0.1168725E+00
         21   -1    0    0  503  502  0.00000000000E+00  0.00000000000E+00  0.14333948386E+03  0.14333948386E+03  0.00000000000E+00 0.  1.
         21   -1    0    0  501  503 -0.00000000000E+00 -0.00000000000E+00 -0.22421695285E+03  0.22421695285E+03  0.00000000000E+00 0.  1.
          6    2    1    2  501    0  0.33635868519E+02  0.25998268291E+02 -0.58100381304E+02  0.18642686704E+03  0.17196523149E+03 0.  0.
         24    2    3    3    0    0  0.22714012295E+02  0.77488847785E+02 -0.11609313318E+02  0.11604166887E+03  0.82525419550E+02 0.  0.
         -6    2    1    2    0  502 -0.33635868519E+02 -0.25998268291E+02 -0.22777087686E+02  0.18112956967E+03  0.17459050283E+03 0.  0.
        -24    2    5    5    0    0  0.46596286230E+02 -0.10791704923E+02  0.69144106537E+01  0.94111678984E+02  0.80755954957E+02 0.  0.
          5    1    3    3  501    0  0.10921856225E+02 -0.51490579494E+02 -0.46491067986E+02  0.70385198178E+02  0.47000000000E+01 0. -1.
        -11    1    4    4    0    0  0.40868617235E+02  0.25629350035E+02  0.20485233230E+02  0.52409467069E+02  0.00000000000E+00 0.  1.
         12    1    4    4    0    0 -0.18154604941E+02  0.51859497750E+02 -0.32094546549E+02  0.63632201797E+02  0.00000000000E+00 0. -1.
         -5    1    5    5    0  502 -0.80232154749E+02 -0.15206563368E+02 -0.29691498340E+02  0.87017890682E+02  0.47000000000E+01 0.  1.
         13    1    6    6    0    0  0.59865414209E+02 -0.27409516139E+02  0.20401131882E+02  0.68930077437E+02  0.00000000000E+00 0. -1.
        -14    1    6    6    0    0 -0.13269127980E+02  0.16617811217E+02 -0.13486721228E+02  0.25181601547E+02  0.00000000000E+00 0.  1.
</event>
<event>
12    1  0.8407180E-002  0.3118270E+03  0.7818608E-02  0.1079571E+00
         21   -1    0    0  503  502  0.00000000000E+00  0.00000000000E+00  0.19405375512E+03  0.19405375512E+03  0.00000000000E+00 0.  1.
         21   -1    0    0  501  503 -0.00000000000E+00 -0.00000000000E+00 -0.66521539826E+03  0.66521539826E+03  0.00000000000E+00 0.  1.
          6    2    1    2  501    0  0.24423054136E+03  0.87770889312E+02 -0.21545393268E+02  0.31257040246E+03  0.17286921698E+03 0.  0.
         24    2    3    3    0    0  0.16451205895E+03  0.13005561665E+03 -0.18790958040E+02  0.22216735208E+03  0.70898175344E+02 0.  0.
         -6    2    1    2    0  502 -0.24423054136E+03 -0.87770889312E+02 -0.44961624986E+03  0.54669875092E+03  0.17138397177E+03 0.  0.
        -24    2    5    5    0    0 -0.12389350627E+03 -0.11492884072E+03 -0.25181008169E+03  0.31352944226E+03  0.79587402244E+02 0.  0.
          5    1    3    3  501    0  0.79718482410E+02 -0.42284727334E+02 -0.27544352282E+01  0.90403050373E+02  0.47000000000E+01 0. -1.
        -13    1    4    4    0    0  0.29627840813E+02  0.21887668506E+02 -0.31959386921E+02  0.48767626519E+02  0.00000000000E+00 0.  1.
         14    1    4    4    0    0  0.13488421813E+03  0.10816794814E+03  0.13168428881E+02  0.17339972556E+03  0.00000000000E+00 0. -1.
         -5    1    5    5    0  502 -0.12033703508E+03  0.27157951403E+02 -0.19780616818E+03  0.23316930867E+03  0.47000000000E+01 0.  1.
         11    1    6    6    0    0  0.78366614445E+00  0.10033032983E+02 -0.17204951236E+02  0.19932040299E+02  0.00000000000E+00 0. -1.
        -12    1    6    6    0    0 -0.12467717242E+03 -0.12496187370E+03 -0.23460513045E+03  0.29359740196E+03  0.00000000000E+00 0.  1.
</event>
<event>
12    1  0.8407180E-002  0.1798666E+03  0.7818608E-02  0.1168749E+00
         21   -1    0    0  501  502  0.00000000000E+00  0.00000000000E+00  0.37331962701E+02  0.37331962701E+02  0.00000000000E+00 0.  1.
         21   -1    0    0  502  503 -0.00000000000E+00 -0.00000000000E+00 -0.87210049471E+03  0.87210049471E+03  0.00000000000E+00 0.  1.
         -6    2    1    2    0  503 -0.43817518930E+02 -0.14968252437E+02 -0.49259919487E+03  0.52441012422E+03  0.17380445348E+03 0.  0.
        -24    2    3    3    0    0 -0.15172567078E+02  0.89866289569E+01 -0.47753612485E+03  0.48387180053E+03  0.76027643121E+02 0.  0.
          6    2    1    2  501    0  0.43817518930E+02  0.14968252437E+02 -0.34216933714E+03  0.38502233319E+03  0.17034763935E+03 0.  0.
         24    2    5    5    0    0  0.26574132087E+02  0.74905657025E+02 -0.19785649718E+03  0.22773879103E+03  0.80004509326E+02 0.  0.
          5    1    5    5  501    0  0.17243386843E+02 -0.59937404588E+02 -0.14431283995E+03  0.15728354216E+03  0.47000000000E+01 0. -1.
        -11    1    6    6    0    0 -0.17243087912E+02  0.29264763191E+02 -0.21068909735E+02  0.39970606735E+02  0.00000000000E+00 0.  1.
         12    1    6    6    0    0  0.43817219998E+02  0.45640893834E+02 -0.17678758745E+03  0.18776818430E+03  0.00000000000E+00 0. -1.
         -5    1    3    3    0  503 -0.28644951852E+02 -0.23954881393E+02 -0.15063070020E+02  0.40538323690E+02  0.47000000000E+01 0.  1.
         11    1    4    4    0    0 -0.45910843450E+02  0.74753412923E+00 -0.30275633240E+03  0.30621848599E+03  0.00000000000E+00 0. -1.
        -12    1    4    4    0    0  0.30738276372E+02  0.82390948277E+01 -0.17477979246E+03  0.17765331455E+03  0.00000000000E+00 0.  1.
</event>
<event>
12    1  0.8407180E-002  0.2538908E+03  0.7818608E-02  0.1110968E+00
         21   -1    0    0  503  502  0.00000000000E+00  0.00000000000E+00  0.31188460862E+03  0.31188460862E+03  0.00000000000E+00 0. -1.
         21   -1    0    0  501  503 -0.00000000000E+00 -0.00000000000E+00 -0.20630247612E+03  0.20630247612E+03  0.00000000000E+00 0. -1.
          6    2    1    2  501    0 -0.18527381506E+03 -0.43301799976E+01  0.59498994666E+02  0.26076936885E+03  0.17353788164E+03 0.  0.
         24    2    3    3    0    0 -0.12911181919E+03  0.47544516736E+01 -0.30386411367E+02  0.15428849485E+03  0.78671080963E+02 0.  0.
         -6    2    1    2    0  502  0.18527381506E+03  0.43301799976E+01  0.46083137828E+02  0.25741771589E+03  0.17261253679E+03 0.  0.
        -24    2    5    5    0    0  0.12217260129E+03 -0.17739684941E+02 -0.36307510492E+02  0.15121436826E+03  0.79414790323E+02 0.  0.
          5    1    3    3  501    0 -0.56161995861E+02 -0.90846316712E+01  0.89885406033E+02  0.10648087401E+03  0.47000000000E+01 0. -1.
        -13    1    4    4    0    0 -0.94569998918E+02 -0.21501151331E+02  0.66943438700E+01  0.97214188490E+02  0.00000000000E+00 0.  1.
         14    1    4    4    0    0 -0.34541820277E+02  0.26255603005E+02 -0.37080755237E+02  0.57074306357E+02  0.00000000000E+00 0. -1.
         -5    1    5    5    0  502  0.63101213768E+02  0.22069864938E+02  0.82390648320E+02  0.10620334763E+03  0.47000000000E+01 0.  1.
         11    1    6    6    0    0 -0.49654022603E+01 -0.18491912344E+02 -0.90824256725E+01  0.21191896985E+02  0.00000000000E+00 0. -1.
        -12    1    6    6    0    0  0.12713800355E+03  0.75222740311E+00 -0.27225084819E+02  0.13002247127E+03  0.00000000000E+00 0.  1.
</event>
<event>
12    1  0.8407180E-002  0.1928705E+03  0.7818608E-02  0.1156707E+00
         21   -1    0    0  501  502  0.00000000000E+00  0.00000000000E+00  0.52197838623E+03  0.52197838623E+03  0.00000000000E+00 0.  1.
         21   -1    0    0  502  503 -0.00000000000E+00 -0.00000000000E+00 -0.16813514366E+03  0.16813514366E+03  0.00000000000E+00 0.  1.
         -6    2    1    2    0  503 -0.12482431319E+02 -0.85185684055E+02 -0.86082840278E+02  0.21120913252E+03  0.17258803669E+03 0.  0.
        -24    2    3    3    0    0 -0.68804800876E+02 -0.20867552620E+02 -0.40653670732E+02  0.11428168135E+03  0.78981177331E+02 0.  0.
          6    2    1    2  501    0  0.12482431319E+02  0.85185684055E+02  0.43992608285E+03  0.47890439737E+03  0.16852908233E+03 0.  0.
         24    2    5    5    0    0  0.24628977123E+02 -0.17467767918E+02  0.22412123613E+03  0.23957389024E+03  0.79079775983E+02 0.  0.
          5    1    5    5  501    0 -0.12146545804E+02  0.10265345197E+03  0.21580484672E+03  0.23933050713E+03  0.47000000000E+01 0. -1.
        -11    1    6    6    0    0  0.52822659517E+02 -0.54255180014E+01  0.15816244076E+03  0.16683832675E+03  0.00000000000E+00 0.  1.
         12    1    6    6    0    0 -0.28193682394E+02 -0.12042249916E+02  0.65958795366E+02  0.72735563489E+02  0.00000000000E+00 0. -1.
         -5    1    3    3    0  503  0.56322369557E+02 -0.64318131435E+02 -0.45429169546E+02  0.96927451166E+02  0.47000000000E+01 0.  1.
         13    1    4    4    0    0 -0.49247105048E+02  0.22521852991E+02 -0.38862662613E+02  0.66654465440E+02  0.00000000000E+00 0. -1.
        -14    1    4    4    0    0 -0.19557695828E+02 -0.43389405611E+02 -0.17910081190E+01  0.47627215911E+02  0.00000000000E+00 0.  1.
</event>
<event>
12    1  0.8407180E-002  0.1873012E+03  0.7818608E-02  0.1161107E+00
         21   -1    0    0  503  502  0.00000000000E+00  0.00000000000E+00  0.39741443571E+03  0.39741443571E+03  0.00000000000E+00 0. -1.
         21   -1    0    0  501  503 -0.00000000000E+00 -0.00000000000E+00 -0.19271480994E+03  0.19271480994E+03  0.00000000000E+00 0.  1.
          6    2    1    2  501    0 -0.19438594732E+02 -0.70537889566E+02 -0.11516520935E+03  0.21987443438E+03  0.17241893348E+03 0.  0.
         24    2    3    3    0    0  0.29568515021E+02  0.13920077467E+02 -0.79553055944E+02  0.11583040297E+03  0.77588194372E+02 0.  0.
         -6    2    1    2    0  502  0.19438594732E+02  0.70537889566E+02  0.31986483512E+03  0.37025481126E+03  0.17152743128E+03 0.  0.
        -24    2    5    5    0    0  0.54479215183E+02  0.86282695192E+02  0.18321245789E+03  0.22822767938E+03  0.90046546479E+02 0.  0.
          5    1    3    3  501    0 -0.49007109753E+02 -0.84457967033E+02 -0.35612153408E+02  0.10404403141E+03  0.47000000000E+01 0. -1.
        -11    1    4    4    0    0  0.21509490984E+02  0.98643084261E+01 -0.95021205074E+02  0.97923399639E+02  0.00000000000E+00 0.  1.
         12    1    4    4    0    0  0.80590240366E+01  0.40557690411E+01  0.15468149130E+02  0.17907003335E+02  0.00000000000E+00 0. -1.
         -5    1    5    5    0  502 -0.35040620451E+02 -0.15744805626E+02  0.13665237724E+03  0.14202713188E+03  0.47000000000E+01 0.  1.
         13    1    6    6    0    0  0.19236690329E+02  0.91771736360E+02  0.16068309836E+03  0.18604074809E+03  0.00000000000E+00 0. -1.
        -14    1    6    6    0    0  0.35242524855E+02 -0.54890411685E+01  0.22529359520E+02  0.42186931288E+02  0.00000000000E+00 0.  1.
</event>
<event>
12    1  0.8407180E-002  0.1964564E+03  0.7818608E-02  0.1152919E+00
         21   -1    0    0  503  502  0.00000000000E+00  0.00000000000E+00  0.13345216367E+03  0.13345216367E+03  0.00000000000E+00 0. -1.
         21   -1    0    0  501  503 -0.00000000000E+00 -0.00000000000E+00 -0.36144824726E+03  0.36144824726E+03  0.00000000000E+00 0. -1.
          6    2    1    2  501    0  0.92075375693E+02  0.25327988737E+02 -0.22559808822E+03  0.29914811918E+03  0.17168493813E+03 0.  0.
         24    2    3    3    0    0  0.62985385973E+02  0.50244632518E+02 -0.57966439104E+02  0.12713205475E+03  0.79440350826E+02 0.  0.
         -6    2    1    2    0  502 -0.92075375693E+02 -0.25327988737E+02 -0.23979953655E+01  0.19575229175E+03  0.17086201310E+03 0.  0.
        -24    2    5    5    0    0 -0.94359645721E+02 -0.26017376646E+02  0.55433088664E+02  0.13768149508E+03  0.79389672762E+02 0.  0.
          5    1    3    3  501    0  0.29089989720E+02 -0.24916643781E+02 -0.16763164911E+03  0.17201606443E+03  0.47000000000E+01 0. -1.
        -13    1    4    4    0    0  0.41625655645E+02 -0.14755464629E+02 -0.16605552609E+02  0.47182235235E+02  0.00000000000E+00 0.  1.
         14    1    4    4    0    0  0.21359730327E+02  0.65000097147E+02 -0.41360886495E+02  0.79949819514E+02  0.00000000000E+00 0. -1.
         -5    1    5    5    0  502  0.22842700279E+01  0.68938790868E+00 -0.57831084029E+02  0.58070796664E+02  0.47000000000E+01 0.  1.
         11    1    6    6    0    0 -0.84963508742E+02 -0.24784881900E+02  0.75015059396E+01  0.88822073720E+02  0.00000000000E+00 0. -1.
        -12    1    6    6    0    0 -0.93961369786E+01 -0.12324947461E+01  0.47931582724E+02  0.48859421362E+02  0.00000000000E+00 0.  1.
</event>
<event>
12    1  0.8407180E-002  0.2123532E+03  0.7818608E-02  0.1139962E+00
         21   -1    0    0  501  502  0.00000000000E+00  0.00000000000E+00  0.47561550536E+03  0.47561550536E+03  0.00000000000E+00 0. -1.
         21   -1    0    0  502  503 -0.00000000000E+00 -0.00000000000E+00 -0.15086696243E+03  0.15086696243E+03  0.00000000000E+00 0. -1.
         -6    2    1    2    0  503 -0.12141144083E+03 -0.17663147819E+02 -0.29817255464E+02  0.21318986096E+03  0.17177928669E+03 0.  0.
        -24    2    3    3    0    0 -0.34762424535E+02  0.42862960598E+02 -0.42421279721E+02  0.10664215684E+03  0.80791862779E+02 0.  0.
          6    2    1    2  501    0  0.12141144083E+03  0.17663147819E+02  0.35456579839E+03  0.41329260683E+03  0.17332382617E+03 0.  0.
         24    2    5    5    0    0  0.10888313306E+02 -0.83399628557E+01  0.69499076833E+02  0.10641046460E+03  0.79403746435E+02 0.  0.
          5    1    5    5  501    0  0.11052312753E+03  0.26003110674E+02  0.28506672156E+03  0.30688214223E+03  0.47000000000E+01 0. -1.
        -11    1    6    6    0    0  0.39293796846E+02  0.80870869602E+01  0.60132521038E+02  0.72286399360E+02  0.00000000000E+00 0.  1.
         12    1    6    6    0    0 -0.28405483540E+02 -0.16427049816E+02  0.93665557957E+01  0.34124065237E+02  0.00000000000E+00 0. -1.
         -5    1    3    3    0  503 -0.86649016298E+02 -0.60526108417E+02  0.12604024257E+02  0.10654770412E+03  0.47000000000E+01 0.  1.
         13    1    4    4    0    0 -0.67090067923E+01  0.18530338728E+02 -0.61720782909E+02  0.64790734433E+02  0.00000000000E+00 0. -1.
        -14    1    4    4    0    0 -0.28053417742E+02  0.24332621870E+02  0.19299503187E+02  0.41851422406E+02  0.00000000000E+00 0.  1.
</event>
<event>
12    1  0.8407180E-002  0.2533551E+03  0.7818608E-02  0.1111642E+00
         21   -1    0    0  503  502  0.00000000000E+00  0.00000000000E+00  0.49038507619E+03  0.49038507619E+03  0.00000000000E+00 0. -1.
         21   -1    0    0  501  503 -0.00000000000E+00 -0.00000000000E+00 -0.15453189573E+03  0.15453189573E+03  0.00000000000E+00 0.  1.
          6    2    1    2  501    0 -0.15489594304E+03 -0.10275221315E+03  0.29705947250E+03  0.38860900708E+03  0.16799362995E+03 0.  0.
         24    2    3    3    0    0 -0.11797974833E+03 -0.10083416363E+03  0.13426386778E+03  0.22160306927E+03  0.83632437192E+02 0.  0.
         -6    2    1    2    0  502  0.15489594304E+03  0.10275221315E+03  0.38793707959E+02  0.25630796484E+03  0.17215705209E+03 0.  0.
        -24    2    5    5    0    0  0.89988631736E+01  0.21925718874E+02  0.36427153242E+02  0.89435047106E+02  0.78166319288E+02 0.  0.
          5    1    3    3  501    0 -0.36916194716E+02 -0.19180495242E+01  0.16279560472E+03  0.16700593781E+03  0.47000000000E+01 0. -1.
        -13    1    4    4    0    0 -0.11748118930E+03 -0.72399139602E+02  0.13514250955E+03  0.19315010521E+03  0.00000000000E+00 0.  1.
         14    1    4    4    0    0 -0.49855902262E+00 -0.28435024028E+02 -0.87864177287E+00  0.28452964063E+02  0.00000000000E+00 0. -1.
         -5    1    5    5    0  502  0.14589707987E+03  0.80826494280E+02  0.23665547176E+01  0.16687291773E+03  0.47000000000E+01 0.  1.
         11    1    6    6    0    0 -0.31609793541E+02  0.25902288125E+02  0.18947295984E+02  0.45045616912E+02  0.00000000000E+00 0. -1.
        -12    1    6    6    0    0  0.40608656715E+02 -0.39765692511E+01  0.17479857257E+02  0.44389430194E+02  0.00000000000E+00 0.  1.
</event>
<event>
12    1  0.8407180E-002  0.1756992E+03  0.7818608E-02  0.1172084E+00
         21   -1    0    0  503  502  0.00000000000E+00  0.00000000000E+00  0.30695831103E+03  0.30695831103E+03  0.00000000000E+00 0. -1.
         21   -1    0    0  501  503 -0.00000000000E+00 -0.00000000000E+00 -0.19317124153E+03  0.19317124153E+03  0.00000000000E+00 0. -1.
          6    2    1    2  501    0 -0.17648015007E+01  0.40465871546E+02 -0.11637542083E+03  0.21056958623E+03  0.17075043423E+03 0.  0.
         24    2    3    3    0    0 -0.97874885410E+01 -0.40100907386E+02 -0.36155848765E+02  0.96496630994E+02  0.79375542128E+02 0.  0.
         -6    2    1    2    0  502  0.17648015007E+01 -0.40465871546E+02  0.23016249033E+03  0.28955996632E+03  0.17096666593E+03 0.  0.
        -24    2    5    5    0    0  0.77944376855E+01  0.36507424026E+02  0.16980599477E+03  0.19144655593E+03  0.80150874281E+02 0.  0.
          5    1    3    3  501    0  0.80226870404E+01  0.80566778932E+02 -0.80219572066E+02  0.11407295524E+03  0.47000000000E+01 0. -1.
        -11    1    4    4    0    0  0.34521566305E+02 -0.24993584631E+02 -0.18557228464E+02  0.46484282732E+02  0.00000000000E+00 0.  1.
         12    1    4    4    0    0 -0.44309054846E+02 -0.15107322755E+02 -0.17598620301E+02  0.50012348262E+02  0.00000000000E+00 0. -1.
         -5    1    5    5    0  502 -0.60296361849E+01 -0.76973295572E+02  0.60356495552E+02  0.98113410394E+02  0.47000000000E+01 0.  1.
         13    1    6    6    0    0  0.13947315851E+02 -0.17138043481E+02  0.10400484187E+03  0.10632613642E+03  0.00000000000E+00 0. -1.
        -14    1    6    6    0    0 -0.61528781650E+01  0.53645467507E+02  0.65801152905E+02  0.85120419509E+02  0.00000000000E+00 0.  1.
</event>
<event>
12    1  0.8407180E-002  0.1957743E+03  0.7818608E-02  0.1155073E+00
         21   -1    0    0  501  502  0.00000000000E+00  0.00000000000E+00  0.97930017682E+03  0.97930017682E+03  0.00000000000E+00 0.  1.
         21   -1    0    0  502  503 -0.00000000000E+00 -0.00000000000E+00 -0.66458968179E+02  0.66458968179E+02  0.00000000000E+00 0.  1.
         -6    2    1    2    0  503  0.87508447356E+02  0.10633637640E+02  0.10669892395E+03  0.21618518048E+03  0.16607398736E+03 0.  0.
        -24    2    3    3    0    0  0.18527293301E+01 -0.22580984274E+02  0.90036394746E+02  0.12269805292E+03  0.80217992712E+02 0.  0.
          6    2    1    2  501    0 -0.87508447356E+02 -0.10633637640E+02  0.80614228470E+03  0.82957396453E+03  0.17480496800E+03 0.  0.
         24    2    5    5    0    0 -0.11076441387E+03  0.36442962631E+02  0.45738318470E+03  0.47685304637E+03  0.67768763344E+02 0.  0.
          5    1    5    5  501    0  0.23255966512E+02 -0.47076600271E+02  0.34875910000E+03  0.35272091816E+03  0.47000000000E+01 0. -1.
        -13    1    6    6    0    0 -0.11137646483E+03  0.22984972408E+02  0.44204163983E+03  0.45643601656E+03  0.00000000000E+00 0.  1.
         14    1    6    6    0    0  0.61205095895E+00  0.13457990223E+02  0.15341544868E+02  0.20417029808E+02  0.00000000000E+00 0. -1.
         -5    1    3    3    0  503  0.85655718026E+02  0.33214621914E+02  0.16662529202E+02  0.93487127557E+02  0.47000000000E+01 0.  1.
         11    1    4    4    0    0  0.20969112090E+02 -0.47304843059E+02  0.50517912178E+02  0.72315359983E+02  0.00000000000E+00 0. -1.
        -12    1    4    4    0    0 -0.19116382760E+02  0.24723858785E+02  0.39518482569E+02  0.50382692937E+02  0.00000000000E+00 0.  1.
</event>
<event>
12    1  0.8407180E-002  0.2198238E+03  0.7818608E-02  0.1134140E+00
         21   -1    0    0  503  502  0.00000000000E+00  0.00000000000E+00  0.95411230939E+03  0.95411230939E+03  0.00000000000E+00 0.  1.
         21   -1    0    0  501  503 -0.00000000000E+00 -0.00000000000E+00 -0.23530179815E+03  0.23530179815E+03  0.00000000000E+00 0. -1.
          6    2    1    2  501    0  0.73661138677E+02  0.11579938925E+03 -0.16752770264E+03  0.27638383435E+03  0.17171788152E+03 0.  0.
         24    2    3    3    0    0  0.41449857011E+02  0.20779900212E+02 -0.14282774351E+02  0.93156194481E+02  0.79524738465E+02 0.  0.
         -6    2    1    2    0  502 -0.73661138677E+02 -0.11579938925E+03  0.88633821388E+03  0.91303027319E+03  0.17086072834E+03 0.  0.
        -24    2    5    5    0    0 -0.67539965758E+01 -0.47488253104E+02  0.22153980541E+03  0.24137411794E+03  0.82950761172E+02 0.  0.
          5    1    3    3  501    0  0.32211281666E+02  0.95019489039E+02 -0.15324492829E+03  0.18322763986E+03  0.47000000000E+01 0. -1.
        -13    1    4    4    0    0 -0.18659600642E+02 -0.19172135858E+01 -0.21462613591E+02  0.28504388894E+02  0.00000000000E+00 0.  1.
         14    1    4    4    0    0  0.60109457653E+02  0.22697113798E+02  0.71798392400E+01  0.64651805587E+02  0.00000000000E+00 0. -1.
         -5    1    5    5    0  502 -0.66907142101E+02 -0.68311136147E+02  0.66479840847E+03  0.67165615525E+03  0.47000000000E+01 0.  1.
         13    1    6    6    0    0 -0.93566701195E+00 -0.24274743272E+01 -0.74651610028E+01  0.79054875349E+01  0.00000000000E+00 0. -1.
        -14    1    6    6    0    0 -0.58183295638E+01 -0.45060778777E+02  0.22900496641E+03  0.23346863041E+03  0.00000000000E+00 0.  1.
</event>
<event>
12    1  0.8407180E-002  0.2128874E+03  0.7818608E-02  0.1139911E+00
         21   -1    0    0  503  502  0.00000000000E+00  0.00000000000E+00  0.75715341781E+03  0.75715341781E+03  0.00000000000E+00 0.  1.
         21   -1    0    0  501  503 -0.00000000000E+00 -0.00000000000E+00 -0.67391409859E+02  0.67391409859E+02  0.00000000000E+00 0.  1.
          6    2    1    2  501    0  0.19964531486E+02  0.12297977356E+03  0.19704307890E+03  0.28780188709E+03  0.16876416694E+03 0.  0.
         24    2    3    3    0    0  0.45047001397E+02  0.11205234110E+03  0.21218813700E+03  0.25617908105E+03  0.77581934774E+02 0.  0.
         -6    2    1    2    0  502 -0.19964531486E+02 -0.12297977356E+03  0.49271892905E+03  0.53674294058E+03  0.17262222917E+03 0.  0.
        -24    2    5    5    0    0 -0.36927786796E+02 -0.53801675711E+02  0.42852449752E+03  0.44074098075E+03  0.79756412853E+02 0.  0.
          5    1    3    3  501    0 -0.25082469911E+02  0.10927432459E+02 -0.15145058095E+02  0.31622806037E+02  0.47000000000E+01 0. -1.
        -13    1    4    4    0    0  0.59534791677E+02  0.10986007376E+03  0.16632921016E+03  0.20803613479E+03  0.00000000000E+00 0.  1.
         14    1    4    4    0    0 -0.14487790280E+02  0.21922673360E+01  0.45858926842E+02  0.48142946258E+02  0.00000000000E+00 0. -1.
         -5    1    5    5    0  502  0.16963255310E+02 -0.69178097848E+02  0.64194431525E+02  0.96001959831E+02  0.47000000000E+01 0.  1.
         13    1    6    6    0    0  0.19213429224E+02 -0.34678863147E+02  0.23538627025E+03  0.23870164565E+03  0.00000000000E+00 0. -1.
        -14    1    6    6    0    0 -0.56141216020E+02 -0.19122812564E+02  0.19313822727E+03  0.20203933510E+03  0.00000000000E+00 0.  1.
</event>
<event>
12    1  0.8407180E-002  0.1878275E+03  0.7818608E-02  0.1161235E+00
         21   -1    0    0  503  502  0.00000000000E+00  0.00000000000E+00  0.14980609025E+04  0.14980609025E+04  0.00000000000E+00 0. -1.
         21   -1    0    0  501  503 -0.00000000000E+00 -0.00000000000E+00 -0.82421928397E+02  0.82421928397E+02  0.00000000000E+00 0. -1.
          6    2    1    2  501    0  0.61947505031E+02 -0.21204762072E+02  0.35669182181E+02  0.18778911366E+03  0.17235232908E+03 0.  0.
         24    2    3    3    0    0  0.67075318783E+02 -0.76337186274E+02  0.27184086083E+02  0.13157554299E+03  0.79035970152E+02 0.  0.
         -6    2    1    2    0  502 -0.61947505031E+02  0.21204762072E+02  0.13799697919E+04  0.13926937172E+04  0.17604552848E+03 0.  0.
        -24    2    5    5    0    0 -0.21126521052E+02 -0.90940682563E+01  0.29574507451E+03  0.30726767199E+03  0.80120167148E+02 0.  0.
          5    1    3    3  501    0 -0.51278137516E+01  0.55132424202E+02  0.84850960977E+01  0.56213570676E+02  0.47000000000E+01 0. -1.
        -13    1    4    4    0    0  0.32767580076E+02 -0.15906408981E+02  0.46861868284E+02  0.59352867241E+02  0.00000000000E+00 0.  1.
         14    1    4    4    0    0  0.34307738707E+02 -0.60430777293E+02 -0.19677782201E+02  0.72222675745E+02  0.00000000000E+00 0. -1.
         -5    1    5    5    0  502 -0.40820983979E+02  0.30298830328E+02  0.10842247174E+04  0.10854260452E+04  0.47000000000E+01 0.  1.
         13    1    6    6    0    0 -0.11699682777E+02 -0.44244202023E+02  0.19006063345E+03  0.19549290620E+03  0.00000000000E+00 0. -1.
        -14    1    6    6    0    0 -0.94268382751E+01  0.35150133767E+02  0.10568444106E+03  0.11177476579E+03  0.00000000000E+00 0.  1.
</event>
<event>
12    1  0.8407180E-002  0.1832421E+03  0.7818608E-02  0.1165374E+00
         21   -1    0    0  503  502  0.00000000000E+00  0.00000000000E+00  0.16344594279E+03  0.16344594279E+03  0.00000000000E+00 0.  1.
         21   -1    0    0  501  503 -0.00000000000E+00 -0.00000000000E+00 -0.20887583609E+03  0.20887583609E+03  0.00000000000E+00 0.  1.
          6    2    1    2  501    0 -0.39102650271E+02  0.41888984576E+02 -0.55955337663E+02  0.19159507289E+03  0.17405162411E+03 0.  0.
         24    2    3    3    0    0  0.22559740480E+02  0.59551630601E+02 -0.74032641995E+02  0.12478864782E+03  0.77691929744E+02 0.  0.
         -6    2    1    2    0  502  0.39102650271E+02 -0.41888984576E+02  0.10525444363E+02  0.18072670600E+03  0.17107791499E+03 0.  0.
        -24    2    5    5    0    0  0.81867320910E+02  0.82083271505E+01  0.17724979302E+01  0.11411393119E+03  0.79051961864E+02 0.  0.
          5    1    3    3  501    0 -0.61662390750E+02 -0.17662646025E+02  0.18077304332E+02  0.66806425062E+02  0.47000000000E+01 0. -1.
        -13    1    4    4    0    0  0.25777958938E+02  0.66998366022E+02 -0.26426169713E+02  0.76495925789E+02  0.00000000000E+00 0.  1.
         14    1    4    4    0    0 -0.32182184580E+01 -0.74467354207E+01 -0.47606472282E+02  0.48292722036E+02  0.00000000000E+00 0. -1.
         -5    1    5    5    0  502 -0.42764670639E+02 -0.50097311726E+02  0.87529464326E+01  0.66612774813E+02  0.47000000000E+01 0.  1.
         13    1    6    6    0    0  0.77097958494E+02 -0.24203558248E+02 -0.37312063268E+01  0.80893938812E+02  0.00000000000E+00 0. -1.
        -14    1    6    6    0    0  0.47693624161E+01  0.32411885398E+02  0.55037042570E+01  0.33219992376E+02  0.00000000000E+00 0.  1.
</event>
<event>
12    1  0.8407180E-002  0.1738382E+03  0.7818608E-02  0.1174262E+00
         21   -1    0    0  501  502  0.00000000000E+00  0.00000000000E+00  0.22697771198E+03  0.22697771198E+03  0.00000000000E+00 0. -1.
         21   -1    0    0  502  503 -0.00000000000E+00 -0.00000000000E+00 -0.13545525950E+03  0.13545525950E+03  0.00000000000E+00 0. -1.
         -6    2    1    2    0  503  0.21882739416E+01 -0.80179733617E+01  0.74621272290E+02  0.18917731482E+03  0.17363941294E+03 0.  0.
        -24    2    3    3    0    0 -0.18814073382E+02 -0.59074993119E+02  0.91893467715E+02  0.13113994243E+03  0.70067474063E+02 0.  0.
          6    2    1    2  501    0 -0.21882739416E+01  0.80179733617E+01  0.16901180184E+02  0.17325565666E+03  0.17222890650E+03 0.  0.
         24    2    5    5    0    0 -0.35380101468E+02  0.51785689403E+02  0.47577813795E+02  0.11016479970E+03  0.77065722085E+02 0.  0.
          5    1    5    5  501    0  0.33191827527E+02 -0.43767716041E+02 -0.30676633611E+02  0.63090856958E+02  0.47000000000E+01 0. -1.
        -13    1    6    6    0    0 -0.46300218109E+02  0.64440832094E+02  0.27364364157E+02  0.83935329056E+02  0.00000000000E+00 0.  1.
         14    1    6    6    0    0  0.10920116641E+02 -0.12655142692E+02  0.20213449638E+02  0.26229470644E+02  0.00000000000E+00 0. -1.
         -5    1    3    3    0  503  0.21002347323E+02  0.51057019757E+02 -0.17272195425E+02  0.58037372394E+02  0.47000000000E+01 0.  1.
         11    1    4    4    0    0 -0.39082379445E+02 -0.98838812125E+01  0.37649988935E+02  0.55160177282E+02  0.00000000000E+00 0. -1.
        -12    1    4    4    0    0  0.20268306063E+02 -0.49191111907E+02  0.54243478780E+02  0.75979765145E+02  0.00000000000E+00 0.  1.
</event>
<event>
12    1  0.8407180E-002  0.2576487E+03  0.7818608E-02  0.1108865E+00
         21   -1    0    0  501  502  0.00000000000E+00  0.00000000000E+00  0.29033431506E+03  0.29033431506E+03  0.00000000000E+00 0. -1.
         21   -1    0    0  502  503 -0.00000000000E+00 -0.00000000000E+00 -0.23113599219E+03  0.23113599219E+03  0.00000000000E+00 0.  1.
         -6    2    1    2    0  503 -0.41371101223E+02  0.18696726525E+03 -0.58223221204E+01  0.25574386791E+03  0.16941871280E+03 0.  0.
        -24    2    3    3    0    0 -0.20665973614E+02  0.13386330135E+03  0.60785751837E+02  0.16795173382E+03  0.78526500962E+02 0.  0.
          6    2    1    2  501    0  0.41371101223E+02 -0.18696726525E+03  0.65020644988E+02  0.26572643934E+03  0.17237903004E+03 0.  0.
         24    2    5    5    0    0  0.65612351040E+02 -0.11067957023E+03  0.97706457880E+02  0.17913600702E+03  0.77383520369E+02 0.  0.
          5    1    5    5  501    0 -0.24241249818E+02 -0.76287695028E+02 -0.32685812891E+02  0.86590432322E+02  0.47000000000E+01 0. -1.
        -11    1    6    6    0    0  0.42979218944E+02 -0.35016947472E+02  0.25791068107E+01  0.55498213153E+02  0.00000000000E+00 0.  1.
         12    1    6    6    0    0  0.22633132097E+02 -0.75662622755E+02  0.95127351069E+02  0.12363779387E+03  0.00000000000E+00 0. -1.
         -5    1    3    3    0  503 -0.20705127609E+02  0.53103963907E+02 -0.66608073957E+02  0.87792134091E+02  0.47000000000E+01 0.  1.
         11    1    4    4    0    0 -0.24314130819E+02  0.13397867480E+03  0.33240346526E+02  0.14016555532E+03  0.00000000000E+00 0. -1.
        -12    1    4    4    0    0  0.36481572058E+01 -0.11537345776E+00  0.27545405310E+02  0.27786178502E+02  0.00000000000E+00 0.  1.
</event>
<event>
12    1  0.8407180E-002  0.1920386E+03  0.7818608E-02  0.1157849E+00
         21   -1    0    0  501  502  0.00000000000E+00  0.00000000000E+00  0.60909693217E+02  0.60909693217E+02  0.00000000000E+00 0.  1.
         21   -1    0    0  502  503 -0.00000000000E+00 -0.00000000000E+00 -0.10420993841E+04  0.10420993841E+04  0.00000000000E+00 0. -1.
         -6    2    1    2    0  503  0.26629910763E+02  0.78124938492E+02 -0.85830422611E+03  0.87952541266E+03  0.17339593069E+03 0.  0.
        -24    2    3    3    0    0  0.12833389186E+02  0.13651980140E+02 -0.73459369629E+03  0.73926318839E+03  0.80815163440E+02 0.  0.
          6    2    1    2  501    0 -0.26629910763E+02 -0.78124938492E+02 -0.12288546477E+03  0.22348366467E+03  0.16742596202E+03 0.  0.
         24    2    5    5    0    0  0.32709941094E+02 -0.61370056553E+02 -0.12220371626E+03  0.16164113183E+03  0.79736335150E+02 0.  0.
          5    1    5    5  501    0 -0.59339851857E+02 -0.16754881940E+02 -0.68174851790E+00  0.61842532842E+02  0.47000000000E+01 0. -1.
        -13    1    6    6    0    0  0.20743346270E+02 -0.48088652260E+02 -0.17196209467E+02  0.55122722272E+02  0.00000000000E+00 0.  1.
         14    1    6    6    0    0  0.11966594825E+02 -0.13281404293E+02 -0.10500750679E+03  0.10651840955E+03  0.00000000000E+00 0. -1.
         -5    1    3    3    0  503  0.13796521577E+02  0.64472958353E+02 -0.12371052983E+03  0.14026222427E+03  0.47000000000E+01 0.  1.
         11    1    4    4    0    0 -0.20652912481E+02  0.32786689242E+02 -0.50202828314E+03  0.50352150585E+03  0.00000000000E+00 0. -1.
        -12    1    4    4    0    0  0.33486301667E+02 -0.19134709102E+02 -0.23256541315E+03  0.23574168254E+03  0.00000000000E+00 0.  1.
</event>
<event>
12    1  0.8407180E-002  0.2177077E+03  0.7818608E-02  0.1135748E+00
         21   -1    0    0  501  502  0.00000000000E+00  0.00000000000E+00  0.34443959218E+03  0.34443959218E+03  0.00000000000E+00 0. -1.
         21   -1    0    0  502  503 -0.00000000000E+00 -0.00000000000E+00 -0.15873300302E+03  0.15873300302E+03  0.00000000000E+00 0.  1.
         -6    2    1    2    0  503 -0.87854317439E+02 -0.10006688586E+03 -0.11742208100E+00  0.21694329666E+03  0.17126767774E+03 0.  0.
        -24    2    3    3    0    0 -0.45250988045E+02 -0.12998561644E+03 -0.20830485272E+02  0.16071790113E+03  0.80326970728E+02 0.  0.
          6    2    1    2  501    0  0.87854317439E+02  0.10006688586E+03  0.18582401124E+03  0.28622929854E+03  0.17223497162E+03 0.  0.
         24    2    5    5    0    0  0.49935029495E+02  0.33180859805E+02  0.18483189781E+03  0.20919237772E+03  0.77486410546E+02 0.  0.
          5    1    5    5  501    0  0.37919287944E+02  0.66886026054E+02  0.99211342481E+00  0.77036920814E+02  0.47000000000E+01 0. -1.
        -11    1    6    6    0    0 -0.20086586853E+02  0.16046768484E+02  0.43230582863E+02  0.50297644526E+02  0.00000000000E+00 0.  1.
         12    1    6    6    0    0  0.70021616349E+02  0.17134091321E+02  0.14160131495E+03  0.15889473320E+03  0.00000000000E+00 0. -1.
         -5    1    3    3    0  503 -0.42603329394E+02  0.29918730586E+02  0.20713063191E+02  0.56225395526E+02  0.47000000000E+01 0.  1.
         13    1    4    4    0    0 -0.25493996258E+02 -0.20066553248E+02  0.24020031201E+02  0.40367961348E+02  0.00000000000E+00 0. -1.
        -14    1    4    4    0    0 -0.19756991787E+02 -0.10991906320E+03 -0.44850516473E+02  0.12034993979E+03  0.00000000000E+00 0.  1.
</event>
<event>
12    1  0.8407180E-002  0.2604529E+03  0.7818608E-02  0.1107082E+00
         21   -1    0    0  501  502  0.00000000000E+00  0.00000000000E+00  0.36518442715E+03  0.36518442715E+03  0.00000000000E+00 0.  1.
         21   -1    0    0  502  503 -0.00000000000E+00 -0.00000000000E+00 -0.44351140210E+03  0.44351140210E+03  0.00000000000E+00 0.  1.
         -6    2    1    2    0  503 -0.19259270076E+03  0.23339979140E+02 -0.34805501132E+03  0.43471597944E+03  0.17377856272E+03 0.  0.
        -24    2    3    3    0    0 -0.11145381529E+03  0.59988154534E+02 -0.29557280380E+03  0.33126029036E+03  0.79684164045E+02 0.  0.
          6    2    1    2  501    0  0.19259270076E+03 -0.23339979140E+02  0.26972803637E+03  0.37397984981E+03  0.17167123068E+03 0.  0.
         24    2    5    5    0    0  0.11816398251E+03 -0.81283065196E+02  0.15982263131E+03  0.22907186734E+03  0.79755773934E+02 0.  0.
          5    1    5    5  501    0  0.74428718250E+02  0.57943086056E+02  0.10990540506E+03  0.14490798247E+03  0.47000000000E+01 0. -1.
        -11    1    6    6    0    0  0.78690776963E+02 -0.29007228378E+02  0.13518479386E+03  0.15908672530E+03  0.00000000000E+00 0.  1.
         12    1    6    6    0    0  0.39473205551E+02 -0.52275836818E+02  0.24637837453E+02  0.69985142036E+02  0.00000000000E+00 0. -1.
         -5    1    3    3    0  503 -0.81138885475E+02 -0.36648175395E+02 -0.52482207518E+02  0.10345568907E+03  0.47000000000E+01 0.  1.
         13    1    4    4    0    0 -0.25540887327E+02 -0.55758233311E+01 -0.13629103042E+03  0.13877561639E+03  0.00000000000E+00 0. -1.
        -14    1    4    4    0    0 -0.85912927962E+02  0.65563977866E+02 -0.15928177338E+03  0.19248467398E+03  0.00000000000E+00 0.  1.
</event>
<event>
12    1  0.8407180E-002  0.1799509E+03  0.7818608E-02  0.1168790E+00
         21   -1    0    0  503  502  0.00000000000E+00  0.00000000000E+00  0.89207519082E+03  0.89207519082E+03  0.00000000000E+00 0. -1.
         21   -1    0    0  501  503 -0.00000000000E+00 -0.00000000000E+00 -0.24531806096E+03  0.24531806096E+03  0.00000000000E+00 0. -1.
          6    2    1    2  501    0  0.34443491472E+02 -0.33956817955E+02 -0.20201606355E+03  0.27054174220E+03  0.17332894953E+03 0.  0.
         24    2    3    3    0    0  0.71463062825E+02 -0.64748702913E+02 -0.11230289806E+03  0.16861465598E+03  0.80744024052E+02 0.  0.
         -6    2    1    2    0  502 -0.34443491472E+02  0.33956817955E+02  0.84877319341E+03  0.86685150959E+03  0.16934044476E+03 0.  0.
        -24    2    5    5    0    0 -0.40648815946E+02 -0.39839253134E+02  0.37851293570E+03  0.39077256010E+03  0.78687094932E+02 0.  0.
          5    1    3    3  501    0 -0.37019571353E+02  0.30791884958E+02 -0.89713165495E+02  0.10192708622E+03  0.47000000000E+01 0. -1.
        -11    1    4    4    0    0 -0.10263124801E+02 -0.34654875942E+02 -0.18452382478E+02  0.40580568950E+02  0.00000000000E+00 0.  1.
         12    1    4    4    0    0  0.81726187626E+02 -0.30093826972E+02 -0.93850515581E+02  0.12803408703E+03  0.00000000000E+00 0. -1.
         -5    1    5    5    0  502  0.62053244737E+01  0.73796071089E+02  0.47026025771E+03  0.47607894948E+03  0.47000000000E+01 0.  1.
         11    1    6    6    0    0 -0.44612195428E+01 -0.10603431512E+02  0.29461550688E+03  0.29484001108E+03  0.00000000000E+00 0. -1.
        -12    1    6    6    0    0 -0.36187596403E+02 -0.29235821622E+02  0.83897428822E+02  0.95932549024E+02  0.00000000000E+00 0.  1.
</event>
<event>
12    1  0.8407180E-002  0.2873846E+03  0.7818608E-02  0.1092236E+00
         21   -1    0    0  501  502  0.00000000000E+00  0.00000000000E+00  0.74454132832E+03  0.74454132832E+03  0.00000000000E+00 0.  1.
         21   -1    0    0  502  503 -0.00000000000E+00 -0.00000000000E+00 -0.11726377082E+03  0.11726377082E+03  0.00000000000E+00 0.  1.
         -6    2    1    2    0  503 -0.21751172551E+03 -0.75577166579E+02  0.20038748095E+03  0.34719354478E+03  0.16542356594E+03 0.  0.
        -24    2    3    3    0    0 -0.87717940340E+02 -0.84348977448E+02  0.14552312870E+03  0.20592940041E+03  0.80129582012E+02 0.  0.
          6    2    1    2  501    0  0.21751172551E+03  0.75577166579E+02  0.42689007654E+03  0.51461155437E+03  0.17194957283E+03 0.  0.
         24    2    5    5    0    0  0.22826583266E+03  0.52723454029E+02  0.32006918336E+03  0.40474465208E+03  0.80553698151E+02 0.  0.
          5    1    5    5  501    0 -0.10754107151E+02  0.22853712550E+02  0.10682089318E+03  0.10986690229E+03  0.47000000000E+01 0. -1.
        -11    1    6    6    0    0  0.95927382306E+02  0.60934990931E+02  0.12569815732E+03  0.16945548840E+03  0.00000000000E+00 0.  1.
         12    1    6    6    0    0  0.13233845035E+03 -0.82115369024E+01  0.19437102604E+03  0.23528916368E+03  0.00000000000E+00 0. -1.
         -5    1    3    3    0  503 -0.12979378517E+03  0.87718108695E+01  0.54864352251E+02  0.14126414436E+03  0.47000000000E+01 0.  1.
         11    1    4    4    0    0 -0.10464017908E+02 -0.25972555886E+02  0.90120328500E+02  0.94370243928E+02  0.00000000000E+00 0. -1.
        -12    1    4    4    0    0 -0.77253922432E+02 -0.58376421562E+02  0.55402800201E+02  0.11155915649E+03  0.00000000000E+00 0.  1.
</event>
<event>
12    1  0.8407180E-002  0.2094662E+03  0.7818608E-02  0.1142293E+00
         21   -1    0    0  503  502  0.00000000000E+00  0.00000000000E+00  0.39740905943E+02  0.39740905943E+02  0.00000000000E+00 0. -1.
         21   -1    0    0  501  503 -0.00000000000E+00 -0.00000000000E+00 -0.10993324588E+04  0.10993324588E+04  0.00000000000E+00 0. -1.
          6    2    1    2  501    0 -0.11475486625E+03 -0.26016964273E+02 -0.56285520225E+03  0.60056810481E+03  0.17329312756E+03 0.  0.
         24    2    3    3    0    0 -0.14803738617E+03 -0.19718827563E+01 -0.45868258690E+03  0.48849707436E+03  0.79502956584E+02 0.  0.
         -6    2    1    2    0  502  0.11475486625E+03  0.26016964273E+02 -0.49673635059E+03  0.53850525991E+03  0.17145072529E+03 0.  0.
        -24    2    5    5    0    0  0.85440639356E+02  0.39716069316E+02 -0.17049728476E+03  0.21063179735E+03  0.80118418178E+02 0.  0.
          5    1    3    3  501    0  0.33282519925E+02 -0.24045081517E+02 -0.10417261535E+03  0.11207103045E+03  0.47000000000E+01 0. -1.
        -11    1    4    4    0    0 -0.66272600475E+02  0.37300868475E+02 -0.23958635677E+03  0.25136633568E+03  0.00000000000E+00 0.  1.
         12    1    4    4    0    0 -0.81764785697E+02 -0.39272751231E+02 -0.21909623013E+03  0.23713073868E+03  0.00000000000E+00 0. -1.
         -5    1    5    5    0  502  0.29314226891E+02 -0.13699105043E+02 -0.32623906583E+03  0.32787346256E+03  0.47000000000E+01 0.  1.
         11    1    6    6    0    0  0.38006415106E+02  0.51862656150E+02 -0.13690401028E+03  0.15125121726E+03  0.00000000000E+00 0. -1.
        -12    1    6    6    0    0  0.47434224251E+02 -0.12146586834E+02 -0.33593274475E+02  0.59380580091E+02  0.00000000000E+00 0.  1.
</event>
<event>
12    1  0.8407180E-002  0.1826909E+03  0.7818608E-02  0.1165748E+00
         21   -1    0    0  501  502  0.00000000000E+00  0.00000000000E+00  0.36975926172E+03  0.36975926172E+03  0.00000000000E+00 0. -1.
         21   -1    0    0  502  503 -0.00000000000E+00 -0.00000000000E+00 -0.10361467653E+03  0.10361467653E+03  0.00000000000E+00 0. -1.
         -6    2    1    2    0  503 -0.39629515426E+02 -0.45160503071E+02  0.44048994036E+02  0.18579366467E+03  0.17020282731E+03 0.  0.
        -24    2    3    3    0    0  0.14937560956E+02  0.27600089560E+02  0.40998114510E+02  0.94672495169E+02  0.79354522726E+02 0.  0.
          6    2    1    2  501    0  0.39629515426E+02  0.45160503071E+02  0.22209559115E+03  0.28758027358E+03  0.17252823714E+03 0.  0.
         24    2    5    5    0    0  0.43331346924E+02  0.87247840500E+02  0.12222729142E+03  0.17904081154E+03  0.87328747447E+02 0.  0.
          5    1    5    5  501    0 -0.37018314978E+01 -0.42087337429E+02  0.99868299733E+02  0.10853946204E+03  0.47000000000E+01 0. -1.
        -13    1    6    6    0    0  0.13586898748E+02  0.62351025613E+02  0.15765489871E+02  0.65732829571E+02  0.00000000000E+00 0.  1.
         14    1    6    6    0    0  0.29744448176E+02  0.24896814888E+02  0.10646180155E+03  0.11330798197E+03  0.00000000000E+00 0. -1.
         -5    1    3    3    0  503 -0.54567076382E+02 -0.72760592631E+02  0.30508795262E+01  0.91121169499E+02  0.47000000000E+01 0.  1.
         11    1    4    4    0    0 -0.12934288095E+02  0.48584178425E+02  0.27129512972E+02  0.57129052818E+02  0.00000000000E+00 0. -1.
        -12    1    4    4    0    0  0.27871849051E+02 -0.20984088865E+02  0.13868601537E+02  0.37543442351E+02  0.00000000000E+00 0.  1.
</event>
<event>
12    1  0.8407180E-002  0.2034502E+03  0.7818608E-02  0.1147273E+00
         21   -1    0    0  503  502  0.00000000000E+00  0.00000000000E+00  0.55074553289E+02  0.55074553289E+02  0.00000000000E+00 0. -1.
         21   -1    0    0  501  503 -0.00000000000E+00 -0.00000000000E+00 -0.11350180038E+04  0.11350180038E+04  0.00000000000E+00 0. -1.
          6    2    1    2  501    0 -0.18675961135E+00  0.10763940625E+03 -0.88738408066E+03  0.90996564039E+03  0.17029587021E+03 0.  0.
         24    2    3    3    0    0 -0.34948748626E+02  0.98004962631E+01 -0.20486076615E+03  0.21957371325E+03  0.70194139991E+02 0.  0.
         -6    2    1    2    0  502  0.18675961135E+00 -0.10763940625E+03 -0.19255936990E+03  0.28012691675E+03  0.17264327933E+03 0.  0.
        -24    2    5    5    0    0  0.19444267414E+02 -0.11339612300E+03 -0.21054930712E+03  0.25274591539E+03  0.79452670011E+02 0.  0.
          5    1    3    3  501    0  0.34761989015E+02  0.97838909983E+02 -0.68252331452E+03  0.69039192713E+03  0.47000000000E+01 0. -1.
        -13    1    4    4    0    0  0.16135600705E+02 -0.12401175691E+02 -0.31656592180E+02  0.37633583367E+02  0.00000000000E+00 0.  1.
         14    1    4    4    0    0 -0.51084349331E+02  0.22201671955E+02 -0.17320417397E+03  0.18194012989E+03  0.00000000000E+00 0. -1.
         -5    1    5    5    0  502 -0.19257507802E+02  0.57567167508E+01  0.17989937221E+02  0.27381001364E+02  0.47000000000E+01 0.  1.
         11    1    6    6    0    0  0.44517630687E+02 -0.37169879636E+02 -0.70006473738E+02  0.90908337128E+02  0.00000000000E+00 0. -1.
        -12    1    6    6    0    0 -0.25073363274E+02 -0.76226243360E+02 -0.14054283338E+03  0.16183757826E+03  0.00000000000E+00 0.  1.
</event>
<event>
12    1  0.8407180E-002  0.2670670E+03  0.7818608E-02  0.1103294E+00
         21   -1    0    0  503  502  0.00000000000E+00  0.00000000000E+00  0.36874269320E+02  0.36874269320E+02  0.00000000000E+00 0.  1.
         21   -1    0    0  501  503 -0.00000000000E+00 -0.00000000000E+00 -0.21230241280E+04  0.21230241280E+04  0.00000000000E+00 0.  1.
          6    2    1    2  501    0 -0.17472438923E+03  0.10536801695E+03 -0.70372881200E+03  0.75191660703E+03  0.16885885199E+03 0.  0.
         24    2    3    3    0    0 -0.48422464031E+02  0.48196707373E+01 -0.17192721612E+03  0.19613142046E+03  0.80873989621E+02 0.  0.
         -6    2    1    2    0  502  0.17472438923E+03 -0.10536801695E+03 -0.13824210467E+04  0.14079817903E+04  0.17231871721E+03 0.  0.
        -24    2    5    5    0    0  0.45331877529E+02 -0.47821082551E+02 -0.88123150394E+03  0.88714868891E+03  0.78243195497E+02 0.  0.
          5    1    3    3  501    0 -0.12630192520E+03  0.10054834622E+03 -0.53180159588E+03  0.55578518657E+03  0.47000000000E+01 0. -1.
        -13    1    4    4    0    0 -0.67728326682E+02 -0.43379689467E+01 -0.15380820990E+03  0.16811576262E+03  0.00000000000E+00 0.  1.
         14    1    4    4    0    0  0.19305862651E+02  0.91576396840E+01 -0.18119006225E+02  0.28015657834E+02  0.00000000000E+00 0. -1.
         -5    1    5    5    0  502  0.12939251170E+03 -0.57546934404E+02 -0.50118954273E+03  0.52083310137E+03  0.47000000000E+01 0.  1.
         11    1    6    6    0    0  0.12152401462E+02  0.36126007307E+01 -0.19580714488E+02  0.23326725556E+02  0.00000000000E+00 0. -1.
        -12    1    6    6    0    0  0.33179476067E+02 -0.51433683282E+02 -0.86165078946E+03  0.86382196336E+03  0.00000000000E+00 0.  1.
</event>
<event>
12    1  0.8407180E-002  0.1768206E+03  0.7818608E-02  0.1172446E+00
         21   -1    0    0  503  502  0.00000000000E+00  0.00000000000E+00  0.33068283274E+03  0.33068283274E+03  0.00000000000E+00 0.  1.
         21   -1    0    0  501  503 -0.00000000000E+00 -0.00000000000E+00 -0.31705902890E+03  0.31705902890E+03  0.00000000000E+00 0.  1.
          6    2    1    2  501    0 -0.36761779439E+00 -0.41809344669E+01 -0.26648010988E+03  0.31649614853E+03  0.17070602718E+03 0.  0.
         24    2    3    3    0    0  0.40067295743E+02  0.45258998029E+01 -0.63777984626E+02  0.10956371323E+03  0.79439939427E+02 0.  0.
         -6    2    1    2    0  502  0.36761779439E+00  0.41809344669E+01  0.28010391373E+03  0.33124571312E+03  0.17677076856E+03 0.  0.
        -24    2    5    5    0    0 -0.29508938335E+02  0.37920661952E+02  0.69264130035E+02  0.11559209686E+03  0.79090195996E+02 0.  0.
          5    1    3    3  501    0 -0.40434913537E+02 -0.87068342698E+01 -0.20270212526E+03  0.20693243530E+03  0.47000000000E+01 0. -1.
        -13    1    4    4    0    0  0.24293223689E+02  0.39580927860E+02 -0.51183196594E+02  0.69112445920E+02  0.00000000000E+00 0.  1.
         14    1    4    4    0    0  0.15774072053E+02 -0.35055028057E+02 -0.12594788032E+02  0.40451267308E+02  0.00000000000E+00 0. -1.
         -5    1    5    5    0  502  0.29876556130E+02 -0.33739727485E+02  0.21083978369E+03  0.21565361625E+03  0.47000000000E+01 0.  1.
         13    1    6    6    0    0 -0.50876329728E+02  0.13416932048E+02  0.63679478250E+02  0.82604424472E+02  0.00000000000E+00 0. -1.
        -14    1    6    6    0    0  0.21367391392E+02  0.24503729904E+02  0.55846517851E+01  0.32987672389E+02  0.00000000000E+00 0.  1.
</event>
<event>
12    1  0.8407180E-002  0.4103409E+03  0.7818608E-02  0.1040445E+00
         21   -1    0    0  503  502  0.00000000000E+00  0.00000000000E+00  0.30189487973E+03  0.30189487973E+03  0.00000000000E+00 0. -1.
         21   -1    0    0  501  503 -0.00000000000E+00 -0.00000000000E+00 -0.12513012713E+04  0.12513012713E+04  0.00000000000E+00 0.  1.
          6    2    1    2  501    0 -0.36747918772E+03 -0.57176957788E+02 -0.10547194855E+04  0.11317300116E+04  0.17340550213E+03 0.  0.
         24    2    3    3    0    0 -0.17897961593E+03  0.36796243922E+02 -0.52606414931E+03  0.56264161277E+03  0.80214891075E+02 0.  0.
         -6    2    1    2    0  502  0.36747918772E+03  0.57176957788E+02  0.10531309396E+03  0.42146613940E+03  0.16802589381E+03 0.  0.
        -24    2    5    5    0    0  0.31278042529E+03  0.82551917114E+02  0.44775315540E+02  0.33589303739E+03  0.78567742862E+02 0.  0.
          5    1    3    3  501    0 -0.18849957179E+03 -0.93973201710E+02 -0.52865533621E+03  0.56908839885E+03  0.47000000000E+01 0. -1.
        -11    1    4    4    0    0 -0.14049239762E+03  0.85344604206E+01 -0.46051797375E+03  0.48154725100E+03  0.00000000000E+00 0.  1.
         12    1    4    4    0    0 -0.38487218314E+02  0.28261783501E+02 -0.65546175556E+02  0.81094361766E+02  0.00000000000E+00 0. -1.
         -5    1    5    5    0  502  0.54698762427E+02 -0.25374959325E+02  0.60537778418E+02  0.85573102010E+02  0.47000000000E+01 0.  1.
         13    1    6    6    0    0  0.12698673292E+03  0.47184494026E+02  0.55641180559E+02  0.14645117885E+03  0.00000000000E+00 0. -1.
        -14    1    6    6    0    0  0.18579369238E+03  0.35367423087E+02 -0.10865865018E+02  0.18944185854E+03  0.00000000000E+00 0.  1.
</event>
<event>
12    1  0.8407180E-002  0.2011296E+03  0.7818608E-02  0.1148873E+00
         21   -1    0    0  503  502  0.00000000000E+00  0.00000000000E+00  0.51885557089E+03  0.51885557089E+03  0.00000000000E+00 0.  1.
         21   -1    0    0  501  503 -0.00000000000E+00 -0.00000000000E+00 -0.96023299382E+02  0.96023299382E+02  0.00000000000E+00 0.  1.
          6    2    1    2  501    0  0.96079430968E+02 -0.38815591060E+02  0.34547511845E+03  0.39975765360E+03  0.17238102266E+03 0.  0.
         24    2    3    3    0    0  0.45852129839E+02 -0.72824956742E+01  0.32699364811E+03  0.33746180599E+03  0.69283273873E+02 0.  0.
         -6    2    1    2    0  502 -0.96079430968E+02  0.38815591060E+02  0.77357153050E+02  0.21512121667E+03  0.17191597241E+03 0.  0.
        -24    2    5    5    0    0 -0.11028235119E+03  0.78398036762E+02  0.66086904022E+02  0.17133079005E+03  0.81720937247E+02 0.  0.
          5    1    3    3  501    0  0.50227301128E+02 -0.31533095386E+02  0.18481470340E+02  0.62295847608E+02  0.47000000000E+01 0. -1.
        -11    1    4    4    0    0  0.45167228280E+02  0.24147109563E+02  0.18004303083E+03  0.18718614895E+03  0.00000000000E+00 0.  1.
         12    1    4    4    0    0  0.68490155950E+00 -0.31429605237E+02  0.14695061729E+03  0.15027565703E+03  0.00000000000E+00 0. -1.
         -5    1    5    5    0  502  0.14202920222E+02 -0.39582445701E+02  0.11270249028E+02  0.43790426621E+02  0.47000000000E+01 0.  1.
         13    1    6    6    0    0 -0.95487721133E+01 -0.57762653555E+01  0.34571143720E+02  0.36327789204E+02  0.00000000000E+00 0. -1.
        -14    1    6    6    0    0 -0.10073357908E+03  0.84174302118E+02  0.31515760302E+02  0.13500300085E+03  0.00000000000E+00 0.  1.
</event>
<event>
12    1  0.8407180E-002  0.1889179E+03  0.7818608E-02  0.1159719E+00
         21   -1    0    0  503  502  0.00000000000E+00  0.00000000000E+00  0.22198563884E+03  0.22198563884E+03  0.00000000000E+00 0. -1.
         21   -1    0    0  501  503 -0.00000000000E+00 -0.00000000000E+00 -0.29648501554E+03  0.29648501554E+03  0.00000000000E+00 0.  1.
          6    2    1    2  501    0  0.69235522702E+02 -0.32651829716E+02 -0.21337064296E+03  0.28498597538E+03  0.17271443279E+03 0.  0.
         24    2    3    3    0    0  0.95943862132E+02 -0.67467414172E+02 -0.15295022345E+03  0.21016500632E+03  0.83776383146E+02 0.  0.
         -6    2    1    2    0  502 -0.69235522702E+02  0.32651829716E+02  0.13887126627E+03  0.23348467900E+03  0.17137726555E+03 0.  0.
        -24    2    5    5    0    0 -0.90742602281E+02  0.10654085875E+02  0.15559653619E+03  0.19815367477E+03  0.81895465899E+02 0.  0.
          5    1    3    3  501    0 -0.26708339431E+02  0.34815584456E+02 -0.60420419514E+02  0.74820969056E+02  0.47000000000E+01 0. -1.
        -11    1    4    4    0    0  0.33447626111E+02  0.13026785309E+02 -0.70380259032E+02  0.79005200394E+02  0.00000000000E+00 0.  1.
         12    1    4    4    0    0  0.62496236022E+02 -0.80494199481E+02 -0.82569964418E+02  0.13115980593E+03  0.00000000000E+00 0. -1.
         -5    1    5    5    0  502  0.21507079579E+02  0.21997743841E+02 -0.16725269924E+02  0.35331004233E+02  0.47000000000E+01 0.  1.
         11    1    6    6    0    0 -0.59937956631E+02  0.46172467400E+02  0.97751969747E+02  0.12361190469E+03  0.00000000000E+00 0. -1.
        -12    1    6    6    0    0 -0.30804645649E+02 -0.35518381524E+02  0.57844566443E+02  0.74541770080E+02  0.00000000000E+00 0.  1.
</event>
<event>
12    1  0.8407180E-002  0.2462179E+03  0.7818608E-02  0.1116197E+00
         21   -1    0    0  501  502  0.00000000000E+00  0.00000000000E+00  0.21779842980E+03  0.21779842980E+03  0.00000000000E+00 0. -1.
         21   -1    0    0  502  503 -0.00000000000E+00 -0.00000000000E+00 -0.31881293781E+03  0.31881293781E+03  0.00000000000E+00 0.  1.
         -6    2    1    2    0  503 -0.16338285099E+03 -0.50748111800E+02 -0.15021078042E+03  0.28842076958E+03  0.17707042363E+03 0.  0.
        -24    2    3    3    0    0 -0.92276657784E+02  0.28479809008E+02 -0.12899950062E+03  0.17976920476E+03  0.79686979659E+02 0.  0.
          6    2    1    2  501    0  0.16338285099E+03  0.50748111800E+02  0.49196272411E+02  0.24819059803E+03  0.17294210847E+03 0.  0.
         24    2    5    5    0    0  0.16353163012E+03  0.87325722692E+02  0.56065199458E+02  0.21067772141E+03  0.82906090334E+02 0.  0.
          5    1    5    5  501    0 -0.14877912438E+00 -0.36577610892E+02 -0.68689270473E+01  0.37512876624E+02  0.47000000000E+01 0. -1.
        -13    1    6    6    0    0  0.11163166600E+03  0.47800598953E+02 -0.46980025520E+01  0.12152611794E+03  0.00000000000E+00 0.  1.
         14    1    6    6    0    0  0.51899964121E+02  0.39525123739E+02  0.60763202010E+02  0.89151603468E+02  0.00000000000E+00 0. -1.
         -5    1    3    3    0  503 -0.71106193208E+02 -0.79227920808E+02 -0.21211279796E+02  0.10865156482E+03  0.47000000000E+01 0.  1.
         11    1    4    4    0    0  0.16071702048E+01  0.15296094097E+02  0.45056686309E+01  0.16026682142E+02  0.00000000000E+00 0. -1.
        -12    1    4    4    0    0 -0.93883827989E+02  0.13183714911E+02 -0.13350516925E+03  0.16374252262E+03  0.00000000000E+00 0.  1.
</event>
<event>
12    1  0.8407180E-002  0.1822456E+03  0.7818608E-02  0.1165696E+00
         21   -1    0    0  503  502  0.00000000000E+00  0.00000000000E+00  0.47597524184E+02  0.47597524184E+02  0.00000000000E+00 0.  1.
         21   -1    0    0  501  503 -0.00000000000E+00 -0.00000000000E+00 -0.86316759188E+03  0.86316759188E+03  0.00000000000E+00 0.  1.
          6    2    1    2  501    0  0.39718583795E+02  0.43482547054E+02 -0.60776409897E+03  0.63450033410E+03  0.17246789897E+03 0.  0.
         24    2    3    3    0    0  0.93158943164E+02  0.28897647480E+02 -0.41512584919E+03  0.43400051718E+03  0.80705114620E+02 0.  0.
         -6    2    1    2    0  502 -0.39718583795E+02 -0.43482547054E+02 -0.20780596872E+03  0.27626478196E+03  0.17225159308E+03 0.  0.
        -24    2    5    5    0    0  0.29790368285E+02  0.15843877128E+02 -0.13635373104E+03  0.16016727426E+03  0.76959218355E+02 0.  0.
          5    1    3    3  501    0 -0.53440359369E+02  0.14584899574E+02 -0.19263824979E+03  0.20049981692E+03  0.47000000000E+01 0. -1.
        -11    1    4    4    0    0  0.30322499479E+02  0.48549190986E+02 -0.24455354384E+03  0.25116312174E+03  0.00000000000E+00 0.  1.
         12    1    4    4    0    0  0.62836443685E+02 -0.19651543505E+02 -0.17057230535E+03  0.18283739543E+03  0.00000000000E+00 0. -1.
         -5    1    5    5    0  502 -0.69508952080E+02 -0.59326424182E+02 -0.71452237679E+02  0.11609750770E+03  0.47000000000E+01 0.  1.
         13    1    6    6    0    0  0.33194752253E+02 -0.10955679920E+01 -0.13879859793E+03  0.14271700190E+03  0.00000000000E+00 0. -1.
        -14    1    6    6    0    0 -0.34043839673E+01  0.16939445120E+02  0.24448668853E+01  0.17450272355E+02  0.00000000000E+00 0.  1.
</event>
<event>
12    1  0.8407180E-002  0.2497593E+03  0.7818608E-02  0.1113779E+00
         21   -1    0    0  501  502  0.00000000000E+00  0.00000000000E+00  0.16309039051E+03  0.16309039051E+03  0.00000000000E+00 0.  1.
         21   -1    0    0  502  503 -0.00000000000E+00 -0.00000000000E+00 -0.38234800742E+03  0.38234800742E+03  0.00000000000E+00 0. -1.
         -6    2    1    2    0  503  0.49121024073E+02  0.17380870611E+03 -0.86065798071E+02  0.26417233448E+03  0.17250321557E+03 0.  0.
        -24    2    3    3    0    0 -0.19035035579E+01  0.13377193071E+03 -0.11273364383E+03  0.19388926538E+03  0.83580021589E+02 0.  0.
          6    2    1    2  501    0 -0.49121024073E+02 -0.17380870611E+03 -0.13319181884E+03  0.28126606345E+03  0.16955293131E+03 0.  0.
         24    2    5    5    0    0 -0.48456453264E+02 -0.89989653794E+02 -0.91480455813E+01  0.13148281048E+03  0.82206307907E+02 0.  0.
          5    1    5    5  501    0 -0.66457080884E+00 -0.83819052319E+02 -0.12404377326E+03  0.14978325297E+03  0.47000000000E+01 0. -1.
        -11    1    6    6    0    0 -0.47200669719E+02 -0.10184715542E+03  0.57505125543E+01  0.11240024326E+03  0.00000000000E+00 0.  1.
         12    1    6    6    0    0 -0.12557835451E+01  0.11857501628E+02 -0.14898558136E+02  0.19082567219E+02  0.00000000000E+00 0. -1.
         -5    1    3    3    0  503  0.51024527631E+02  0.40036775402E+02  0.26667845756E+02  0.70283069098E+02  0.47000000000E+01 0.  1.
         13    1    4    4    0    0 -0.21225502288E+02  0.14706015951E+01 -0.29576417058E+02  0.36434174375E+02  0.00000000000E+00 0. -1.
        -14    1    4    4    0    0  0.19321998730E+02  0.13230132912E+03 -0.83157226770E+02  0.15745509101E+03  0.00000000000E+00 0.  1.
</event>
<event>
12    1  0.8407180E-002  0.2345572E+03  0.7818608E-02  0.1123710E+00
         21   -1    0    0  503  502  0.00000000000E+00  0.00000000000E+00  0.22979428237E+03  0.22979428237E+03  0.00000000000E+00 0.  1.
         21   -1    0    0  501  503 -0.00000000000E+00 -0.00000000000E+00 -0.25226017361E+03  0.25226017361E+03  0.00000000000E+00 0. -1.
          6    2    1    2  501    0 -0.14321934079E+03  0.66761692381E+02  0.46081262642E+02  0.23768632957E+03  0.17147129601E+03 0.  0.
         24    2    3    3    0    0 -0.10249275432E+03 -0.22322500297E+02  0.82309591967E+01  0.13257028084E+03  0.80647826783E+02 0.  0.
         -6    2    1    2    0  502  0.14321934079E+03 -0.66761692381E+02 -0.68547153885E+02  0.24436812641E+03  0.17334406754E+03 0.  0.
        -24    2    5    5    0    0  0.73778223457E+02  0.30928881000E+02 -0.42916903606E+02  0.12171203551E+03  0.81068717994E+02 0.  0.
          5    1    3    3  501    0 -0.40726586465E+02  0.89084192678E+02  0.37850303446E+02  0.10511604873E+03  0.47000000000E+01 0. -1.
        -13    1    4    4    0    0 -0.45322879570E+02  0.29695308914E+02 -0.39266236501E+01  0.54326725995E+02  0.00000000000E+00 0.  1.
         14    1    4    4    0    0 -0.57169874753E+02 -0.52017809211E+02  0.12157582847E+02  0.78243554847E+02  0.00000000000E+00 0. -1.
         -5    1    5    5    0  502  0.69441117332E+02 -0.97690573381E+02 -0.25630250280E+02  0.12265609089E+03  0.47000000000E+01 0.  1.
         13    1    6    6    0    0  0.87463437047E+02  0.95105462632E+01 -0.37946072142E+02  0.95813400427E+02  0.00000000000E+00 0. -1.
        -14    1    6    6    0    0 -0.13685213590E+02  0.21418334737E+02 -0.49708314634E+01  0.25898635086E+02  0.00000000000E+00 0.  1.
</event>
<event>
12    1  0.8407180E-002  0.1880602E+03  0.7818608E-02  0.1160960E+00
         21   -1    0    0  501  502  0.00000000000E+00  0.00000000000E+00  0.20887685229E+03  0.20887685229E+03  0.00000000000E+00 0. -1.
         21   -1    0    0  502  503 -0.00000000000E+00 -0.00000000000E+00 -0.54252898275E+03  0.54252898275E+03  0.00000000000E+00 0.  1.
         -6    2    1    2    0  503 -0.62464566105E+02  0.24775022472E+02 -0.47918713484E+03  0.51360956910E+03  0.17221746578E+03 0.  0.
        -24    2    3    3    0    0 -0.67979260599E+02  0.44026872132E+02 -0.17438045517E+03  0.20810957312E+03  0.79633572943E+02 0.  0.
          6    2    1    2  501    0  0.62464566105E+02 -0.24775022472E+02  0.14553500438E+03  0.23779626594E+03  0.17564453545E+03 0.  0.
         24    2    5    5    0    0  0.84266280842E+02  0.30009373482E+02  0.12937936212E+03  0.17647955058E+03  0.80029018775E+02 0.  0.
          5    1    5    5  501    0 -0.21801714737E+02 -0.54784395954E+02  0.16155642266E+02  0.61316715360E+02  0.47000000000E+01 0. -1.
        -13    1    6    6    0    0  0.43273019083E+02  0.65866045778E+01  0.57571255927E+01  0.44148409207E+02  0.00000000000E+00 0.  1.
         14    1    6    6    0    0  0.40993261759E+02  0.23422768904E+02  0.12362223652E+03  0.13233114137E+03  0.00000000000E+00 0. -1.
         -5    1    3    3    0  503  0.55146944943E+01 -0.19251849660E+02 -0.30480667968E+03  0.30549999598E+03  0.47000000000E+01 0.  1.
         11    1    4    4    0    0  0.11690553126E+02 -0.11532234758E+02 -0.26995687600E+02  0.31597921133E+02  0.00000000000E+00 0. -1.
        -12    1    4    4    0    0 -0.79669813725E+02  0.55559106890E+02 -0.14738476757E+03  0.17651165199E+03  0.00000000000E+00 0.  1.
</event>
<event>
12    1  0.8407180E-002  0.2618854E+03  0.7818608E-02  0.1106292E+00
         21   -1    0    0  503  502  0.00000000000E+00  0.00000000000E+00  0.53874453211E+03  0.53874453211E+03  0.00000000000E+00 0.  1.
         21   -1    0    0  501  503 -0.00000000000E+00 -0.00000000000E+00 -0.41217450072E+03  0.41217450072E+03  0.00000000000E+00 0. -1.
          6    2    1    2  501    0  0.12715338413E+03 -0.14848731843E+03 -0.33267752793E+03  0.42224872859E+03  0.17147356757E+03 0.  0.
         24    2    3    3    0    0  0.65829484475E+02 -0.15388623406E+03 -0.16747541284E+03  0.24588660741E+03  0.66315275296E+02 0.  0.
         -6    2    1    2    0  502 -0.12715338413E+03  0.14848731843E+03  0.45924755932E+03  0.52867030424E+03  0.17426274132E+03 0.  0.
        -24    2    5    5    0    0 -0.54161978950E+02  0.80292745334E+02  0.11488300956E+03  0.17007962092E+03  0.79677642103E+02 0.  0.
          5    1    3    3  501    0  0.61323899651E+02  0.53989156247E+01 -0.16520211509E+03  0.17636212118E+03  0.47000000000E+01 0. -1.
        -11    1    4    4    0    0  0.43404706927E+02 -0.38723292022E+02 -0.31002358875E+02  0.65913641867E+02  0.00000000000E+00 0.  1.
         12    1    4    4    0    0  0.22424777548E+02 -0.11516294203E+03 -0.13647305397E+03  0.17997296554E+03  0.00000000000E+00 0. -1.
         -5    1    5    5    0  502 -0.72991405176E+02  0.68194573097E+02  0.34436454976E+03  0.35859068331E+03  0.47000000000E+01 0.  1.
         13    1    6    6    0    0 -0.53733061976E+02  0.60192671867E+02  0.12405098987E+03  0.14798326860E+03  0.00000000000E+00 0. -1.
        -14    1    6    6    0    0 -0.42891697380E+00  0.20100073467E+02 -0.91679803136E+01  0.22096352328E+02  0.00000000000E+00 0.  1.
</event>
<event>
12    1  0.8407180E-002  0.2414208E+03  0.7818608E-02  0.1118863E+00
         21   -1    0    0  503  502  0.00000000000E+00  0.00000000000E+00  0.30575100770E+03  0.30575100770E+03  0.00000000000E+00 0.  1.
         21   -1    0    0  501  503 -0.00000000000E+00 -0.00000000000E+00 -0.37406194187E+03  0.37406194187E+03  0.00000000000E+00 0. -1.
          6    2    1    2  501    0 -0.12673327055E+01  0.16939879296E+03 -0.27222093062E+03  0.36380142474E+03  0.17190021636E+03 0.  0.
         24    2    3    3    0    0 -0.51526591748E+02  0.16900004759E+03 -0.21851531829E+03  0.29009569285E+03  0.72045547661E+02 0.  0.
         -6    2    1    2    0  502  0.12673327055E+01 -0.16939879296E+03  0.20390999645E+03  0.31601152483E+03  0.17200709282E+03 0.  0.
        -24    2    5    5    0    0 -0.80331176718E+01 -0.17307217713E+03  0.10672283196E+03  0.21819829939E+03  0.78754209525E+02 0.  0.
          5    1    3    3  501    0  0.50259259043E+02  0.39874536230E+00 -0.53705612337E+02  0.73705731893E+02  0.47000000000E+01 0. -1.
        -11    1    4    4    0    0 -0.62790909847E+01 -0.65975571642E+01 -0.69745823875E+01  0.11471684428E+02  0.00000000000E+00 0.  1.
         12    1    4    4    0    0 -0.45247500764E+02  0.17559760476E+03 -0.21154073590E+03  0.27862400842E+03  0.00000000000E+00 0. -1.
         -5    1    5    5    0  502  0.93004503773E+01  0.36733841740E+01  0.97187164492E+02  0.97813225438E+02  0.47000000000E+01 0.  1.
         11    1    6    6    0    0  0.35650648592E+01 -0.17746494301E+03  0.10313114722E+03  0.20528650519E+03  0.00000000000E+00 0. -1.
        -12    1    6    6    0    0 -0.11598182531E+02  0.43927658843E+01  0.35916847464E+01  0.12911794200E+02  0.00000000000E+00 0.  1.
</event>
<event>
12    1  0.8407180E-002  0.2434054E+03  0.7818608E-02  0.1117694E+00
         21   -1    0    0  503  502  0.00000000000E+00  0.00000000000E+00  0.55274796831E+02  0.55274796831E+02  0.00000000000E+00 0.  1.
         21   -1    0    0  501  503 -0.00000000000E+00 -0.00000000000E+00 -0.13280536938E+04  0.13280536938E+04  0.00000000000E+00 0.  1.
          6    2    1    2  501    0  0.99449891845E+02  0.14029847877E+03 -0.94159440389E+03  0.97231829948E+03  0.17096464530E+03 0.  0.
         24    2    3    3    0    0  0.79640566788E+02  0.74799568543E+02 -0.30565606996E+03  0.33269171220E+03  0.72942079288E+02 0.  0.
         -6    2    1    2    0  502 -0.99449891845E+02 -0.14029847877E+03 -0.33118449307E+03  0.41101019113E+03  0.17225639215E+03 0.  0.
        -24    2    5    5    0    0 -0.12748485634E+03 -0.14718404374E+03 -0.26313884171E+03  0.33694487599E+03  0.79839013719E+02 0.  0.
          5    1    3    3  501    0  0.19809325057E+02  0.65498910223E+02 -0.63593833393E+03  0.63962658728E+03  0.47000000000E+01 0. -1.
        -11    1    4    4    0    0  0.73035659255E+02  0.81370862065E+02 -0.30420983137E+03  0.32326312227E+03  0.00000000000E+00 0.  1.
         12    1    4    4    0    0  0.66049075327E+01 -0.65712935220E+01 -0.14462385906E+01  0.94285899333E+01  0.00000000000E+00 0. -1.
         -5    1    5    5    0  502  0.28034964492E+02  0.68855649752E+01 -0.68045651355E+02  0.74065315144E+02  0.47000000000E+01 0.  1.
         11    1    6    6    0    0 -0.21834269701E+02  0.43681885389E+01 -0.50937863406E+02  0.55592106750E+02  0.00000000000E+00 0. -1.
        -12    1    6    6    0    0 -0.10565058664E+03 -0.15155223228E+03 -0.21220097831E+03  0.28135276924E+03  0.00000000000E+00 0.  1.
</event>
<event>
12    1  0.8407180E-002  0.1783644E+03  0.7818608E-02  0.1169764E+00
         21   -1    0    0  503  502  0.00000000000E+00  0.00000000000E+00  0.63230128137E+03  0.63230128137E+03  0.00000000000E+00 0.  1.
         21   -1    0    0  501  503 -0.00000000000E+00 -0.00000000000E+00 -0.82782285502E+02  0.82782285502E+02  0.00000000000E+00 0.  1.
          6    2    1    2  501    0  0.24748832051E+01  0.46364962286E+02  0.50093544972E+02  0.18526525699E+03  0.17221503252E+03 0.  0.
         24    2    3    3    0    0 -0.50479642773E+02  0.28956604563E+02 -0.19080329097E+02  0.96302637909E+02  0.74319982693E+02 0.  0.
         -6    2    1    2    0  502 -0.24748832051E+01 -0.46364962286E+02  0.49942545090E+03  0.52981830988E+03  0.17066290080E+03 0.  0.
        -24    2    5    5    0    0 -0.35896507652E+02  0.89615330790E+01  0.41044050404E+03  0.41973453797E+03  0.79666848041E+02 0.  0.
          5    1    3    3  501    0  0.52954525978E+02  0.17408357723E+02  0.69173874069E+02  0.88962619081E+02  0.47000000000E+01 0. -1.
        -13    1    4    4    0    0  0.39913833722E+01  0.33453274152E+02 -0.24090089615E+02  0.41417207901E+02  0.00000000000E+00 0.  1.
         14    1    4    4    0    0 -0.54471026145E+02 -0.44966695891E+01  0.50097605180E+01  0.54885430008E+02  0.00000000000E+00 0. -1.
         -5    1    5    5    0  502  0.33421624446E+02 -0.55326495365E+02  0.88984946857E+02  0.11008377191E+03  0.47000000000E+01 0.  1.
         13    1    6    6    0    0 -0.57848602579E+02  0.11538616116E+02  0.21156578683E+03  0.21963534014E+03  0.00000000000E+00 0. -1.
        -14    1    6    6    0    0  0.21952094927E+02 -0.25770830370E+01  0.19887471721E+03  0.20009919783E+03  0.00000000000E+00 0.  1.
</event>
<event>
12    1  0.8407180E-002  0.2171528E+03  0.7818608E-02  0.1136174E+00
         21   -1    0    0  501  502  0.00000000000E+00  0.00000000000E+00  0.10144450417E+03  0.10144450417E+03  0.00000000000E+00 0. -1.
         21   -1    0    0  502  503 -0.00000000000E+00 -0.00000000000E+00 -0.48624767557E+03  0.48624767557E+03  0.00000000000E+00 0. -1.
         -6    2    1    2    0  503  0.11070971233E+03  0.67507808637E+02 -0.12801420374E+03  0.25139481115E+03  0.17319864342E+03 0.  0.
        -24    2    3    3    0    0  0.22772364911E+01  0.54171317225E+02 -0.98644559182E+02  0.13816879894E+03  0.80125841823E+02 0.  0.
          6    2    1    2  501    0 -0.11070971233E+03 -0.67507808637E+02 -0.25678896766E+03  0.33629736859E+03  0.17418783420E+03 0.  0.
         24    2    5    5    0    0 -0.34283489856E+02 -0.10143604107E+03 -0.15309186868E+03  0.20300344235E+03  0.79427005761E+02 0.  0.
          5    1    5    5  501    0 -0.76426222472E+02  0.33928232436E+02 -0.10369709898E+03  0.13329392625E+03  0.47000000000E+01 0. -1.
        -11    1    6    6    0    0 -0.15010909138E+02  0.11168540306E+02 -0.27076406542E+02  0.32911935174E+02  0.00000000000E+00 0.  1.
         12    1    6    6    0    0 -0.19272580718E+02 -0.11260458138E+03 -0.12601546214E+03  0.17009150717E+03  0.00000000000E+00 0. -1.
         -5    1    3    3    0  503  0.10843247584E+03  0.13336491412E+02 -0.29369644554E+02  0.11322601221E+03  0.47000000000E+01 0.  1.
         11    1    4    4    0    0  0.22133127898E+02  0.53695507191E+02 -0.10261836634E+03  0.11791357833E+03  0.00000000000E+00 0. -1.
        -12    1    4    4    0    0 -0.19855891407E+02  0.47581003456E+00  0.39738071587E+01  0.20255220613E+02  0.00000000000E+00 0.  1.
</event>
<event>
12    1  0.8407180E-002  0.2156880E+03  0.7818608E-02  0.1137681E+00
         21   -1    0    0  503  502  0.00000000000E+00  0.00000000000E+00  0.31990326625E+03  0.31990326625E+03  0.00000000000E+00 0. -1.
         21   -1    0    0  501  503 -0.00000000000E+00 -0.00000000000E+00 -0.17444999920E+03  0.17444999920E+03  0.00000000000E+00 0. -1.
          6    2    1    2  501    0 -0.12507738000E+03 -0.17731258811E+02 -0.31725088461E+02  0.21522338504E+03  0.17133556462E+03 0.  0.
         24    2    3    3    0    0 -0.76972180130E+02 -0.61645358397E+02 -0.64376551556E+02  0.14221128715E+03  0.79717269620E+02 0.  0.
         -6    2    1    2    0  502  0.12507738000E+03  0.17731258811E+02  0.17717835551E+03  0.27912988040E+03  0.17482154314E+03 0.  0.
        -24    2    5    5    0    0  0.12636709167E+02  0.52019290161E+02  0.86604029718E+02  0.13065640788E+03  0.81884955818E+02 0.  0.
          5    1    3    3  501    0 -0.48105199866E+02  0.43914099586E+02  0.32651463096E+02  0.73012097894E+02  0.47000000000E+01 0. -1.
        -13    1    4    4    0    0  0.15416424350E+02 -0.18180541804E+02 -0.18987407470E+02  0.30474905783E+02  0.00000000000E+00 0.  1.
         14    1    4    4    0    0 -0.92388604480E+02 -0.43464816592E+02 -0.45389144087E+02  0.11173638136E+03  0.00000000000E+00 0. -1.
         -5    1    5    5    0  502  0.11244067083E+03 -0.34288031350E+02  0.90574325795E+02  0.14847347253E+03  0.47000000000E+01 0.  1.
         11    1    6    6    0    0  0.36048520342E+02 -0.45037840222E+01  0.37461418536E+02  0.52183692549E+02  0.00000000000E+00 0. -1.
        -12    1    6    6    0    0 -0.23411811175E+02  0.56523074183E+02  0.49142611181E+02  0.78472715331E+02  0.00000000000E+00 0.  1.
</event>
<event>
12    1  0.8407180E-002  0.1748796E+03  0.7818608E-02  0.1172930E+00
         21   -1    0    0  501  502  0.00000000000E+00  0.00000000000E+00  0.96253102419E+03  0.96253102419E+03  0.00000000000E+00 0. -1.
         21   -1    0    0  502  503 -0.00000000000E+00 -0.00000000000E+00 -0.75020858013E+02  0.75020858013E+02  0.00000000000E+00 0. -1.
         -6    2    1    2    0  503  0.20768519212E+02  0.22800098806E+02  0.49453434582E+02  0.18144326257E+03  0.17182793557E+03 0.  0.
        -24    2    3    3    0    0 -0.12075456944E+02  0.38971435334E+02 -0.41519048335E+02  0.83268308822E+02  0.59541501888E+02 0.  0.
          6    2    1    2  501    0 -0.20768519212E+02 -0.22800098806E+02  0.83805673160E+03  0.85610861964E+03  0.17213862829E+03 0.  0.
         24    2    5    5    0    0 -0.47960269269E+02 -0.13670482440E+02  0.24542296428E+03  0.26276250367E+03  0.79527557627E+02 0.  0.
          5    1    5    5  501    0  0.27191750056E+02 -0.91296163659E+01  0.59263376732E+03  0.59334611597E+03  0.47000000000E+01 0. -1.
        -11    1    6    6    0    0 -0.29779742454E+02 -0.44326626421E+00  0.19222919465E+02  0.35447851534E+02  0.00000000000E+00 0.  1.
         12    1    6    6    0    0 -0.18180526815E+02 -0.13227216175E+02  0.22620004481E+03  0.22731465213E+03  0.00000000000E+00 0. -1.
         -5    1    3    3    0  503  0.32843976156E+02 -0.16171336528E+02  0.90972482917E+02  0.98174953745E+02  0.47000000000E+01 0.  1.
         11    1    4    4    0    0  0.18149010873E+02 -0.44795284818E+01 -0.64485209585E+01  0.19774635107E+02  0.00000000000E+00 0. -1.
        -12    1    4    4    0    0 -0.30224467816E+02  0.43450963816E+02 -0.35070527377E+02  0.63493673715E+02  0.00000000000E+00 0.  1.
</event>
<event>
12    1  0.8407180E-002  0.2446912E+03  0.7818608E-02  0.1118517E+00
         21   -1    0    0  501  502  0.00000000000E+00  0.00000000000E+00  0.60024706889E+02  0.60024706889E+02  0.00000000000E+00 0. -1.
         21   -1    0    0  502  503 -0.00000000000E+00 -0.00000000000E+00 -0.21451262486E+04  0.21451262486E+04  0.00000000000E+00 0.  1.
         -6    2    1    2    0  503  0.13268177767E+03  0.83829513855E+02 -0.18747170712E+04  0.18906183866E+04  0.18772838197E+03 0.  0.
        -24    2    3    3    0    0  0.87379504516E+02  0.13239355841E+03 -0.13872433993E+04  0.13986189627E+04  0.80793080199E+02 0.  0.
          6    2    1    2  501    0 -0.13268177767E+03 -0.83829513855E+02 -0.21038447054E+03  0.31453256886E+03  0.17331263633E+03 0.  0.
         24    2    5    5    0    0 -0.10735530214E+03 -0.60753207616E+02 -0.23149610943E+03  0.27401420798E+03  0.79228936399E+02 0.  0.
          5    1    5    5  501    0 -0.25326475521E+02 -0.23076306239E+02  0.21111638885E+02  0.40518360879E+02  0.47000000000E+01 0. -1.
        -13    1    6    6    0    0 -0.61331078421E+02  0.45832938956E+01 -0.65894144673E+02  0.90136263875E+02  0.00000000000E+00 0.  1.
         14    1    6    6    0    0 -0.46024223724E+02 -0.65336501512E+02 -0.16560196475E+03  0.18387794411E+03  0.00000000000E+00 0. -1.
         -5    1    3    3    0  503  0.45302273150E+02 -0.48564044557E+02 -0.48747367185E+03  0.49199942390E+03  0.47000000000E+01 0.  1.
         13    1    4    4    0    0  0.21104154831E+02  0.93502283709E+02 -0.59675323229E+03  0.60440258327E+03  0.00000000000E+00 0. -1.
        -14    1    4    4    0    0  0.66275349685E+02  0.38891274703E+02 -0.79049016705E+03  0.79421637948E+03  0.00000000000E+00 0.  1.
</event>
<event>
12    1  0.8407180E-002  0.1812924E+03  0.7818608E-02  0.1167112E+00
         21   -1    0    0  501  502  0.00000000000E+00  0.00000000000E+00  0.11312170332E+03  0.11312170332E+03  0.00000000000E+00 0. -1.
         21   -1    0    0  502  503 -0.00000000000E+00 -0.00000000000E+00 -0.28714137340E+03  0.28714137340E+03  0.00000000000E+00 0. -1.
         -6    2    1    2    0  503 -0.27967141088E+02 -0.41726308501E+02 -0.80425499988E+02  0.19623657776E+03  0.17180595915E+03 0.  0.
        -24    2    3    3    0    0  0.50298002932E+02 -0.16570586271E+02 -0.32203236568E+02  0.10081268233E+03  0.79508962037E+02 0.  0.
          6    2    1    2  501    0  0.27967141088E+02  0.41726308501E+02 -0.93594170093E+02  0.20402649896E+03  0.17419442529E+03 0.  0.
         24    2    5    5    0    0  0.62975140083E+02  0.33938006202E+02 -0.11842173693E+03  0.16015491680E+03  0.80673620612E+02 0.  0.
          5    1    5    5  501    0 -0.35007998996E+02  0.77883022993E+01  0.24827566840E+02  0.43871582164E+02  0.47000000000E+01 0. -1.
        -13    1    6    6    0    0  0.14147463164E+01 -0.12890256349E+02  0.54917559642E+01  0.14082599173E+02  0.00000000000E+00 0.  1.
         14    1    6    6    0    0  0.61560393767E+02  0.46828262551E+02 -0.12391349290E+03  0.14607231762E+03  0.00000000000E+00 0. -1.
         -5    1    3    3    0  503 -0.78265144020E+02 -0.25155722231E+02 -0.48222263420E+02  0.95423895428E+02  0.47000000000E+01 0.  1.
         13    1    4    4    0    0  0.96276512676E+01  0.18074050831E+02  0.18174926339E+02  0.27380484469E+02  0.00000000000E+00 0. -1.
        -14    1    4    4    0    0  0.40670351664E+02 -0.34644637101E+02 -0.50378162907E+02  0.73432197858E+02  0.00000000000E+00 0.  1.
</event>
<event>
12    1  0.8407180E-002  0.3404019E+03  0.7818608E-02  0.1066694E+00
         21   -1    0    0  503  502  0.00000000000E+00  0.00000000000E+00  0.30975142302E+03  0.30975142302E+03  0.00000000000E+00 0. -1.
         21   -1    0    0  501  503 -0.00000000000E+00 -0.00000000000E+00 -0.53066389367E+03  0.53066389367E+03  0.00000000000E+00 0.  1.
          6    2    1    2  501    0  0.27271373056E+03 -0.10720356423E+03  0.11838943633E+03  0.35979149479E+03  0.17195487218E+03 0.  0.
         24    2    3    3    0    0  0.20539509567E+03 -0.11706534077E+03  0.34752046409E+02  0.25187320981E+03  0.79630206306E+02 0.  0.
         -6    2    1    2    0  502 -0.27271373056E+03  0.10720356423E+03 -0.33930190698E+03  0.48062382189E+03  0.17322843609E+03 0.  0.
        -24    2    5    5    0    0 -0.21406860868E+03  0.14373038030E+03 -0.28702986538E+03  0.39386026419E+03  0.79094706785E+02 0.  0.
          5    1    3    3  501    0  0.67318634893E+02  0.98617765378E+01  0.83637389919E+02  0.10791828498E+03  0.47000000000E+01 0. -1.
        -11    1    4    4    0    0  0.69836927671E+02  0.78236731300E+00  0.94371840824E+01  0.70476017258E+02  0.00000000000E+00 0.  1.
         12    1    4    4    0    0  0.13555816800E+03 -0.11784770808E+03  0.25314862327E+02  0.18139719256E+03  0.00000000000E+00 0. -1.
         -5    1    5    5    0  502 -0.58645121881E+02 -0.36526816070E+02 -0.52272041594E+02  0.86763557702E+02  0.47000000000E+01 0.  1.
         13    1    6    6    0    0 -0.28791959411E+02  0.59150306667E+02 -0.77470382999E+02  0.10163363591E+03  0.00000000000E+00 0. -1.
        -14    1    6    6    0    0 -0.18527664927E+03  0.84580073638E+02 -0.20955948239E+03  0.29222662829E+03  0.00000000000E+00 0.  1.
</event>
<event>
12    1  0.8407180E-002  0.2413576E+03  0.7818608E-02  0.1119219E+00
         21   -1    0    0  501  502  0.00000000000E+00  0.00000000000E+00  0.10001847209E+04  0.10001847209E+04  0.00000000000E+00 0. -1.
         21   -1    0    0  502  503 -0.00000000000E+00 -0.00000000000E+00 -0.17865324525E+03  0.17865324525E+03  0.00000000000E+00 0.  1.
         -6    2    1    2    0  503 -0.16258241770E+03 -0.44787337046E+02 -0.74626945825E+02  0.25074669822E+03  0.16989931583E+03 0.  0.
        -24    2    3    3    0    0 -0.15350141717E+03 -0.64940467086E+02 -0.10505545440E+03  0.21284422660E+03  0.80536122082E+02 0.  0.
          6    2    1    2  501    0  0.16258241770E+03  0.44787337046E+02  0.89615842150E+03  0.92809126796E+03  0.17266886553E+03 0.  0.
         24    2    5    5    0    0  0.28382607362E+02  0.33979627092E+02  0.20939774617E+03  0.22824220504E+03  0.79289977929E+02 0.  0.
          5    1    5    5  501    0  0.13419981034E+03  0.10807709954E+02  0.68676067533E+03  0.69984906292E+03  0.47000000000E+01 0. -1.
        -13    1    6    6    0    0  0.17789977453E+02  0.51903702096E+02  0.19587836074E+03  0.20341782074E+03  0.00000000000E+00 0.  1.
         14    1    6    6    0    0  0.10592629908E+02 -0.17924075003E+02  0.13519385429E+02  0.24824384292E+02  0.00000000000E+00 0. -1.
         -5    1    3    3    0  503 -0.90810005381E+01  0.20153130040E+02  0.30428508573E+02  0.37902471623E+02  0.47000000000E+01 0.  1.
         11    1    4    4    0    0 -0.10595103972E+03 -0.77982876865E+02 -0.55023027038E+02  0.14259903718E+03  0.00000000000E+00 0. -1.
        -12    1    4    4    0    0 -0.47550377451E+02  0.13042409779E+02 -0.50032427360E+02  0.70245189416E+02  0.00000000000E+00 0.  1.
</event>
<event>
12    1  0.8407180E-002  0.1761486E+03  0.7818608E-02  0.1171592E+00
         21   -1    0    0  501  502  0.00000000000E+00  0.00000000000E+00  0.49590088929E+02  0.49590088929E+02  0.00000000000E+00 0.  1.
         21   -1    0    0  502  503 -0.00000000000E+00 -0.00000000000E+00 -0.12055745206E+04  0.12055745206E+04  0.00000000000E+00 0.  1.
         -6    2    1    2    0  503  0.37108822847E+02 -0.13897227096E+01 -0.10133200416E+04  0.10285163245E+04  0.17218979969E+03 0.  0.
        -24    2    3    3    0    0  0.69714623124E+02  0.48708581649E+02 -0.65112172332E+03  0.66138870360E+03  0.79011796970E+02 0.  0.
          6    2    1    2  501    0 -0.37108822847E+02  0.13897227096E+01 -0.14266439013E+03  0.22664828503E+03  0.17215493264E+03 0.  0.
         24    2    5    5    0    0 -0.43002916966E+02 -0.63310167032E+01 -0.75374467104E+01  0.91091171600E+02  0.79696021234E+02 0.  0.
          5    1    5    5  501    0  0.58940941191E+01  0.77207394128E+01 -0.13512694342E+03  0.13555711343E+03  0.47000000000E+01 0. -1.
        -11    1    6    6    0    0 -0.63503438940E+02 -0.91238512791E+01 -0.19673972930E+02  0.67104371171E+02  0.00000000000E+00 0.  1.
         12    1    6    6    0    0  0.20500521974E+02  0.27928345760E+01  0.12136526219E+02  0.23986800430E+02  0.00000000000E+00 0. -1.
         -5    1    3    3    0  503 -0.32605800277E+02 -0.50098304359E+02 -0.36219831824E+03  0.36712762093E+03  0.47000000000E+01 0.  1.
         11    1    4    4    0    0  0.87289039964E+01 -0.65639399343E+01 -0.93982510582E+01  0.14408545915E+02  0.00000000000E+00 0. -1.
        -12    1    4    4    0    0  0.60985719128E+02  0.55272521584E+02 -0.64172347227E+03  0.64698015768E+03  0.00000000000E+00 0.  1.
</event>
<event>
12    1  0.8407180E-002  0.2148414E+03  0.7818608E-02  0.1138595E+00
         21   -1    0    0  503  502  0.00000000000E+00  0.00000000000E+00  0.27252394022E+04  0.27252394022E+04  0.00000000000E+00 0. -1.
         21   -1    0    0  501  503 -0.00000000000E+00 -0.00000000000E+00 -0.17725931465E+02  0.17725931465E+02  0.00000000000E+00 0. -1.
          6    2    1    2  501    0  0.98979931635E+02 -0.68391152893E+02  0.10221889219E+04  0.10445223951E+04  0.17799568887E+03 0.  0.
         24    2    3    3    0    0  0.13315980814E+03 -0.70932390839E+02  0.93590761272E+03  0.95156393044E+03  0.82388807410E+02 0.  0.
         -6    2    1    2    0  502 -0.98979931635E+02  0.68391152893E+02  0.16853245489E+04  0.16984429386E+04  0.17296012204E+03 0.  0.
        -24    2    5    5    0    0 -0.29517433899E+02 -0.16767574005E+02  0.10200514831E+04  0.10241378226E+04  0.84857651724E+02 0.  0.
          5    1    3    3  501    0 -0.34179876502E+02  0.25412379453E+01  0.86281309130E+02  0.92958464667E+02  0.47000000000E+01 0. -1.
        -11    1    4    4    0    0  0.11537599535E+03 -0.30186037392E+02  0.79249811419E+03  0.80142128632E+03  0.00000000000E+00 0.  1.
         12    1    4    4    0    0  0.17783812784E+02 -0.40746353446E+02  0.14340949853E+03  0.15014264412E+03  0.00000000000E+00 0. -1.
         -5    1    5    5    0  502 -0.69462497736E+02  0.85158726898E+02  0.66527306576E+03  0.67430511594E+03  0.47000000000E+01 0.  1.
         11    1    6    6    0    0 -0.25757390164E+02  0.14499820520E+02  0.88380010315E+03  0.88429424417E+03  0.00000000000E+00 0. -1.
        -12    1    6    6    0    0 -0.37600437347E+01 -0.31267394525E+02  0.13625137999E+03  0.13984357847E+03  0.00000000000E+00 0.  1.
</event>
<event>
12    1  0.8407180E-002  0.1847864E+03  0.7818608E-02  0.1163971E+00
         21   -1    0    0  503  502  0.00000000000E+00  0.00000000000E+00  0.68103123444E+03  0.68103123444E+03  0.00000000000E+00 0.  1.
         21   -1    0    0  501  503 -0.00000000000E+00 -0.00000000000E+00 -0.49685409135E+02  0.49685409135E+02  0.00000000000E+00 0. -1.
          6    2    1    2  501    0  0.63486580555E+02 -0.22447934528E+02  0.28664629264E+03  0.34104563010E+03  0.17208012393E+03 0.  0.
         24    2    3    3    0    0  0.35845001823E+02 -0.37938688409E+02  0.29321954536E+03  0.30834520225E+03  0.79842681173E+02 0.  0.
         -6    2    1    2    0  502 -0.63486580555E+02  0.22447934528E+02  0.34469953266E+03  0.38967101347E+03  0.16879358769E+03 0.  0.
        -24    2    5    5    0    0  0.18526044176E+02  0.47108705659E+02  0.19941057066E+03  0.22095469319E+03  0.80585087275E+02 0.  0.
          5    1    3    3  501    0  0.27641578732E+02  0.15490753882E+02 -0.65732527157E+01  0.32700427855E+02  0.47000000000E+01 0. -1.
        -13    1    4    4    0    0  0.50048564834E+02 -0.21988924345E+02  0.10015174897E+03  0.11409971279E+03  0.00000000000E+00 0.  1.
         14    1    4    4    0    0 -0.14203563011E+02 -0.15949764064E+02  0.19306779638E+03  0.19424548946E+03  0.00000000000E+00 0. -1.
         -5    1    5    5    0  502 -0.82012624731E+02 -0.24660771131E+02  0.14528896200E+03  0.16871632028E+03  0.47000000000E+01 0.  1.
         11    1    6    6    0    0  0.19700743367E+02  0.19730691074E+02  0.10075540754E+02  0.29646854486E+02  0.00000000000E+00 0. -1.
        -12    1    6    6    0    0 -0.11746991912E+01  0.27378014585E+02  0.18933502991E+03  0.19130783871E+03  0.00000000000E+00 0.  1.
</event>
<event>
12    1  0.8407180E-002  0.1993915E+03  0.7818608E-02  0.1150381E+00
         21   -1    0    0  501  502  0.00000000000E+00  0.00000000000E+00  0.88947438451E+02  0.88947438451E+02  0.00000000000E+00 0. -1.
         21   -1    0    0  502  503 -0.00000000000E+00 -0.00000000000E+00 -0.12231326879E+04  0.12231326879E+04  0.00000000000E+00 0.  1.
         -6    2    1    2    0  503 -0.89469674430E+02 -0.41118949409E+02 -0.10898343667E+04  0.11078156992E+04  0.17268782812E+03 0.  0.
        -24    2    3    3    0    0  0.83200419950E+01 -0.42012408977E+02 -0.62610686904E+03  0.63386537589E+03  0.89113622342E+02 0.  0.
          6    2    1    2  501    0  0.89469674430E+02  0.41118949409E+02 -0.44350882756E+02  0.20426442713E+03  0.17338213502E+03 0.  0.
         24    2    5    5    0    0  0.32741859835E+01 -0.25573257157E+02 -0.44190574179E+02  0.95179009475E+02  0.80259113021E+02 0.  0.
          5    1    5    5  501    0  0.86195488447E+02  0.66692206565E+02 -0.16030857712E+00  0.10908541765E+03  0.47000000000E+01 0. -1.
        -11    1    6    6    0    0 -0.37121048087E+02 -0.18640522838E+01 -0.23497764769E+02  0.43972626157E+02  0.00000000000E+00 0.  1.
         12    1    6    6    0    0  0.40395234070E+02 -0.23709204873E+02 -0.20692809410E+02  0.51206383319E+02  0.00000000000E+00 0. -1.
         -5    1    3    3    0  503 -0.97789716425E+02  0.89345956846E+00 -0.46372749762E+03  0.47395032330E+03  0.47000000000E+01 0.  1.
         11    1    4    4    0    0 -0.30036941873E+02 -0.16372936264E+02 -0.99014592557E+02  0.10475772267E+03  0.00000000000E+00 0. -1.
        -12    1    4    4    0    0  0.38356983868E+02 -0.25639472713E+02 -0.52709227648E+03  0.52910765322E+03  0.00000000000E+00 0.  1.
</event>
<event>
12    1  0.8407180E-002  0.1832809E+03  0.7818608E-02  0.1168622E+00
         21   -1    0    0  503  502  0.00000000000E+00  0.00000000000E+00  0.43125628689E+02  0.43125628689E+02  0.00000000000E+00 0. -1.
         21   -1    0    0  501  503 -0.00000000000E+00 -0.00000000000E+00 -0.18034296090E+04  0.18034296090E+04  0.00000000000E+00 0. -1.
          6    2    1    2  501    0 -0.46044860036E+01 -0.65512172981E+02 -0.15820913929E+04  0.15909155918E+04  0.15390321229E+03 0.  0.
         24    2    3    3    0    0  0.14935418137E+02 -0.98927638218E+00 -0.49368195588E+03  0.50041011059E+03  0.80401242727E+02 0.  0.
         -6    2    1    2    0  502  0.46044860036E+01  0.65512172981E+02 -0.17821258740E+03  0.25563964584E+03  0.17111065461E+03 0.  0.
        -24    2    5    5    0    0 -0.18970414163E+02  0.89799630980E+02 -0.18451105531E+03  0.22089173609E+03  0.79529737864E+02 0.  0.
          5    1    3    3  501    0 -0.19539904140E+02 -0.64522896599E+02 -0.10884094370E+04  0.10905054812E+04  0.47000000000E+01 0. -1.
        -11    1    4    4    0    0 -0.12039998167E+02  0.46943005778E+00 -0.91600323406E+01  0.15135657003E+02  0.00000000000E+00 0.  1.
         12    1    4    4    0    0  0.26975416304E+02 -0.14587064400E+01 -0.48452192354E+03  0.48527445359E+03  0.00000000000E+00 0. -1.
         -5    1    5    5    0  502  0.23574900166E+02 -0.24287457999E+02  0.62984679123E+01  0.34747909749E+02  0.47000000000E+01 0.  1.
         11    1    6    6    0    0 -0.50136931010E+02  0.50169067510E+02 -0.11224197272E+03  0.13277389663E+03  0.00000000000E+00 0. -1.
        -12    1    6    6    0    0  0.31166516847E+02  0.39630563471E+02 -0.72269082590E+02  0.88117839464E+02  0.00000000000E+00 0.  1.
</event>
<event>
12    1  0.8407180E-002  0.1752913E+03  0.7818608E-02  0.1172571E+00
         21   -1    0    0  501  502  0.00000000000E+00  0.00000000000E+00  0.47338557140E+02  0.47338557140E+02  0.00000000000E+00 0. -1.
         21   -1    0    0  502  503 -0.00000000000E+00 -0.00000000000E+00 -0.77533065700E+03  0.77533065700E+03  0.00000000000E+00 0. -1.
         -6    2    1    2    0  503  0.11014260108E+02  0.31532455923E+02 -0.53079020053E+03  0.55882145560E+03  0.17154466638E+03 0.  0.
        -24    2    3    3    0    0  0.46910289343E+02  0.52331456128E+02 -0.48596896688E+03  0.49756660837E+03  0.80420995041E+02 0.  0.
          6    2    1    2  501    0 -0.11014260108E+02 -0.31532455923E+02 -0.19720189933E+03  0.26384775854E+03  0.17207975152E+03 0.  0.
         24    2    5    5    0    0  0.29846064054E+02 -0.98908100783E+01 -0.19491392282E+03  0.21731549272E+03  0.90807325718E+02 0.  0.
          5    1    5    5  501    0 -0.40860324162E+02 -0.21641645845E+02 -0.22879765140E+01  0.46532265817E+02  0.47000000000E+01 0. -1.
        -11    1    6    6    0    0  0.42479033028E+01 -0.92383571745E+01 -0.19116594582E+03  0.19143617935E+03  0.00000000000E+00 0.  1.
         12    1    6    6    0    0  0.25598160751E+02 -0.65245290379E+00 -0.37479770013E+01  0.25879313365E+02  0.00000000000E+00 0. -1.
         -5    1    3    3    0  503 -0.35896029234E+02 -0.20799000205E+02 -0.44821233646E+02  0.61254847236E+02  0.47000000000E+01 0.  1.
         11    1    4    4    0    0  0.20744238008E+01  0.32385392008E+02 -0.37288189313E+03  0.37429136121E+03  0.00000000000E+00 0. -1.
        -12    1    4    4    0    0  0.44835865542E+02  0.19946064120E+02 -0.11308707375E+03  0.12327524716E+03  0.00000000000E+00 0.  1.
</event>
<event>
12    1  0.8407180E-002  0.3951556E+03  0.7818608E-02  0.1045590E+00
         21   -1    0    0  501  502  0.00000000000E+00  0.00000000000E+00  0.19014129725E+03  0.19014129725E+03  0.00000000000E+00 0.  1.
         21   -1    0    0  502  503 -0.00000000000E+00 -0.00000000000E+00 -0.95358443793E+03  0.95358443793E+03  0.00000000000E+00 0. -1.
         -6    2    1    2    0  503 -0.19030563143E+03  0.30042387974E+03 -0.16696218729E+03  0.42898055883E+03  0.17227073750E+03 0.  0.
        -24    2    3    3    0    0 -0.61731632268E+02  0.21476380140E+03 -0.12918175041E+03  0.26986307490E+03  0.78764647802E+02 0.  0.
          6    2    1    2  501    0  0.19030563143E+03 -0.30042387974E+03 -0.59648095338E+03  0.71474517635E+03  0.16911652340E+03 0.  0.
         24    2    5    5    0    0  0.15505408602E+03 -0.17696201654E+03 -0.48651292240E+03  0.54562817259E+03  0.75219373685E+02 0.  0.
          5    1    5    5  501    0  0.35251545412E+02 -0.12346186321E+03 -0.10996803098E+03  0.16911700375E+03  0.47000000000E+01 0. -1.
        -11    1    6    6    0    0  0.54902127716E+02 -0.16093491812E+02 -0.12456063532E+03  0.13707149951E+03  0.00000000000E+00 0.  1.
         12    1    6    6    0    0  0.10015195830E+03 -0.16086852472E+03 -0.36195228708E+03  0.40855667308E+03  0.00000000000E+00 0. -1.
         -5    1    3    3    0  503 -0.12857399916E+03  0.85660078344E+02 -0.37780436885E+02  0.15911748393E+03  0.47000000000E+01 0.  1.
         11    1    4    4    0    0  0.12603042414E+02  0.39441029017E+02 -0.46484794903E+02  0.62251647409E+02  0.00000000000E+00 0. -1.
        -12    1    4    4    0    0 -0.74334674682E+02  0.17532277238E+03 -0.82696955503E+02  0.20761142749E+03  0.00000000000E+00 0.  1.
</event>
<event>
12    1  0.8407180E-002  0.1866165E+03  0.7818608E-02  0.1163740E+00
         21   -1    0    0  501  502  0.00000000000E+00  0.00000000000E+00  0.37923302706E+04  0.37923302706E+04  0.00000000000E+00 0.  1.
         21   -1    0    0  502  503 -0.00000000000E+00 -0.00000000000E+00 -0.10095286101E+02  0.10095286101E+02  0.00000000000E+00 0.  1.
         -6    2    1    2    0  503 -0.24929554163E+02 -0.29703844629E+02  0.12347543825E+04  0.12487770437E+04  0.18254292259E+03 0.  0.
        -24    2    3    3    0    0  0.42438554854E+02  0.37071648535E+01  0.40074643743E+03  0.41137266099E+03  0.82552922922E+02 0.  0.
          6    2    1    2  501    0  0.24929554163E+02  0.29703844629E+02  0.25474806020E+04  0.25536485130E+04  0.17308815555E+03 0.  0.
         24    2    5    5    0    0  0.53302068487E+02  0.40268189822E+02  0.24311184706E+04  0.24333204590E+04  0.79049355917E+02 0.  0.
          5    1    5    5  501    0 -0.28372514325E+02 -0.10564345192E+02  0.11636213137E+03  0.12032805399E+03  0.47000000000E+01 0. -1.
        -13    1    6    6    0    0  0.21499021641E+00  0.48898348960E+02  0.13106886176E+04  0.13116004525E+04  0.00000000000E+00 0.  1.
         14    1    6    6    0    0  0.53087078271E+02 -0.86301591383E+01  0.11204298530E+04  0.11217200065E+04  0.00000000000E+00 0. -1.
         -5    1    3    3    0  503 -0.67368109016E+02 -0.33411009483E+02  0.83400794509E+03  0.83740438269E+03  0.47000000000E+01 0.  1.
         11    1    4    4    0    0  0.27956467924E+02  0.22060811073E+02  0.37463648407E+03  0.37632530964E+03  0.00000000000E+00 0. -1.
        -12    1    4    4    0    0  0.14482086929E+02 -0.18353646220E+02  0.26109953363E+02  0.35047351341E+02  0.00000000000E+00 0.  1.
</event>
<event>
12    1  0.8407180E-002  0.1839563E+03  0.7818608E-02  0.1164029E+00
         21   -1    0    0  503  502  0.00000000000E+00  0.00000000000E+00  0.38375773431E+03  0.38375773431E+03  0.00000000000E+00 0.  1.
         21   -1    0    0  501  503 -0.00000000000E+00 -0.00000000000E+00 -0.20819423611E+03  0.20819423611E+03  0.00000000000E+00 0.  1.
          6    2    1    2  501    0 -0.64836488646E+02  0.75945219305E+01 -0.13693786071E+03  0.22932926881E+03  0.17198397836E+03 0.  0.
         24    2    3    3    0    0  0.25591327700E+02 -0.31626273894E+01 -0.10666185118E+03  0.13324788152E+03  0.75586567364E+02 0.  0.
         -6    2    1    2    0  502  0.64836488646E+02 -0.75945219305E+01  0.31250135892E+03  0.36262270162E+03  0.17197871200E+03 0.  0.
        -24    2    5    5    0    0 -0.29089601450E+02  0.37895865741E+01  0.10658820645E+03  0.13596431398E+03  0.79149750746E+02 0.  0.
          5    1    3    3  501    0 -0.90427816346E+02  0.10757149320E+02 -0.30276009530E+02  0.96081387290E+02  0.47000000000E+01 0. -1.
        -11    1    4    4    0    0 -0.17740777934E+02 -0.19078019589E+02 -0.68724265760E+02  0.73496467517E+02  0.00000000000E+00 0.  1.
         12    1    4    4    0    0  0.43332105634E+02  0.15915392200E+02 -0.37937585424E+02  0.59751414003E+02  0.00000000000E+00 0. -1.
         -5    1    5    5    0  502  0.93926090096E+02 -0.11384108505E+02  0.20591315246E+03  0.22665838763E+03  0.47000000000E+01 0.  1.
         11    1    6    6    0    0 -0.75665391459E+01  0.23488802957E+02 -0.79258080610E+00  0.24690171392E+02  0.00000000000E+00 0. -1.
        -12    1    6    6    0    0 -0.21523062304E+02 -0.19699216383E+02  0.10738078726E+03  0.11127414259E+03  0.00000000000E+00 0.  1.
</event>
<event>
12    1  0.8407180E-002  0.1985776E+03  0.7818608E-02  0.1151110E+00
         21   -1    0    0  501  502  0.00000000000E+00  0.00000000000E+00  0.39409642119E+03  0.39409642119E+03  0.00000000000E+00 0.  1.
         21   -1    0    0  502  503 -0.00000000000E+00 -0.00000000000E+00 -0.11054686935E+03  0.11054686935E+03  0.00000000000E+00 0.  1.
         -6    2    1    2    0  503 -0.27122219920E+02 -0.95014984109E+02  0.62873604201E+02  0.20829345035E+03  0.17224868456E+03 0.  0.
        -24    2    3    3    0    0 -0.14329385513E+02 -0.11374005531E+03  0.70632709757E+00  0.14195232249E+03  0.83712791680E+02 0.  0.
          6    2    1    2  501    0  0.27122219920E+02  0.95014984109E+02  0.22067594763E+03  0.29634984020E+03  0.17135312049E+03 0.  0.
         24    2    5    5    0    0 -0.79465627147E+01  0.12724470374E+03  0.15848782483E+03  0.21787674315E+03  0.78086631990E+02 0.  0.
          5    1    5    5  501    0  0.35068782635E+02 -0.32229719630E+02  0.62188122803E+02  0.78473097051E+02  0.47000000000E+01 0. -1.
        -11    1    6    6    0    0  0.32222824241E+02  0.32386297278E+02  0.38584494391E+02  0.59799212878E+02  0.00000000000E+00 0.  1.
         12    1    6    6    0    0 -0.40169386956E+02  0.94858406461E+02  0.11990333044E+03  0.15807753027E+03  0.00000000000E+00 0. -1.
         -5    1    3    3    0  503 -0.12792834408E+02  0.18725071196E+02  0.62167277103E+02  0.66341127861E+02  0.47000000000E+01 0.  1.
         13    1    4    4    0    0  0.29779083197E+02 -0.15827051234E+02  0.67509517069E+01  0.34392800057E+02  0.00000000000E+00 0. -1.
        -14    1    4    4    0    0 -0.44108468710E+02 -0.97913004072E+02 -0.60446246094E+01  0.10755952243E+03  0.00000000000E+00 0.  1.
</event>
<event>
12    1  0.8407180E-002  0.2132036E+03  0.7818608E-02  0.1139379E+00
         21   -1    0    0  503  502  0.00000000000E+00  0.00000000000E+00  0.67547052004E+03  0.67547052004E+03  0.00000000000E+00 0. -1.
         21   -1    0    0  501  503 -0.00000000000E+00 -0.00000000000E+00 -0.12542097320E+03  0.12542097320E+03  0.00000000000E+00 0.  1.
          6    2    1    2  501    0  0.28682591340E+02 -0.12361226878E+03  0.60980123141E+00  0.21153608780E+03  0.16924674456E+03 0.  0.
         24    2    3    3    0    0 -0.32056348665E+02 -0.56517277871E+02  0.39782034017E+02  0.11280660659E+03  0.83191995242E+02 0.  0.
         -6    2    1    2    0  502 -0.28682591340E+02  0.12361226878E+03  0.54943974560E+03  0.58935540544E+03  0.17132739372E+03 0.  0.
        -24    2    5    5    0    0 -0.83739799628E+02  0.71757176190E+02  0.38201293350E+03  0.40557816468E+03  0.79989498852E+02 0.  0.
          5    1    3    3  501    0  0.60738940006E+02 -0.67094990912E+02 -0.39172232786E+02  0.98729481210E+02  0.47000000000E+01 0. -1.
        -13    1    4    4    0    0 -0.92734021812E+01 -0.68256310414E+02  0.42748734012E+01  0.69015899922E+02  0.00000000000E+00 0.  1.
         14    1    4    4    0    0 -0.22782946484E+02  0.11739032544E+02  0.35507160616E+02  0.43790706669E+02  0.00000000000E+00 0. -1.
         -5    1    5    5    0  502  0.55057208287E+02  0.51855092593E+02  0.16742681211E+03  0.18377724077E+03  0.47000000000E+01 0.  1.
         11    1    6    6    0    0 -0.86116368294E+01  0.66891559510E+01  0.18108262139E+03  0.18141064155E+03  0.00000000000E+00 0. -1.
        -12    1    6    6    0    0 -0.75128162798E+02  0.65068020239E+02  0.20093031210E+03  0.22416752313E+03  0.00000000000E+00 0.  1.
</event>
<event>
12    1  0.8407180E-002  0.2032174E+03  0.7818608E-02  0.1150416E+00
         21   -1    0    0  503  502  0.00000000000E+00  0.00000000000E+00  0.46502378118E+02  0.46502378118E+02  0.00000000000E+00 0. -1.
         21   -1    0    0  501  503 -0.00000000000E+00 -0.00000000000E+00 -0.10681700335E+04  0.10681700335E+04  0.00000000000E+00 0.  1.
          6    2    1    2  501    0 -0.72716505676E+02  0.79138145819E+02 -0.76298425123E+03  0.78571280212E+03  0.15378265012E+03 0.  0.
         24    2    3    3    0    0 -0.63410595247E+02  0.97902387451E+01 -0.49647207206E+03  0.51012876081E+03  0.98132980702E+02 0.  0.
         -6    2    1    2    0  502  0.72716505676E+02 -0.79138145819E+02 -0.25868340413E+03  0.32895960947E+03  0.17247256237E+03 0.  0.
        -24    2    5    5    0    0 -0.17426153719E+02 -0.50980470685E+01 -0.14080783697E+03  0.16305489405E+03  0.80189716320E+02 0.  0.
          5    1    3    3  501    0 -0.93059104297E+01  0.69347907074E+02 -0.26651217916E+03  0.27558404132E+03  0.47000000000E+01 0. -1.
        -11    1    4    4    0    0  0.18465852955E+02  0.17919627359E+02 -0.22487059936E+03  0.22633799333E+03  0.00000000000E+00 0.  1.
         12    1    4    4    0    0 -0.81876448202E+02 -0.81293886136E+01 -0.27160147270E+03  0.28379076747E+03  0.00000000000E+00 0. -1.
         -5    1    5    5    0  502  0.90142659395E+02 -0.74040098750E+02 -0.11787556716E+03  0.16590471542E+03  0.47000000000E+01 0.  1.
         13    1    6    6    0    0 -0.13492761796E+02 -0.33856260453E+02 -0.26348980539E+02  0.44972989318E+02  0.00000000000E+00 0. -1.
        -14    1    6    6    0    0 -0.39333919232E+01  0.28758213385E+02 -0.11445885644E+03  0.11808190473E+03  0.00000000000E+00 0.  1.
</event>
<event>
12    1  0.8407180E-002  0.2043372E+03  0.7818608E-02  0.1146133E+00
         21   -1    0    0  501  502  0.00000000000E+00  0.00000000000E+00  0.81436441417E+02  0.81436441417E+02  0.00000000000E+00 0. -1.
         21   -1    0    0  502  503 -0.00000000000E+00 -0.00000000000E+00 -0.74466400556E+03  0.74466400556E+03  0.00000000000E+00 0. -1.
         -6    2    1    2    0  503 -0.92975642178E+02 -0.59951665245E+02 -0.56216060620E+03  0.59814565600E+03  0.17179932021E+03 0.  0.
        -24    2    3    3    0    0 -0.82867939879E+02  0.23060103500E+02 -0.28327288214E+03  0.30695229751E+03  0.81100698885E+02 0.  0.
          6    2    1    2  501    0  0.92975642178E+02  0.59951665245E+02 -0.10106695794E+03  0.22795479097E+03  0.17178528614E+03 0.  0.
         24    2    5    5    0    0  0.74915769544E+02 -0.22025049505E+02 -0.35758306357E+02  0.12149517078E+03  0.85935701057E+02 0.  0.
          5    1    5    5  501    0  0.18059872634E+02  0.81976714750E+02 -0.65308651582E+02  0.10645962020E+03  0.47000000000E+01 0. -1.
        -11    1    6    6    0    0  0.27145604400E+02 -0.22842243449E+02 -0.58627930942E+02  0.68526536542E+02  0.00000000000E+00 0.  1.
         12    1    6    6    0    0  0.47770165144E+02  0.81719394402E+00  0.22869624585E+02  0.52968634233E+02  0.00000000000E+00 0. -1.
         -5    1    3    3    0  503 -0.10107702299E+02 -0.83011768745E+02 -0.27888772407E+03  0.29119335849E+03  0.47000000000E+01 0.  1.
         13    1    4    4    0    0 -0.16559537420E+01 -0.24156271174E+02 -0.53952590873E+02  0.59136703338E+02  0.00000000000E+00 0. -1.
        -14    1    4    4    0    0 -0.81211986137E+02  0.47216374674E+02 -0.22932029126E+03  0.24781559417E+03  0.00000000000E+00 0.  1.
</event>
<event>
12    1  0.8407180E-002  0.1944457E+03  0.7818608E-02  0.1154983E+00
         21   -1    0    0  501  502  0.00000000000E+00  0.00000000000E+00  0.81476733415E+02  0.81476733415E+02  0.00000000000E+00 0. -1.
         21   -1    0    0  502  503 -0.00000000000E+00 -0.00000000000E+00 -0.45936680590E+03  0.45936680590E+03  0.00000000000E+00 0. -1.
         -6    2    1    2    0  503  0.14568453528E+02 -0.88959511073E+02 -0.18186044385E+03  0.26623742924E+03  0.17228787898E+03 0.  0.
        -24    2    3    3    0    0 -0.54186399635E+02 -0.51930145452E+02 -0.14041376553E+03  0.17770313704E+03  0.78927013454E+02 0.  0.
          6    2    1    2  501    0 -0.14568453528E+02  0.88959511073E+02 -0.19602962863E+03  0.27460611007E+03  0.16986720089E+03 0.  0.
         24    2    5    5    0    0  0.33128118529E+01  0.50661850576E+01 -0.93169370431E+02  0.14059061649E+03  0.10511207783E+03 0.  0.
          5    1    5    5  501    0 -0.17881265381E+02  0.83893326015E+02 -0.10286025820E+03  0.13401549357E+03  0.47000000000E+01 0. -1.
        -13    1    6    6    0    0  0.70392266006E+01  0.38154409445E+02  0.29077587450E+01  0.38907129580E+02  0.00000000000E+00 0.  1.
         14    1    6    6    0    0 -0.37264147477E+01 -0.33088224387E+02 -0.96077129176E+02  0.10168348691E+03  0.00000000000E+00 0. -1.
         -5    1    3    3    0  503  0.68754853163E+02 -0.37029365620E+02 -0.41446678328E+02  0.88534292204E+02  0.47000000000E+01 0.  1.
         13    1    4    4    0    0 -0.55446377643E+02 -0.30979857426E+02 -0.39867758609E+02  0.74989936234E+02  0.00000000000E+00 0. -1.
        -14    1    4    4    0    0  0.12599780079E+01 -0.20950288026E+02 -0.10054600692E+03  0.10271320081E+03  0.00000000000E+00 0.  1.
</event>
<event>
12    1  0.8407180E-002  0.2391546E+03  0.7818608E-02  0.1120537E+00
         21   -1    0    0  501  502  0.00000000000E+00  0.00000000000E+00  0.45615831923E+03  0.45615831923E+03  0.00000000000E+00 0. -1.
         21   -1    0    0  502  503 -0.00000000000E+00 -0.00000000000E+00 -0.17250909075E+03  0.17250909075E+03  0.00000000000E+00 0.  1.
         -6    2    1    2    0  503  0.86424830251E+01  0.16448963805E+03 -0.23667784914E+02  0.23925928152E+03  0.17191075071E+03 0.  0.
        -24    2    3    3    0    0 -0.18770365733E+02  0.15123514174E+03  0.32944484005E+02  0.17480631462E+03  0.79041216333E+02 0.  0.
          6    2    1    2  501    0 -0.86424830251E+01 -0.16448963805E+03  0.30731701339E+03  0.38940812847E+03  0.17338803378E+03 0.  0.
         24    2    5    5    0    0 -0.18724106522E+02 -0.17177162261E+03  0.31931308662E+03  0.37150108504E+03  0.78715477553E+02 0.  0.
          5    1    5    5  501    0  0.10081623497E+02  0.72819845591E+01 -0.11996073224E+02  0.17907043426E+02  0.47000000000E+01 0. -1.
        -13    1    6    6    0    0  0.16351362352E+02 -0.78869942487E+01  0.60478712151E+02  0.63144646269E+02  0.00000000000E+00 0.  1.
         14    1    6    6    0    0 -0.35075468874E+02 -0.16388462836E+03  0.25883437446E+03  0.30835643877E+03  0.00000000000E+00 0. -1.
         -5    1    3    3    0  503  0.27412848758E+02  0.13254496313E+02 -0.56612268919E+02  0.64452966896E+02  0.47000000000E+01 0.  1.
         13    1    4    4    0    0 -0.19777324000E+02  0.15376217166E+02 -0.16755820769E+02  0.30138482520E+02  0.00000000000E+00 0. -1.
        -14    1    4    4    0    0  0.10069582678E+01  0.13585892457E+03  0.49700304774E+02  0.14466783210E+03  0.00000000000E+00 0.  1.
</event>
<event>
12    1  0.8407180E-002  0.3905897E+03  0.7818608E-02  0.1047104E+00
         21   -1    0    0  503  502  0.00000000000E+00  0.00000000000E+00  0.63336450793E+03  0.63336450793E+03  0.00000000000E+00 0. -1.
         21   -1    0    0  501  503 -0.00000000000E+00 -0.00000000000E+00 -0.24546650871E+03  0.24546650871E+03  0.00000000000E+00 0.  1.
          6    2    1    2  501    0 -0.34470882172E+03  0.62341502653E+02  0.13307082358E+03  0.41246508168E+03  0.17236288695E+03 0.  0.
         24    2    3    3    0    0 -0.23994243731E+03  0.16022718278E+02  0.15217808664E+03  0.29623856754E+03  0.82280119857E+02 0.  0.
         -6    2    1    2    0  502  0.34470882172E+03 -0.62341502653E+02  0.25482717565E+03  0.46636593496E+03  0.17277054473E+03 0.  0.
        -24    2    5    5    0    0  0.14302561808E+03  0.24536453345E+02  0.74934832084E+02  0.18245179453E+03  0.81333039393E+02 0.  0.
          5    1    3    3  501    0 -0.10476638440E+03  0.46318784375E+02 -0.19107263061E+02  0.11622651414E+03  0.47000000000E+01 0. -1.
        -13    1    4    4    0    0 -0.60887732765E+02  0.23687625348E+02  0.72132673093E+01  0.65730136324E+02  0.00000000000E+00 0.  1.
         14    1    4    4    0    0 -0.17905470455E+03 -0.76649070701E+01  0.14496481933E+03  0.23050843122E+03  0.00000000000E+00 0. -1.
         -5    1    5    5    0  502  0.20168320363E+03 -0.86877955998E+02  0.17989234356E+03  0.28391414043E+03  0.47000000000E+01 0.  1.
         13    1    6    6    0    0  0.22908817342E+02  0.37872431423E+02  0.30199599951E+02  0.53583120581E+02  0.00000000000E+00 0. -1.
        -14    1    6    6    0    0  0.12011680074E+03 -0.13335978078E+02  0.44735232133E+02  0.12886867395E+03  0.00000000000E+00 0.  1.
</event>
<event>
12    1  0.8407180E-002  0.1915536E+03  0.7818608E-02  0.1157147E+00
         21   -1    0    0  503  502  0.00000000000E+00  0.00000000000E+00  0.22281349417E+03  0.22281349417E+03  0.00000000000E+00 0.  1.
         21   -1    0    0  501  503 -0.00000000000E+00 -0.00000000000E+00 -0.17569031661E+03  0.17569031661E+03  0.00000000000E+00 0.  1.
          6    2    1    2  501    0  0.31258974799E+02  0.81444178013E+02 -0.26988285224E+02  0.19344544369E+03  0.17053590387E+03 0.  0.
         24    2    3    3    0    0 -0.85962399407E+01 -0.15358226777E+02  0.38278913155E+01  0.84216919708E+02  0.82268258413E+02 0.  0.
         -6    2    1    2    0  502 -0.31258974799E+02 -0.81444178013E+02  0.74111462778E+02  0.20505836709E+03  0.17013567339E+03 0.  0.
        -24    2    5    5    0    0 -0.27326931450E+02  0.77404171375E+01  0.17552670230E+01  0.90050271544E+02  0.85435912841E+02 0.  0.
          5    1    3    3  501    0  0.39855214740E+02  0.96802404790E+02 -0.30816176540E+02  0.10922852398E+03  0.47000000000E+01 0. -1.
        -11    1    4    4    0    0 -0.39762705950E+01  0.33851588077E+02 -0.34470868796E+01  0.34258183711E+02  0.00000000000E+00 0.  1.
         12    1    4    4    0    0 -0.46199693457E+01 -0.49209814854E+02  0.72749781950E+01  0.49958735998E+02  0.00000000000E+00 0. -1.
         -5    1    5    5    0  502 -0.39320433490E+01 -0.89184595150E+02  0.72356195755E+02  0.11500809555E+03  0.47000000000E+01 0.  1.
         11    1    6    6    0    0  0.18036563322E+02 -0.17036456469E+02 -0.22004038138E+02  0.33162270125E+02  0.00000000000E+00 0. -1.
        -12    1    6    6    0    0 -0.45363494773E+02  0.24776873607E+02  0.23759305161E+02  0.56888001419E+02  0.00000000000E+00 0.  1.
</event>
<event>
12    1  0.8407180E-002  0.1803400E+03  0.7818608E-02  0.1167599E+00
         21   -1    0    0  501  502  0.00000000000E+00  0.00000000000E+00  0.70638267143E+03  0.70638267143E+03  0.00000000000E+00 0.  1.
         21   -1    0    0  502  503 -0.00000000000E+00 -0.00000000000E+00 -0.55246724903E+02  0.55246724903E+02  0.00000000000E+00 0.  1.
         -6    2    1    2    0  503  0.37802198559E+02  0.40108829637E+02  0.16861898809E+03  0.24651278677E+03  0.17116794814E+03 0.  0.
        -24    2    3    3    0    0  0.19942860629E+02  0.87037195778E+02  0.15183145547E+03  0.19336075246E+03  0.79764644953E+02 0.  0.
          6    2    1    2  501    0 -0.37802198559E+02 -0.40108829637E+02  0.48251695844E+03  0.51511660956E+03  0.17171133286E+03 0.  0.
         24    2    5    5    0    0  0.38831889335E+02 -0.37466428519E+02  0.33403577001E+03  0.34793850385E+03  0.81053426333E+02 0.  0.
          5    1    5    5  501    0 -0.76634087893E+02 -0.26424011176E+01  0.14848118843E+03  0.16717810571E+03  0.47000000000E+01 0. -1.
        -11    1    6    6    0    0  0.28544276686E+02 -0.58193714361E+02  0.16414473810E+03  0.17647883490E+03  0.00000000000E+00 0.  1.
         12    1    6    6    0    0  0.10287612649E+02  0.20727285842E+02  0.16989103191E+03  0.17145966895E+03  0.00000000000E+00 0. -1.
         -5    1    3    3    0  503  0.17859337929E+02 -0.46928366141E+02  0.16787532618E+02  0.53152034310E+02  0.47000000000E+01 0.  1.
         13    1    4    4    0    0  0.35001353640E+02  0.94179490100E+02  0.14219170861E+03  0.17410730344E+03  0.00000000000E+00 0. -1.
        -14    1    4    4    0    0 -0.15058493011E+02 -0.71422943225E+01  0.96397468573E+01  0.19253449027E+02  0.00000000000E+00 0.  1.
</event>
<event>
12    1  0.8407180E-002  0.2141196E+03  0.7818608E-02  0.1138500E+00
         21   -1    0    0  501  502  0.00000000000E+00  0.00000000000E+00  0.51531789220E+03  0.51531789220E+03  0.00000000000E+00 0. -1.
         21   -1    0    0  502  503 -0.00000000000E+00 -0.00000000000E+00 -0.89224299002E+02  0.89224299002E+02  0.00000000000E+00 0. -1.
         -6    2    1    2    0  503 -0.12810446726E+03  0.73344737526E+00  0.18810472068E+03  0.28440801317E+03  0.17056740467E+03 0.  0.
        -24    2    3    3    0    0 -0.11106250188E+03  0.11282253468E+02  0.51263256513E+02  0.14602672033E+03  0.78953866367E+02 0.  0.
          6    2    1    2  501    0  0.12810446726E+03 -0.73344737526E+00  0.23798887253E+03  0.32013417804E+03  0.17156892500E+03 0.  0.
         24    2    5    5    0    0  0.67376530885E+02  0.55945031494E+02  0.19118516602E+03  0.22467209569E+03  0.79097025319E+02 0.  0.
          5    1    5    5  501    0  0.60727936371E+02 -0.56678478870E+02  0.46803706504E+02  0.95462082344E+02  0.47000000000E+01 0. -1.
        -13    1    6    6    0    0  0.61927596943E+02  0.30267701258E+02  0.18539215908E+03  0.19779133866E+03  0.00000000000E+00 0.  1.
         14    1    6    6    0    0  0.54489339415E+01  0.25677330236E+02  0.57930069439E+01  0.26880757032E+02  0.00000000000E+00 0. -1.
         -5    1    3    3    0  503 -0.17041965377E+02 -0.10548806093E+02  0.13684146416E+03  0.13838129284E+03  0.47000000000E+01 0.  1.
         11    1    4    4    0    0 -0.85702336496E+02  0.42553166242E+02  0.43107557666E+02  0.10494724373E+03  0.00000000000E+00 0. -1.
        -12    1    4    4    0    0 -0.25360165383E+02 -0.31270912774E+02  0.81556988476E+01  0.41079476599E+02  0.00000000000E+00 0.  1.
</event>
<event>
12    1  0.8407180E-002  0.2126709E+03  0.7818608E-02  0.1139620E+00
         21   -1    0    0  501  502  0.00000000000E+00  0.00000000000E+00  0.78701140264E+02  0.78701140264E+02  0.00000000000E+00 0. -1.
         21   -1    0    0  502  503 -0.00000000000E+00 -0.00000000000E+00 -0.71171826971E+03  0.71171826971E+03  0.00000000000E+00 0. -1.
         -6    2    1    2    0  503 -0.11917413535E+03  0.33450300856E+02 -0.14131167578E+03  0.25469266588E+03  0.17198246183E+03 0.  0.
        -24    2    3    3    0    0 -0.16293541262E+02 -0.34275398769E+02 -0.72960564119E+02  0.11374887746E+03  0.78582954635E+02 0.  0.
          6    2    1    2  501    0  0.11917413535E+03 -0.33450300856E+02 -0.49170545367E+03  0.53572674410E+03  0.17293783279E+03 0.  0.
         24    2    5    5    0    0 -0.34163450250E+01 -0.35803933866E+02 -0.25105666995E+03  0.26560104637E+03  0.78872499728E+02 0.  0.
          5    1    5    5  501    0  0.12259048037E+03  0.23536330100E+01 -0.24064878372E+03  0.27012569772E+03  0.47000000000E+01 0. -1.
        -11    1    6    6    0    0 -0.66439129707E+01  0.60537775057E+01  0.18977671464E+01  0.91864749384E+01  0.00000000000E+00 0.  1.
         12    1    6    6    0    0  0.32275679457E+01 -0.41857711371E+02 -0.25295443710E+03  0.25641457144E+03  0.00000000000E+00 0. -1.
         -5    1    3    3    0  503 -0.10288059408E+03  0.67725699625E+02 -0.68351111658E+02  0.14094378842E+03  0.47000000000E+01 0.  1.
         11    1    4    4    0    0 -0.43361360254E+02 -0.40349124942E+02 -0.45236109067E+02  0.74528954174E+02  0.00000000000E+00 0. -1.
        -12    1    4    4    0    0  0.27067818992E+02  0.60737261734E+01 -0.27724455052E+02  0.39219923286E+02  0.00000000000E+00 0.  1.
</event>
<event>
12    1  0.8407180E-002  0.2417068E+03  0.7818608E-02  0.1119156E+00
         21   -1    0    0  501  502  0.00000000000E+00  0.00000000000E+00  0.29252731488E+03  0.29252731488E+03  0.00000000000E+00 0. -1.
         21   -1    0    0  502  503 -0.00000000000E+00 -0.00000000000E+00 -0.26962714213E+03  0.26962714213E+03  0.00000000000E+00 0. -1.
         -6    2    1    2    0  503  0.16513666057E+03  0.15177630184E+01 -0.13421846936E+03  0.27386909948E+03  0.17238696548E+03 0.  0.
        -24    2    3    3    0    0  0.18403620858E+03  0.27014609974E+02 -0.97411468104E+02  0.22504157179E+03  0.80966657903E+02 0.  0.
          6    2    1    2  501    0 -0.16513666057E+03 -0.15177630184E+01  0.15711864211E+03  0.28828535752E+03  0.17649294432E+03 0.  0.
         24    2    5    5    0    0 -0.16255128836E+03 -0.53340890006E+02  0.15122806135E+03  0.23585340560E+03  0.59065476395E+02 0.  0.
          5    1    5    5  501    0 -0.25853722092E+01  0.51823126987E+02  0.58905807580E+01  0.52431951917E+02  0.47000000000E+01 0. -1.
        -11    1    6    6    0    0 -0.21240930906E+02 -0.28184545239E+02  0.16361292979E+02  0.38900355321E+02  0.00000000000E+00 0.  1.
         12    1    6    6    0    0 -0.14131035745E+03 -0.25156344767E+02  0.13486676837E+03  0.19695305028E+03  0.00000000000E+00 0. -1.
         -5    1    3    3    0  503 -0.18899548015E+02 -0.25496846955E+02 -0.36807001253E+02  0.48827527698E+02  0.47000000000E+01 0.  1.
         11    1    4    4    0    0  0.16826863273E+03  0.13452666840E+02 -0.10928491690E+03  0.20109326212E+03  0.00000000000E+00 0. -1.
        -12    1    4    4    0    0  0.15767575850E+02  0.13561943134E+02  0.11873448795E+02  0.23948309670E+02  0.00000000000E+00 0.  1.
</event>
<event>
12    1  0.8407180E-002  0.3236047E+03  0.7818608E-02  0.1074037E+00
         21   -1    0    0  503  502  0.00000000000E+00  0.00000000000E+00  0.65468334083E+03  0.65468334083E+03  0.00000000000E+00 0. -1.
         21   -1    0    0  501  503 -0.00000000000E+00 -0.00000000000E+00 -0.26704178071E+03  0.26704178071E+03  0.00000000000E+00 0. -1.
          6    2    1    2  501    0  0.24104669946E+03 -0.12944642613E+03 -0.98175105024E+02  0.33816913847E+03  0.17280082872E+03 0.  0.
         24    2    3    3    0    0  0.25199949825E+03 -0.93463020339E+02 -0.66264927993E+02  0.28861998417E+03  0.81678462830E+02 0.  0.
         -6    2    1    2    0  502 -0.24104669946E+03  0.12944642613E+03  0.48581666515E+03  0.58355598307E+03  0.17222039565E+03 0.  0.
        -24    2    5    5    0    0 -0.25578541227E+03  0.13456879995E+03  0.42243453414E+03  0.51811247384E+03  0.80340904046E+02 0.  0.
          5    1    3    3  501    0 -0.10952798787E+02 -0.35983405794E+02 -0.31910177031E+02  0.49549154301E+02  0.47000000000E+01 0.  1.
        -13    1    4    4    0    0  0.56481712203E+01 -0.24422453112E+02 -0.58431138902E+01  0.25739076015E+02  0.00000000000E+00 0.  1.
         14    1    4    4    0    0  0.24635132703E+03 -0.69040567226E+02 -0.60421814102E+02  0.26288090815E+03  0.00000000000E+00 0. -1.
         -5    1    5    5    0  502  0.14738712813E+02 -0.51223738174E+01  0.63382131005E+02  0.65443509225E+02  0.47000000000E+01 0.  1.
         11    1    6    6    0    0 -0.14697182799E+03  0.80896833306E+02  0.17439972395E+03  0.24199231305E+03  0.00000000000E+00 0. -1.
        -12    1    6    6    0    0 -0.10881358428E+03  0.53671966644E+02  0.24803481019E+03  0.27612016079E+03  0.00000000000E+00 0.  1.
</event>
<event>
12    1  0.8407180E-002  0.3189152E+03  0.7818608E-02  0.1076245E+00
         21   -1    0    0  501  502  0.00000000000E+00  0.00000000000E+00  0.11421911009E+04  0.11421911009E+04  0.00000000000E+00 0.  1.
         21   -1    0    0  502  503 -0.00000000000E+00 -0.00000000000E+00 -0.90711167457E+02  0.90711167457E+02  0.00000000000E+00 0. -1.
         -6    2    1    2    0  503 -0.10270722007E+03  0.24485771268E+03  0.43592836817E+03  0.53964139864E+03  0.17514343960E+03 0.  0.
        -24    2    3    3    0    0  0.12425932685E+00  0.80377681207E+02  0.23273976460E+03  0.25868643333E+03  0.79311321315E+02 0.  0.
          6    2    1    2  501    0  0.10270722007E+03 -0.24485771268E+03  0.61555156531E+03  0.69326086976E+03  0.17664323216E+03 0.  0.
         24    2    5    5    0    0  0.54451344500E+02 -0.60885343254E+02  0.13801382735E+03  0.17921919497E+03  0.79998308517E+02 0.  0.
          5    1    5    5  501    0  0.48255875567E+02 -0.18397236943E+03  0.47753773796E+03  0.51404167479E+03  0.47000000000E+01 0. -1.
        -13    1    6    6    0    0  0.57240819690E+02 -0.72284684514E+01  0.91405532252E+02  0.10809132029E+03  0.00000000000E+00 0.  1.
         14    1    6    6    0    0 -0.27894751893E+01 -0.53656874802E+02  0.46608295097E+02  0.71127874685E+02  0.00000000000E+00 0. -1.
         -5    1    3    3    0  503 -0.10283147939E+03  0.16448003147E+03  0.20318860358E+03  0.28095496531E+03  0.47000000000E+01 0.  1.
         13    1    4    4    0    0 -0.15803163334E+02  0.70531445367E+02  0.22826304247E+03  0.23943358435E+03  0.00000000000E+00 0. -1.
        -14    1    4    4    0    0  0.15927422660E+02  0.98462358403E+01  0.44767221231E+01  0.19252848979E+02  0.00000000000E+00 0.  1.
</event>
<event>
12    1  0.8407180E-002  0.1763314E+03  0.7818608E-02  0.1171502E+00
         21   -1    0    0  501  502  0.00000000000E+00  0.00000000000E+00  0.15297004527E+03  0.15297004527E+03  0.00000000000E+00 0. -1.
         21   -1    0    0  502  503 -0.00000000000E+00 -0.00000000000E+00 -0.46276754021E+03  0.46276754021E+03  0.00000000000E+00 0. -1.
         -6    2    1    2    0  503  0.40448890884E+02 -0.25115031128E+01 -0.38557434673E+03  0.42381344153E+03  0.17119531518E+03 0.  0.
        -24    2    3    3    0    0  0.15209878312E+01 -0.43311242299E+02 -0.33676278800E+03  0.34908286800E+03  0.81064765695E+02 0.  0.
          6    2    1    2  501    0 -0.40448890884E+02  0.25115031128E+01  0.75776851794E+02  0.19192414395E+03  0.17161097092E+03 0.  0.
         24    2    5    5    0    0  0.38089605185E+02  0.14153208825E+02  0.13218333020E+02  0.90733813638E+02  0.80042296733E+02 0.  0.
          5    1    5    5  501    0 -0.78538496069E+02 -0.11641705712E+02  0.62558518774E+02  0.10119033031E+03  0.47000000000E+01 0. -1.
        -13    1    6    6    0    0  0.69524144978E+01  0.43973642906E+02 -0.31180968362E+01  0.44628912889E+02  0.00000000000E+00 0.  1.
         14    1    6    6    0    0  0.31137190687E+02 -0.29820434081E+02  0.16336429856E+02  0.46104900749E+02  0.00000000000E+00 0. -1.
         -5    1    3    3    0  503  0.38927903053E+02  0.40799739187E+02 -0.48811558733E+02  0.74730573528E+02  0.47000000000E+01 0.  1.
         13    1    4    4    0    0  0.30350171519E+02 -0.51339679725E+02 -0.25857217601E+03  0.26536101038E+03  0.00000000000E+00 0. -1.
        -14    1    4    4    0    0 -0.28829183688E+02  0.80284374255E+01 -0.78190611993E+02  0.83721857620E+02  0.00000000000E+00 0.  1.
</event>
<event>
12    1  0.8407180E-002  0.1921441E+03  0.7818608E-02  0.1157084E+00
         21   -1    0    0  501  502  0.00000000000E+00  0.00000000000E+00  0.56317661534E+02  0.56317661534E+02  0.00000000000E+00 0.  1.
         21   -1    0    0  502  503 -0.00000000000E+00 -0.00000000000E+00 -0.76864799170E+03  0.76864799170E+03  0.00000000000E+00 0.  1.
         -6    2    1    2    0  503  0.58463374130E+02  0.53776368330E+02 -0.19418881724E+03  0.27318245315E+03  0.17495568599E+03 0.  0.
        -24    2    3    3    0    0  0.44830611195E+02  0.44828429487E+02 -0.21962127284E+03  0.24260766562E+03  0.81274867847E+02 0.  0.
          6    2    1    2  501    0 -0.58463374130E+02 -0.53776368330E+02 -0.51814151293E+03  0.55178320009E+03  0.17229105774E+03 0.  0.
         24    2    5    5    0    0  0.33352018011E+02 -0.11589760421E+02 -0.27117521007E+03  0.28490453689E+03  0.79924470187E+02 0.  0.
          5    1    5    5  501    0 -0.91815392141E+02 -0.42186607909E+02 -0.24696630286E+03  0.26687866320E+03  0.47000000000E+01 0. -1.
        -11    1    6    6    0    0  0.58305293406E+02 -0.16048777683E+02 -0.16463430728E+03  0.17538963949E+03  0.00000000000E+00 0.  1.
         12    1    6    6    0    0 -0.24953275395E+02  0.44590172628E+01 -0.10654090279E+03  0.10951489741E+03  0.00000000000E+00 0. -1.
         -5    1    3    3    0  503  0.13632762935E+02  0.89479388430E+01  0.25432455597E+02  0.30574787530E+02  0.47000000000E+01 0.  1.
         13    1    4    4    0    0  0.47131757187E+02  0.56567820392E+02 -0.11019984490E+03  0.13253424711E+03  0.00000000000E+00 0. -1.
        -14    1    4    4    0    0 -0.23011459918E+01 -0.11739390905E+02 -0.10942142793E+03  0.11007341851E+03  0.00000000000E+00 0.  1.
</event>
<event>
12    1  0.8407180E-002  0.2284414E+03  0.7818608E-02  0.1128004E+00
         21   -1    0    0  503  502  0.00000000000E+00  0.00000000000E+00  0.25728915637E+04  0.25728915637E+04  0.00000000000E+00 0. -1.
         21   -1    0    0  501  503 -0.00000000000E+00 -0.00000000000E+00 -0.29870465535E+02  0.29870465535E+02  0.00000000000E+00 0.  1.
          6    2    1    2  501    0 -0.12108954400E+03  0.85751380858E+02  0.52644462808E+03  0.57328767810E+03  0.17175225892E+03 0.  0.
         24    2    3    3    0    0 -0.10837598573E+03  0.79620173825E+01  0.41064145737E+03  0.43312604291E+03  0.84634594154E+02 0.  0.
         -6    2    1    2    0  502  0.12108954400E+03 -0.85751380858E+02  0.20165764701E+04  0.20294743511E+04  0.17369371096E+03 0.  0.
        -24    2    5    5    0    0  0.15461074626E+03 -0.52254721082E+02  0.15914421545E+04  0.16016812078E+04  0.77842928301E+02 0.  0.
          5    1    3    3  501    0 -0.12713558261E+02  0.77789363476E+02  0.11580317071E+03  0.14016163519E+03  0.47000000000E+01 0. -1.
        -13    1    4    4    0    0 -0.71168871875E+02  0.57009430378E+01  0.11653774222E+03  0.13666950807E+03  0.00000000000E+00 0.  1.
         14    1    4    4    0    0 -0.37207113859E+02  0.22610743447E+01  0.29410371516E+03  0.29645653484E+03  0.00000000000E+00 0. -1.
         -5    1    5    5    0  502 -0.33521202262E+02 -0.33496659777E+02  0.42513431557E+03  0.42779314335E+03  0.47000000000E+01 0.  1.
         11    1    6    6    0    0  0.99842841060E+01 -0.18523836007E+02  0.46708947488E+03  0.46756325344E+03  0.00000000000E+00 0. -1.
        -12    1    6    6    0    0  0.14462646215E+03 -0.33730885075E+02  0.11243526796E+04  0.11341179543E+04  0.00000000000E+00 0.  1.
</event>
<event>
12    1  0.8407180E-002  0.2703699E+03  0.7818608E-02  0.1101428E+00
         21   -1    0    0  503  502  0.00000000000E+00  0.00000000000E+00  0.38128946825E+03  0.38128946825E+03  0.00000000000E+00 0.  1.
         21   -1    0    0  501  503 -0.00000000000E+00 -0.00000000000E+00 -0.73456967324E+03  0.73456967324E+03  0.00000000000E+00 0. -1.
          6    2    1    2  501    0 -0.12659064550E+03 -0.16465721281E+03 -0.65726262914E+03  0.71069968344E+03  0.17309733424E+03 0.  0.
         24    2    3    3    0    0 -0.67880933595E+02 -0.70661250098E+02 -0.17226572635E+03  0.21317967682E+03  0.78544641582E+02 0.  0.
         -6    2    1    2    0  502  0.12659064550E+03  0.16465721281E+03  0.30398242415E+03  0.40515945806E+03  0.16914988325E+03 0.  0.
        -24    2    5    5    0    0  0.24449223886E+02  0.10418355972E+03  0.22897036473E+03  0.26466450518E+03  0.78535938968E+02 0.  0.
          5    1    3    3  501    0 -0.58709711905E+02 -0.93995962713E+02 -0.48499690278E+03  0.49752000662E+03  0.47000000000E+01 0. -1.
        -13    1    4    4    0    0  0.15185667201E+02 -0.83545018902E+01 -0.85878377060E+01  0.19343038713E+02  0.00000000000E+00 0.  1.
         14    1    4    4    0    0 -0.83066600796E+02 -0.62306748208E+02 -0.16367788865E+03  0.19383663811E+03  0.00000000000E+00 0. -1.
         -5    1    5    5    0  502  0.10214142161E+03  0.60473653088E+02  0.75012059415E+02  0.14049495288E+03  0.47000000000E+01 0.  1.
         13    1    6    6    0    0 -0.91402848372E+01 -0.18897294639E+01  0.70031216716E+02  0.70650457883E+02  0.00000000000E+00 0. -1.
        -14    1    6    6    0    0  0.33589508723E+02  0.10607328919E+03  0.15893914802E+03  0.19401404729E+03  0.00000000000E+00 0.  1.
</event>
<event>
12    1  0.8407180E-002  0.1843477E+03  0.7818608E-02  0.1164135E+00
         21   -1    0    0  501  502  0.00000000000E+00  0.00000000000E+00  0.89610941130E+02  0.89610941130E+02  0.00000000000E+00 0.  1.
         21   -1    0    0  502  503 -0.00000000000E+00 -0.00000000000E+00 -0.46411413237E+03  0.46411413237E+03  0.00000000000E+00 0.  1.
         -6    2    1    2    0  503  0.55299280389E+02 -0.29909904229E+02 -0.30932292201E+03  0.36008990690E+03  0.17329586892E+03 0.  0.
        -24    2    3    3    0    0  0.62708419903E+02 -0.74194887346E+02 -0.15630409707E+03  0.20055023828E+03  0.79700690565E+02 0.  0.
          6    2    1    2  501    0 -0.55299280389E+02  0.29909904229E+02 -0.65180269227E+02  0.19363516660E+03  0.17115343252E+03 0.  0.
         24    2    5    5    0    0 -0.26376030801E+02  0.82509822104E+02 -0.56752537360E+02  0.13283695617E+03  0.83193994271E+02 0.  0.
          5    1    5    5  501    0 -0.28923249588E+02 -0.52599917875E+02 -0.84277318667E+01  0.60798210431E+02  0.47000000000E+01 0. -1.
        -13    1    6    6    0    0  0.97579223359E+01  0.22331431818E+02  0.17997766034E+02  0.30295700645E+02  0.00000000000E+00 0.  1.
         14    1    6    6    0    0 -0.36133953137E+02  0.60178390286E+02 -0.74750303394E+02  0.10254125552E+03  0.00000000000E+00 0. -1.
         -5    1    3    3    0  503 -0.74091395137E+01  0.44284983117E+02 -0.15301882494E+03  0.15953966863E+03  0.47000000000E+01 0.  1.
         13    1    4    4    0    0  0.78873554167E+02 -0.49053895745E+02 -0.13491181821E+03  0.16379414192E+03  0.00000000000E+00 0. -1.
        -14    1    4    4    0    0 -0.16165134264E+02 -0.25140991601E+02 -0.21392278859E+02  0.36756096354E+02  0.00000000000E+00 0.  1.
</event>
<event>
12    1  0.8407180E-002  0.2075834E+03  0.7818608E-02  0.1143865E+00
         21   -1    0    0  501  502  0.00000000000E+00  0.00000000000E+00  0.13075108029E+03  0.13075108029E+03  0.00000000000E+00 0. -1.
         21   -1    0    0  502  503 -0.00000000000E+00 -0.00000000000E+00 -0.33241295745E+03  0.33241295745E+03  0.00000000000E+00 0.  1.
         -6    2    1    2    0  503  0.66527132633E+01  0.11372847905E+03 -0.70790913770E+02  0.21932216945E+03  0.17352934910E+03 0.  0.
        -24    2    3    3    0    0 -0.50810187233E+02  0.10038630558E+03 -0.13621407595E+02  0.13703948012E+03  0.77040190110E+02 0.  0.
          6    2    1    2  501    0 -0.66527132633E+01 -0.11372847905E+03 -0.13087096340E+03  0.24384186829E+03  0.17132782065E+03 0.  0.
         24    2    5    5    0    0  0.25833311378E+01  0.10635532279E+02 -0.69441489668E+02  0.10474700112E+03  0.77653239530E+02 0.  0.
          5    1    5    5  501    0 -0.92360444012E+01 -0.12436401133E+03 -0.61429473729E+02  0.13909486717E+03  0.47000000000E+01 0. -1.
        -13    1    6    6    0    0 -0.33498754700E+02 -0.12221350705E+02 -0.29740961941E+02  0.46433315590E+02  0.00000000000E+00 0.  1.
         14    1    6    6    0    0  0.36082085838E+02  0.22856882984E+02 -0.39700527727E+02  0.58313685529E+02  0.00000000000E+00 0. -1.
         -5    1    3    3    0  503  0.57462900497E+02  0.13342173470E+02 -0.57169506174E+02  0.82282689325E+02  0.47000000000E+01 0.  1.
         11    1    4    4    0    0 -0.33974025519E+02  0.64443065316E+02  0.29351921334E+02  0.78540934317E+02  0.00000000000E+00 0. -1.
        -12    1    4    4    0    0 -0.16836161714E+02  0.35943240266E+02 -0.42973328930E+02  0.58498545806E+02  0.00000000000E+00 0.  1.
</event>
<event>
12    1  0.8407180E-002  0.2016771E+03  0.7818608E-02  0.1148721E+00
         21   -1    0    0  501  502  0.00000000000E+00  0.00000000000E+00  0.38322839032E+03  0.38322839032E+03  0.00000000000E+00 0. -1.
         21   -1    0    0  502  503 -0.00000000000E+00 -0.00000000000E+00 -0.15241252044E+03  0.15241252044E+03  0.00000000000E+00 0. -1.
         -6    2    1    2    0  503 -0.53139684337E+01 -0.10325128266E+03 -0.33347124997E+02  0.20441545837E+03  0.17316057070E+03 0.  0.
        -24    2    3    3    0    0 -0.31943397808E+02 -0.55367791653E+02 -0.81342642408E+02  0.13142494590E+03  0.81055030163E+02 0.  0.
          6    2    1    2  501    0  0.53139684337E+01  0.10325128266E+03  0.26416299488E+03  0.33122545238E+03  0.17099458123E+03 0.  0.
         24    2    5    5    0    0 -0.59646762444E+02  0.61381133456E+02  0.12007260319E+03  0.16764936327E+03  0.79771543519E+02 0.  0.
          5    1    5    5  501    0  0.64960730877E+02  0.41870149201E+02  0.14409039169E+03  0.16357608911E+03  0.47000000000E+01 0. -1.
        -13    1    6    6    0    0  0.19720749090E+02  0.14504312035E+02  0.20176591407E+02  0.31723459035E+02  0.00000000000E+00 0.  1.
         14    1    6    6    0    0 -0.79367511534E+02  0.46876821421E+02  0.99896011778E+02  0.13592590424E+03  0.00000000000E+00 0. -1.
         -5    1    3    3    0  503  0.26629429374E+02 -0.47883491005E+02  0.47995517411E+02  0.72990512474E+02  0.47000000000E+01 0.  1.
         13    1    4    4    0    0 -0.16804167615E+02 -0.62609693337E+02 -0.20018769971E+02  0.67846185597E+02  0.00000000000E+00 0. -1.
        -14    1    4    4    0    0 -0.15139230193E+02  0.72419016839E+01 -0.61323872437E+02  0.63578760302E+02  0.00000000000E+00 0.  1.
</event>
<event>
12    1  0.8407180E-002  0.1982887E+03  0.7818608E-02  0.1151562E+00
         21   -1    0    0  503  502  0.00000000000E+00  0.00000000000E+00  0.14029908787E+03  0.14029908787E+03  0.00000000000E+00 0. -1.
         21   -1    0    0  501  503 -0.00000000000E+00 -0.00000000000E+00 -0.38412200744E+03  0.38412200744E+03  0.00000000000E+00 0. -1.
          6    2    1    2  501    0  0.61167738811E+02 -0.75137102353E+02 -0.26024610298E+03  0.32717950978E+03  0.17300670820E+03 0.  0.
         24    2    3    3    0    0  0.53001558837E+02  0.13328536314E+02 -0.19115942322E+03  0.21453886418E+03  0.80611314586E+02 0.  0.
         -6    2    1    2    0  502 -0.61167738811E+02  0.75137102353E+02  0.16423183411E+02  0.19724158553E+03  0.17101884600E+03 0.  0.
        -24    2    5    5    0    0 -0.89488534054E+01  0.45901708750E+02 -0.51630586658E+02  0.10649509330E+03  0.80550844655E+02 0.  0.
          5    1    3    3  501    0  0.81661799735E+01 -0.88465638667E+02 -0.69086679764E+02  0.11264064560E+03  0.47000000000E+01 0. -1.
        -13    1    4    4    0    0  0.10201549489E+02  0.32316286849E+01 -0.16067515746E+03  0.16103111892E+03  0.00000000000E+00 0.  1.
         14    1    4    4    0    0  0.42800009348E+02  0.10096907629E+02 -0.30484265755E+02  0.53507745257E+02  0.00000000000E+00 0. -1.
         -5    1    5    5    0  502 -0.52218885406E+02  0.29235393603E+02  0.68053770069E+02  0.90746492233E+02  0.47000000000E+01 0.  1.
         11    1    6    6    0    0 -0.41319765963E+02  0.38656409099E+02 -0.45840676751E+02  0.72821759582E+02  0.00000000000E+00 0. -1.
        -12    1    6    6    0    0  0.32370912558E+02  0.72452996511E+01 -0.57899099071E+01  0.33673333717E+02  0.00000000000E+00 0.  1.
</event>
<event>
12    1  0.8407180E-002  0.2306753E+03  0.7818608E-02  0.1126322E+00
         21   -1    0    0  501  502  0.00000000000E+00  0.00000000000E+00  0.65131337807E+03  0.65131337807E+03  0.00000000000E+00 0.  1.
         21   -1    0    0  502  503 -0.00000000000E+00 -0.00000000000E+00 -0.13739089864E+03  0.13739089864E+03  0.00000000000E+00 0. -1.
         -6    2    1    2    0  503  0.15309979398E+03  0.32953763299E+01  0.54710213040E+01  0.23074017199E+03  0.17251286466E+03 0.  0.
        -24    2    3    3    0    0  0.12649250083E+03  0.23233029443E+02 -0.55311701128E+02  0.16129892052E+03  0.80111366570E+02 0.  0.
          6    2    1    2  501    0 -0.15309979398E+03 -0.32953763299E+01  0.50845145812E+03  0.55796410473E+03  0.17132031541E+03 0.  0.
         24    2    5    5    0    0 -0.15129048179E+03 -0.17192000470E+01  0.27077113713E+03  0.32022520818E+03  0.79595287062E+02 0.  0.
          5    1    5    5  501    0 -0.18093121899E+01 -0.15761762828E+01  0.23768032100E+03  0.23773889655E+03  0.47000000000E+01 0. -1.
        -13    1    6    6    0    0 -0.12488555468E+03 -0.31150533320E+02  0.22909955131E+03  0.26278006375E+03  0.00000000000E+00 0.  1.
         14    1    6    6    0    0 -0.26404927109E+02  0.29431333273E+02  0.41671585819E+02  0.57445144429E+02  0.00000000000E+00 0. -1.
         -5    1    3    3    0  503  0.26607293146E+02 -0.19937653113E+02  0.60782722432E+02  0.69441251475E+02  0.47000000000E+01 0.  1.
         11    1    4    4    0    0  0.13639119345E+02  0.33383058927E+02 -0.21148018620E+01  0.36123767616E+02  0.00000000000E+00 0. -1.
        -12    1    4    4    0    0  0.11285338149E+03 -0.10150029485E+02 -0.53196899266E+02  0.12517515290E+03  0.00000000000E+00 0.  1.
</event>
<event>
12    1  0.8407180E-002  0.1744020E+03  0.7818608E-02  0.1173908E+00
         21   -1    0    0  503  502  0.00000000000E+00  0.00000000000E+00  0.26372918995E+03  0.26372918995E+03  0.00000000000E+00 0.  1.
         21   -1    0    0  501  503 -0.00000000000E+00 -0.00000000000E+00 -0.11389577003E+03  0.11389577003E+03  0.00000000000E+00 0.  1.
          6    2    1    2  501    0 -0.24158714918E+02  0.70546832805E+01  0.71168087677E+02  0.18836389803E+03  0.17257650279E+03 0.  0.
         24    2    3    3    0    0 -0.15304721625E+02 -0.53109507633E+02  0.66864400863E+01  0.99605259341E+02  0.82593249738E+02 0.  0.
         -6    2    1    2    0  502  0.24158714918E+02 -0.70546832805E+01  0.78665332246E+02  0.18926106195E+03  0.17028829382E+03 0.  0.
        -24    2    5    5    0    0 -0.78099164231E+01 -0.18206433666E+02 -0.20713091864E+02  0.84168169210E+02  0.79137724963E+02 0.  0.
          5    1    3    3  501    0 -0.88539932928E+01  0.60164190914E+02  0.64481647590E+02  0.88758638687E+02  0.47000000000E+01 0. -1.
        -11    1    4    4    0    0 -0.15370228165E+02 -0.39511725346E+02 -0.35490744030E+02  0.55290263750E+02  0.00000000000E+00 0.  1.
         12    1    4    4    0    0  0.65506540048E-01 -0.13597782287E+02  0.42177184117E+02  0.44314995591E+02  0.00000000000E+00 0. -1.
         -5    1    5    5    0  502  0.31968631341E+02  0.11151750385E+02  0.99378424110E+02  0.10509289274E+03  0.47000000000E+01 0.  1.
         11    1    6    6    0    0 -0.11606252046E+02 -0.43458651657E+02  0.80594804550E+01  0.45698082188E+02  0.00000000000E+00 0. -1.
        -12    1    6    6    0    0  0.37963356230E+01  0.25252217991E+02 -0.28772572319E+02  0.38470087022E+02  0.00000000000E+00 0.  1.
</event>
<event>
12    1  0.8407180E-002  0.2071200E+03  0.7818608E-02  0.1144650E+00
         21   -1    0    0  503  502  0.00000000000E+00  0.00000000000E+00  0.81982428543E+03  0.81982428543E+03  0.00000000000E+00 0.  1.
         21   -1    0    0  501  503 -0.00000000000E+00 -0.00000000000E+00 -0.59428999094E+02  0.59428999094E+02  0.00000000000E+00 0. -1.
          6    2    1    2  501    0 -0.65346549784E+02  0.91879718071E+02  0.53911044324E+03  0.57615979022E+03  0.16913893607E+03 0.  0.
         24    2    3    3    0    0 -0.55779001163E+02 -0.10626103627E+02  0.31783237112E+03  0.33205928496E+03  0.77599881097E+02 0.  0.
         -6    2    1    2    0  502  0.65346549784E+02 -0.91879718071E+02  0.22128484310E+03  0.30309349430E+03  0.17374300085E+03 0.  0.
        -24    2    5    5    0    0  0.13636549943E+02 -0.21058906670E+02  0.58382669013E+01  0.70437463637E+02  0.65558507295E+02 0.  0.
          5    1    3    3  501    0 -0.95675486206E+01  0.10250582170E+03  0.22127807212E+03  0.24410050526E+03  0.47000000000E+01 0. -1.
        -13    1    4    4    0    0  0.14215636158E+02  0.39753859084E+01  0.13401082267E+03  0.13482132100E+03  0.00000000000E+00 0.  1.
         14    1    4    4    0    0 -0.69994637321E+02 -0.14601489536E+02  0.18382154845E+03  0.19723796396E+03  0.00000000000E+00 0. -1.
         -5    1    5    5    0  502  0.51709999841E+02 -0.70820811401E+02  0.21544657620E+03  0.23265603067E+03  0.47000000000E+01 0.  1.
         13    1    6    6    0    0  0.56070412055E+01 -0.41343297257E+02  0.18024534974E+02  0.45448773363E+02  0.00000000000E+00 0. -1.
        -14    1    6    6    0    0  0.80295087370E+01  0.20284390587E+02 -0.12186268073E+02  0.24988690274E+02  0.00000000000E+00 0.  1.
</event>
<event>
12    1  0.8407180E-002  0.1933537E+03  0.7818608E-02  0.1156000E+00
         21   -1    0    0  503  502  0.00000000000E+00  0.00000000000E+00  0.28112635900E+03  0.28112635900E+03  0.00000000000E+00 0.  1.
         21   -1    0    0  501  503 -0.00000000000E+00 -0.00000000000E+00 -0.14867789857E+03  0.14867789857E+03  0.00000000000E+00 0.  1.
          6    2    1    2  501    0  0.76431513059E+02  0.38719876826E+02 -0.67743608457E+01  0.19347235468E+03  0.17333394074E+03 0.  0.
         24    2    3    3    0    0  0.48295499236E+02 -0.31866561726E+02  0.35655987666E+02  0.10631442300E+03  0.81752517259E+02 0.  0.
         -6    2    1    2    0  502 -0.76431513059E+02 -0.38719876826E+02  0.13922282128E+03  0.23633190288E+03  0.17067152458E+03 0.  0.
        -24    2    5    5    0    0 -0.10899866670E+03 -0.25911931348E+02  0.72141580462E+02  0.16052526839E+03  0.89508751707E+02 0.  0.
          5    1    3    3  501    0  0.28136013823E+02  0.70586438552E+02 -0.42430348512E+02  0.87157931688E+02  0.47000000000E+01 0. -1.
        -13    1    4    4    0    0  0.21290198721E+01 -0.40934766384E+02 -0.84192471250E+01  0.41845806800E+02  0.00000000000E+00 0.  1.
         14    1    4    4    0    0  0.46166479364E+02  0.90682046585E+01  0.44075234791E+02  0.64468616198E+02  0.00000000000E+00 0. -1.
         -5    1    5    5    0  502  0.32567153637E+02 -0.12807945478E+02  0.67081240814E+02  0.75806634489E+02  0.47000000000E+01 0.  1.
         13    1    6    6    0    0 -0.34863323884E+02 -0.32894124172E+02  0.71474850266E+02  0.86058869257E+02  0.00000000000E+00 0. -1.
        -14    1    6    6    0    0 -0.74135342813E+02  0.69821928237E+01  0.66673019607E+00  0.74466399132E+02  0.00000000000E+00 0.  1.
</event>
<event>
12    1  0.8407180E-002  0.2049472E+03  0.7818608E-02  0.1146156E+00
         21   -1    0    0  503  502  0.00000000000E+00  0.00000000000E+00  0.45375398385E+03  0.45375398385E+03  0.00000000000E+00 0.  1.
         21   -1    0    0  501  503 -0.00000000000E+00 -0.00000000000E+00 -0.12809478457E+03  0.12809478457E+03  0.00000000000E+00 0.  1.
          6    2    1    2  501    0  0.73767904204E+02  0.80168823688E+02  0.78918149009E+01  0.20509905269E+03  0.17359319310E+03 0.  0.
         24    2    3    3    0    0  0.89332623027E+02  0.69045486360E+02 -0.47637831473E+02  0.14617859163E+03  0.79694547745E+02 0.  0.
         -6    2    1    2    0  502 -0.73767904204E+02 -0.80168823688E+02  0.31776738438E+03  0.37674971572E+03  0.17057401249E+03 0.  0.
        -24    2    5    5    0    0 -0.10284410292E+03 -0.80596177105E+02  0.16842209713E+03  0.22452713925E+03  0.70525032360E+02 0.  0.
          5    1    3    3  501    0 -0.15564718823E+02  0.11123337327E+02  0.55529646374E+02  0.58920461062E+02  0.47000000000E+01 0. -1.
        -13    1    4    4    0    0  0.46775105745E+02  0.12012321472E+02  0.15835047482E+02  0.50822781441E+02  0.00000000000E+00 0.  1.
         14    1    4    4    0    0  0.42557517282E+02  0.57033164888E+02 -0.63472878955E+02  0.95355810191E+02  0.00000000000E+00 0. -1.
         -5    1    5    5    0  502  0.29076198717E+02  0.42735341794E+00  0.14934528725E+03  0.15222257647E+03  0.47000000000E+01 0.  1.
         13    1    6    6    0    0 -0.37006023856E+02 -0.67664519434E+01  0.12067667562E+02  0.39507711575E+02  0.00000000000E+00 0. -1.
        -14    1    6    6    0    0 -0.65838079065E+02 -0.73829725162E+02  0.15635442957E+03  0.18501942768E+03  0.00000000000E+00 0.  1.
</event>
<event>
12    1  0.8407180E-002  0.1797961E+03  0.7818608E-02  0.1168030E+00
         21   -1    0    0  503  502  0.00000000000E+00  0.00000000000E+00  0.32450983110E+03  0.32450983110E+03  0.00000000000E+00 0.  1.
         21   -1    0    0  501  503 -0.00000000000E+00 -0.00000000000E+00 -0.13770631681E+03  0.13770631681E+03  0.00000000000E+00 0.  1.
          6    2    1    2  501    0  0.40257799237E+02 -0.35167920171E+02  0.21507627088E+03  0.28032917065E+03  0.17166586328E+03 0.  0.
         24    2    3    3    0    0  0.85123977026E+02 -0.63142927789E+02  0.15593779292E+03  0.20086204200E+03  0.69252031463E+02 0.  0.
         -6    2    1    2    0  502 -0.40257799237E+02  0.35167920171E+02 -0.28272756589E+02  0.18188697726E+03  0.17154023062E+03 0.  0.
        -24    2    5    5    0    0 -0.80124156335E+02  0.13291891065E+02 -0.56172286859E+02  0.12832989680E+03  0.81955364717E+02 0.  0.
          5    1    3    3  501    0 -0.44866177789E+02  0.27975007618E+02  0.59138477954E+02  0.79467128647E+02  0.47000000000E+01 0. -1.
        -13    1    4    4    0    0  0.32537051737E+01 -0.37303215881E+02  0.70017084883E+02  0.79400936317E+02  0.00000000000E+00 0.  1.
         14    1    4    4    0    0  0.81870271853E+02 -0.25839711908E+02  0.85920708039E+02  0.12146110569E+03  0.00000000000E+00 0. -1.
         -5    1    5    5    0  502  0.39866357098E+02  0.21876029106E+02  0.27899530271E+02  0.53557080456E+02  0.47000000000E+01 0.  1.
         11    1    6    6    0    0 -0.85536711030E+02 -0.54543892452E+01 -0.21216889040E+02  0.88297427349E+02  0.00000000000E+00 0. -1.
        -12    1    6    6    0    0  0.54125546954E+01  0.18746280310E+02 -0.34955397820E+02  0.40032469453E+02  0.00000000000E+00 0.  1.
</event>
<event>
12    1  0.8407180E-002  0.1786822E+03  0.7818608E-02  0.1170372E+00
         21   -1    0    0  503  502  0.00000000000E+00  0.00000000000E+00  0.11323047319E+03  0.11323047319E+03  0.00000000000E+00 0.  1.
         21   -1    0    0  501  503 -0.00000000000E+00 -0.00000000000E+00 -0.16917609872E+04  0.16917609872E+04  0.00000000000E+00 0.  1.
          6    2    1    2  501    0 -0.22892553674E+02 -0.45402185272E+02 -0.16135999418E+04  0.16229002623E+04  0.16587664577E+03 0.  0.
         24    2    3    3    0    0  0.65802917569E+01 -0.32147670162E+02 -0.15384127227E+04  0.15409274698E+04  0.81651631047E+02 0.  0.
         -6    2    1    2    0  502  0.22892553674E+02  0.45402185272E+02  0.35069427843E+02  0.18209119808E+03  0.17129481080E+03 0.  0.
        -24    2    5    5    0    0  0.60101277040E+02 -0.17770813053E-02  0.64017279088E+02  0.11647049263E+03  0.76517972579E+02 0.  0.
          5    1    3    3  501    0 -0.29472845431E+02 -0.13254515110E+02 -0.75187219105E+02  0.81972792470E+02  0.47000000000E+01 0. -1.
        -11    1    4    4    0    0 -0.77951432003E+01 -0.57936080549E+02 -0.10359582530E+04  0.10376063106E+04  0.00000000000E+00 0.  1.
         12    1    4    4    0    0  0.14375434957E+02  0.25788410387E+02 -0.50245446968E+03  0.50332115925E+03  0.00000000000E+00 0. -1.
         -5    1    5    5    0  502 -0.37208723365E+02  0.45403962353E+02 -0.28947851244E+02  0.65620705448E+02  0.47000000000E+01 0.  1.
         11    1    6    6    0    0  0.19231773869E+02 -0.88665737971E+01 -0.15759016157E+02  0.26397421224E+02  0.00000000000E+00 0. -1.
        -12    1    6    6    0    0  0.40869503170E+02  0.88647967158E+01  0.79776295244E+02  0.90073071409E+02  0.00000000000E+00 0.  1.
</event>
<event>
12    1  0.8407180E-002  0.2277583E+03  0.7818608E-02  0.1128257E+00
         21   -1    0    0  501  502  0.00000000000E+00  0.00000000000E+00  0.77148600163E+03  0.77148600163E+03  0.00000000000E+00 0. -1.
         21   -1    0    0  502  503 -0.00000000000E+00 -0.00000000000E+00 -0.14939339002E+03  0.14939339002E+03  0.00000000000E+00 0. -1.
         -6    2    1    2    0  503  0.14947315410E+03  0.93159886366E+01 -0.30553328712E+02  0.22963373825E+03  0.17137425830E+03 0.  0.
        -24    2    3    3    0    0  0.16695236373E+03  0.18514647533E+02 -0.57958214302E+02  0.19552720150E+03  0.81583380631E+02 0.  0.
          6    2    1    2  501    0 -0.14947315410E+03 -0.93159886366E+01  0.65264594032E+03  0.69124565340E+03  0.17159492557E+03 0.  0.
         24    2    5    5    0    0 -0.75132686970E+02  0.41882209030E+02  0.21772844020E+03  0.24703502497E+03  0.78877054992E+02 0.  0.
          5    1    5    5  501    0 -0.74340467125E+02 -0.51198197667E+02  0.43491750012E+03  0.44421062843E+03  0.47000000000E+01 0. -1.
        -11    1    6    6    0    0 -0.91084188434E+02  0.42716664407E+02  0.19174324726E+03  0.21653294361E+03  0.00000000000E+00 0.  1.
         12    1    6    6    0    0  0.15951501464E+02 -0.83445537759E+00  0.25985192945E+02  0.30502081357E+02  0.00000000000E+00 0. -1.
         -5    1    3    3    0  503 -0.17479209631E+02 -0.91986588963E+01  0.27404885591E+02  0.34106536750E+02  0.47000000000E+01 0.  1.
         11    1    4    4    0    0  0.14842598242E+03 -0.11722772342E+02 -0.58741126765E+02  0.16005691370E+03  0.00000000000E+00 0. -1.
        -12    1    4    4    0    0  0.18526381305E+02  0.30237419875E+02  0.78291246281E+00  0.35470287804E+02  0.00000000000E+00 0.  1.
</event>
<event>
12    1  0.8407180E-002  0.2228307E+03  0.7818608E-02  0.1131808E+00
         21   -1    0    0  501  502  0.00000000000E+00  0.00000000000E+00  0.29322040911E+04  0.29322040911E+04  0.00000000000E+00 0. -1.
         21   -1    0    0  502  503 -0.00000000000E+00 -0.00000000000E+00 -0.33992173742E+02  0.33992173742E+02  0.00000000000E+00 0.  1.
         -6    2    1    2    0  503 -0.11936462388E+03 -0.76679759733E+02  0.39841000560E+03  0.45649103542E+03  0.17183082921E+03 0.  0.
        -24    2    3    3    0    0 -0.13273830240E+03 -0.10147451446E+03  0.28965493947E+03  0.34404820750E+03  0.80948447286E+02 0.  0.
          6    2    1    2  501    0  0.11936462388E+03  0.76679759733E+02  0.24998019118E+04  0.25097052294E+04  0.17170626544E+03 0.  0.
         24    2    5    5    0    0  0.13374620675E+03  0.98387572697E+02  0.23784875104E+04  0.23855386758E+04  0.77612976963E+02 0.  0.
          5    1    5    5  501    0 -0.14381582870E+02 -0.21707812964E+02  0.12131440138E+03  0.12416655368E+03  0.47000000000E+01 0. -1.
        -13    1    6    6    0    0 -0.40550785444E+01  0.17830426952E+02  0.48163055493E+03  0.48197755054E+03  0.00000000000E+00 0.  1.
         14    1    6    6    0    0  0.13780128529E+03  0.80557145744E+02  0.18968569555E+04  0.19035611252E+04  0.00000000000E+00 0. -1.
         -5    1    3    3    0  503  0.13373678522E+02  0.24794754731E+02  0.10875506614E+03  0.11244282792E+03  0.47000000000E+01 0.  1.
         13    1    4    4    0    0 -0.94278115924E+02 -0.39233721363E+02  0.22216377883E+03  0.24450847155E+03  0.00000000000E+00 0. -1.
        -14    1    4    4    0    0 -0.38460186478E+02 -0.62240793101E+02  0.67491160630E+02  0.99539735950E+02  0.00000000000E+00 0.  1.
</event>
<event>
12    1  0.8407180E-002  0.2688519E+03  0.7818608E-02  0.1101978E+00
         21   -1    0    0  503  502  0.00000000000E+00  0.00000000000E+00  0.19430789670E+03  0.19430789670E+03  0.00000000000E+00 0.  1.
         21   -1    0    0  501  503 -0.00000000000E+00 -0.00000000000E+00 -0.46205600530E+03  0.46205600530E+03  0.00000000000E+00 0. -1.
          6    2    1    2  501    0  0.19657050350E+03 -0.63629103561E+02  0.11376509870E+02  0.26881793113E+03  0.17159554030E+03 0.  0.
         24    2    3    3    0    0  0.15424197895E+03 -0.35655040477E+01  0.57046633991E+02  0.18217388797E+03  0.78292439726E+02 0.  0.
         -6    2    1    2    0  502 -0.19657050350E+03  0.63629103561E+02 -0.27912461847E+03  0.38754597088E+03  0.17202529244E+03 0.  0.
        -24    2    5    5    0    0 -0.14446084109E+03 -0.20041931640E+02 -0.14228282571E+03  0.21883312225E+03  0.79830565993E+02 0.  0.
          5    1    3    3  501    0  0.42328524548E+02 -0.60063599513E+02 -0.45670124121E+02  0.86644043154E+02  0.47000000000E+01 0. -1.
        -13    1    4    4    0    0  0.95979862539E+02 -0.39127611957E+02  0.24260928493E+02  0.10645044237E+03  0.00000000000E+00 0.  1.
         14    1    4    4    0    0  0.58262116415E+02  0.35562107909E+02  0.32785705498E+02  0.75723445597E+02  0.00000000000E+00 0. -1.
         -5    1    5    5    0  502 -0.52109662410E+02  0.83671035201E+02 -0.13684179276E+03  0.16871284863E+03  0.47000000000E+01 0.  1.
         13    1    6    6    0    0 -0.56308105205E+02 -0.46176390296E+02 -0.48477035144E+02  0.87480767423E+02  0.00000000000E+00 0. -1.
        -14    1    6    6    0    0 -0.88152735887E+02  0.26134458656E+02 -0.93805790568E+02  0.13135235482E+03  0.00000000000E+00 0.  1.
</event>
<event>
12    1  0.8407180E-002  0.2753064E+03  0.7818608E-02  0.1098302E+00
         21   -1    0    0  501  502  0.00000000000E+00  0.00000000000E+00  0.14383369150E+03  0.14383369150E+03  0.00000000000E+00 0.  1.
         21   -1    0    0  502  503 -0.00000000000E+00 -0.00000000000E+00 -0.56648687735E+03  0.56648687735E+03  0.00000000000E+00 0.  1.
         -6    2    1    2    0  503  0.19051780555E+03 -0.99529363385E+02 -0.30555903673E+03  0.41129054643E+03  0.17201877877E+03 0.  0.
        -24    2    3    3    0    0  0.99312920159E+02 -0.66126526512E+02 -0.78072574450E+02  0.16389155462E+03  0.80804338836E+02 0.  0.
          6    2    1    2  501    0 -0.19051780555E+03  0.99529363385E+02 -0.11709414912E+03  0.29903002242E+03  0.17176957280E+03 0.  0.
         24    2    5    5    0    0 -0.99327258113E+02  0.95116927535E+02 -0.13228410256E+03  0.20635850458E+03  0.78559623957E+02 0.  0.
          5    1    5    5  501    0 -0.91190547438E+02  0.44124358502E+01  0.15189953437E+02  0.92671517834E+02  0.47000000000E+01 0. -1.
        -13    1    6    6    0    0 -0.46171769553E+02  0.89000752535E+02 -0.61486632691E+02  0.11761620745E+03  0.00000000000E+00 0.  1.
         14    1    6    6    0    0 -0.53155488560E+02  0.61161749993E+01 -0.70797469866E+02  0.88742297131E+02  0.00000000000E+00 0. -1.
         -5    1    3    3    0  503  0.91204885392E+02 -0.33402836873E+02 -0.22748646228E+03  0.24739899181E+03  0.47000000000E+01 0.  1.
         11    1    4    4    0    0  0.39245719266E+02  0.87800239349E+00  0.72104379065E+01  0.39912251048E+02  0.00000000000E+00 0. -1.
        -12    1    4    4    0    0  0.60067200893E+02 -0.67004528905E+02 -0.85283012357E+02  0.12397930357E+03  0.00000000000E+00 0.  1.
</event>
<event>
12    1  0.8407180E-002  0.1906445E+03  0.7818608E-02  0.1160968E+00
         21   -1    0    0  503  502  0.00000000000E+00  0.00000000000E+00  0.11992738518E+03  0.11992738518E+03  0.00000000000E+00 0. -1.
         21   -1    0    0  501  503 -0.00000000000E+00 -0.00000000000E+00 -0.38709490688E+03  0.38709490688E+03  0.00000000000E+00 0. -1.
          6    2    1    2  501    0  0.22452567849E+02 -0.39471494965E+02  0.17013390826E+01  0.17742284356E+03  0.17150467674E+03 0.  0.
         24    2    3    3    0    0 -0.38949355337E+02 -0.21198364135E+02 -0.41215077003E+02  0.10016993260E+03  0.79805450330E+02 0.  0.
         -6    2    1    2    0  502 -0.22452567849E+02  0.39471494965E+02 -0.26886886078E+03  0.32959944850E+03  0.18515727216E+03 0.  0.
        -24    2    5    5    0    0 -0.12723613099E+02 -0.15124625798E+02 -0.26084064301E+03  0.27336839619E+03  0.79383841888E+02 0.  0.
          5    1    3    3  501    0  0.61401923187E+02 -0.18273130830E+02  0.42916416086E+02  0.77252910955E+02  0.47000000000E+01 0. -1.
        -13    1    4    4    0    0 -0.55384000740E+02  0.41666826248E+01 -0.94772251486E+01  0.56343292224E+02  0.00000000000E+00 0.  1.
         14    1    4    4    0    0  0.16434645403E+02 -0.25365046760E+02 -0.31737851855E+02  0.43826640380E+02  0.00000000000E+00 0. -1.
         -5    1    5    5    0  502 -0.97289547500E+01  0.54596120763E+02 -0.80282177659E+01  0.56231052305E+02  0.47000000000E+01 0.  1.
         13    1    6    6    0    0  0.79402855469E+01 -0.43802227515E+02 -0.17412713635E+03  0.17972741272E+03  0.00000000000E+00 0. -1.
        -14    1    6    6    0    0 -0.20663898646E+02  0.28677601718E+02 -0.86713506666E+02  0.93640983473E+02  0.00000000000E+00 0.  1.
</event>
<event>
12    1  0.8407180E-002  0.2161983E+03  0.7818608E-02  0.1137025E+00
         21   -1    0    0  503  502  0.00000000000E+00  0.00000000000E+00  0.66885502158E+02  0.66885502158E+02  0.00000000000E+00 0. -1.
         21   -1    0    0  501  503 -0.00000000000E+00 -0.00000000000E+00 -0.69891259917E+03  0.69891259917E+03  0.00000000000E+00 0. -1.
          6    2    1    2  501    0 -0.11168605117E+03 -0.69400738367E+02 -0.28344993866E+03  0.35561795353E+03  0.16979406537E+03 0.  0.
         24    2    3    3    0    0 -0.82107491656E+02  0.22656476583E+02 -0.16362403530E+03  0.20157328753E+03  0.81265055222E+02 0.  0.
         -6    2    1    2    0  502  0.11168605117E+03  0.69400738367E+02 -0.34857715835E+03  0.41018014780E+03  0.17161434034E+03 0.  0.
        -24    2    5    5    0    0  0.65277478263E+02  0.78191343013E+02 -0.12057649311E+03  0.17729085281E+03  0.80736116506E+02 0.  0.
          5    1    3    3  501    0 -0.29578559517E+02 -0.92057214950E+02 -0.11982590336E+03  0.15404466600E+03  0.47000000000E+01 0. -1.
        -13    1    4    4    0    0 -0.55541061396E+01 -0.23337624862E+02 -0.60904081165E+02  0.65458383205E+02  0.00000000000E+00 0.  1.
         14    1    4    4    0    0 -0.76553385517E+02  0.45994101445E+02 -0.10271995414E+03  0.13611490433E+03  0.00000000000E+00 0. -1.
         -5    1    5    5    0  502  0.46408572911E+02 -0.87906046455E+01 -0.22800066524E+03  0.23288929499E+03  0.47000000000E+01 0.  1.
         13    1    6    6    0    0  0.26761772764E+02  0.82340383445E+02 -0.10354690218E+03  0.13497441305E+03  0.00000000000E+00 0. -1.
        -14    1    6    6    0    0  0.38515705499E+02 -0.41490404324E+01 -0.17029590932E+02  0.42316439759E+02  0.00000000000E+00 0.  1.
</event>
<event>
12    1  0.8407180E-002  0.2305340E+03  0.7818608E-02  0.1126429E+00
         21   -1    0    0  503  502  0.00000000000E+00  0.00000000000E+00  0.17797428453E+03  0.17797428453E+03  0.00000000000E+00 0.  1.
         21   -1    0    0  501  503 -0.00000000000E+00 -0.00000000000E+00 -0.35738426211E+03  0.35738426211E+03  0.00000000000E+00 0. -1.
          6    2    1    2  501    0 -0.12049542052E+03 -0.94429079719E+02 -0.19921093876E+03  0.30397575972E+03  0.17111477701E+03 0.  0.
         24    2    3    3    0    0 -0.65401585851E+02 -0.10085910176E+03 -0.62917637339E+02  0.15675269830E+03  0.78503843831E+02 0.  0.
         -6    2    1    2    0  502  0.12049542052E+03  0.94429079719E+02  0.19800961179E+02  0.23138278693E+03  0.17236565365E+03 0.  0.
        -24    2    5    5    0    0  0.78548126671E+02  0.13192425428E+03  0.84041577874E+01  0.17378555866E+03  0.80975140987E+02 0.  0.
          5    1    3    3  501    0 -0.55093834672E+02  0.64300220404E+01 -0.13629330142E+03  0.14722306142E+03  0.47000000000E+01 0. -1.
        -11    1    4    4    0    0 -0.48074554971E+02 -0.11075954214E+02 -0.76923233342E+01  0.49930065449E+02  0.00000000000E+00 0.  1.
         12    1    4    4    0    0 -0.17327030880E+02 -0.89783147545E+02 -0.55225314005E+02  0.10682263285E+03  0.00000000000E+00 0. -1.
         -5    1    5    5    0  502  0.41947293851E+02 -0.37495174562E+02  0.11396803392E+02  0.57597228271E+02  0.47000000000E+01 0.  1.
         11    1    6    6    0    0  0.49677625884E+02  0.75217146938E+02 -0.35065745678E+02  0.96721725723E+02  0.00000000000E+00 0. -1.
        -12    1    6    6    0    0  0.28870500787E+02  0.56707107342E+02  0.43469903465E+02  0.77063832932E+02  0.00000000000E+00 0.  1.
</event>
<event>
12    1  0.8407180E-002  0.1953309E+03  0.7818608E-02  0.1155019E+00
         21   -1    0    0  503  502  0.00000000000E+00  0.00000000000E+00  0.22593979109E+03  0.22593979109E+03  0.00000000000E+00 0.  1.
         21   -1    0    0  501  503 -0.00000000000E+00 -0.00000000000E+00 -0.27849871605E+03  0.27849871605E+03  0.00000000000E+00 0.  1.
          6    2    1    2  501    0  0.76094356033E+02 -0.56152955175E+02 -0.18782718155E+03  0.26684290000E+03  0.16426374450E+03 0.  0.
         24    2    3    3    0    0 -0.38230410127E+01 -0.34134728042E+02 -0.15522684987E+03  0.17764388486E+03  0.79260201901E+02 0.  0.
         -6    2    1    2    0  502 -0.76094356033E+02  0.56152955175E+02  0.13526825659E+03  0.23759560714E+03  0.17091128077E+03 0.  0.
        -24    2    5    5    0    0 -0.97393336469E+02 -0.17820140590E+01  0.62275766302E+02  0.14188719128E+03  0.82250023813E+02 0.  0.
          5    1    3    3  501    0  0.79917397046E+02 -0.22018227133E+02 -0.32600331679E+02  0.89199015142E+02  0.47000000000E+01 0. -1.
        -13    1    4    4    0    0  0.14836612692E+02 -0.52319473453E+02 -0.70722325035E+02  0.89213786137E+02  0.00000000000E+00 0.  1.
         14    1    4    4    0    0 -0.18659653704E+02  0.18184745411E+02 -0.84504524834E+02  0.88430098719E+02  0.00000000000E+00 0. -1.
         -5    1    5    5    0  502  0.21298980436E+02  0.57934969234E+02  0.72992490292E+02  0.95708415861E+02  0.47000000000E+01 0.  1.
         13    1    6    6    0    0 -0.68134506255E+01 -0.10489027068E+02 -0.17065212545E+02  0.21158078303E+02  0.00000000000E+00 0. -1.
        -14    1    6    6    0    0 -0.90579885843E+02  0.87070130089E+01  0.79340978848E+02  0.12072911297E+03  0.00000000000E+00 0.  1.
</event>
<event>
12    1  0.8407180E-002  0.2264040E+03  0.7818608E-02  0.1129668E+00
         21   -1    0    0  503  502  0.00000000000E+00  0.00000000000E+00  0.43236924551E+02  0.43236924551E+02  0.00000000000E+00 0.  1.
         21   -1    0    0  501  503 -0.00000000000E+00 -0.00000000000E+00 -0.25891586609E+04  0.25891586609E+04  0.00000000000E+00 0.  1.
          6    2    1    2  501    0  0.29109250309E+01 -0.14363254705E+03 -0.22434033313E+04  0.22545382887E+04  0.17159722077E+03 0.  0.
         24    2    3    3    0    0  0.33764705312E+01 -0.17557757819E+02 -0.66445763347E+03  0.67056017144E+03  0.88472150562E+02 0.  0.
         -6    2    1    2    0  502 -0.29109250309E+01  0.14363254705E+03 -0.30251840505E+03  0.37785729677E+03  0.17498562590E+03 0.  0.
        -24    2    5    5    0    0  0.61620466286E+02  0.97145128163E+02 -0.23914983444E+03  0.27605824804E+03  0.76034565888E+02 0.  0.
          5    1    3    3  501    0 -0.46554550029E+00 -0.12607478924E+03 -0.15789456978E+04  0.15839781173E+04  0.47000000000E+01 0. -1.
        -13    1    4    4    0    0 -0.22038324361E+01 -0.20935591333E+01 -0.64533432911E+03  0.64534148805E+03  0.00000000000E+00 0.  1.
         14    1    4    4    0    0  0.55803029672E+01 -0.15464198686E+02 -0.19123304364E+02  0.25218683391E+02  0.00000000000E+00 0. -1.
         -5    1    5    5    0  502 -0.64531391317E+02  0.46487418892E+02 -0.63368570609E+02  0.10179904873E+03  0.47000000000E+01 0.  1.
         13    1    6    6    0    0  0.49385796647E+02  0.11747418790E+02 -0.74078170382E+02  0.89802750993E+02  0.00000000000E+00 0. -1.
        -14    1    6    6    0    0  0.12234669639E+02  0.85397709373E+02 -0.16507166406E+03  0.18625549705E+03  0.00000000000E+00 0.  1.
</event>
<event>
12    1  0.8407180E-002  0.2437172E+03  0.7818608E-02  0.1117357E+00
         21   -1    0    0  503  502  0.00000000000E+00  0.00000000000E+00  0.36444008304E+02  0.36444008304E+02  0.00000000000E+00 0. -1.
         21   -1    0    0  501  503 -0.00000000000E+00 -0.00000000000E+00 -0.18289236591E+04  0.18289236591E+04  0.00000000000E+00 0.  1.
          6    2    1    2  501    0 -0.40991300997E+02 -0.16788597140E+03 -0.58786314053E+03  0.63634405814E+03  0.17171110093E+03 0.  0.
         24    2    3    3    0    0  0.35547247488E+02 -0.10453631555E+03 -0.41616310001E+03  0.43791441768E+03  0.79911596928E+02 0.  0.
         -6    2    1    2    0  502  0.40991300997E+02  0.16788597140E+03 -0.12046165102E+04  0.12290236092E+04  0.17184908839E+03 0.  0.
        -24    2    5    5    0    0  0.46724937412E+01  0.18638070121E+03 -0.10026687187E+04  0.10229505365E+04  0.79521335074E+02 0.  0.
          5    1    3    3  501    0 -0.76538548485E+02 -0.63349655844E+02 -0.17170004052E+03  0.19842964046E+03  0.47000000000E+01 0. -1.
        -11    1    4    4    0    0  0.32404701102E+02 -0.12784202968E+02 -0.20081025700E+03  0.20380937126E+03  0.00000000000E+00 0.  1.
         12    1    4    4    0    0  0.31425463851E+01 -0.91752112587E+02 -0.21535284301E+03  0.23410504641E+03  0.00000000000E+00 0. -1.
         -5    1    5    5    0  502  0.36318807256E+02 -0.18494729813E+02 -0.20194779157E+03  0.20607307275E+03  0.47000000000E+01 0.  1.
         13    1    6    6    0    0  0.12748557514E+02  0.34959334929E+02 -0.84304153612E+02  0.92151349060E+02  0.00000000000E+00 0. -1.
        -14    1    6    6    0    0 -0.80760637732E+01  0.15142136628E+03 -0.91836456506E+03  0.93079918744E+03  0.00000000000E+00 0.  1.
</event>
<event>
12    1  0.8407180E-002  0.1794721E+03  0.7818608E-02  0.1168511E+00
         21   -1    0    0  501  502  0.00000000000E+00  0.00000000000E+00  0.47086564993E+02  0.47086564993E+02  0.00000000000E+00 0. -1.
         21   -1    0    0  502  503 -0.00000000000E+00 -0.00000000000E+00 -0.73647222429E+03  0.73647222429E+03  0.00000000000E+00 0. -1.
         -6    2    1    2    0  503  0.49009588342E+02  0.36090641001E+01 -0.23788318097E+03  0.29799103135E+03  0.17261309883E+03 0.  0.
        -24    2    3    3    0    0  0.20593856390E+02 -0.28511091635E+02 -0.32189596005E+02  0.87821815906E+02  0.73753047332E+02 0.  0.
          6    2    1    2  501    0 -0.49009588342E+02 -0.36090641001E+01 -0.45150247833E+03  0.48556775793E+03  0.17177483667E+03 0.  0.
         24    2    5    5    0    0 -0.50941181194E+02  0.48769079801E+02 -0.38971930263E+03  0.40441080007E+03  0.81814016445E+02 0.  0.
          5    1    5    5  501    0  0.19315928517E+01 -0.52378143901E+02 -0.61783175703E+02  0.81156957862E+02  0.47000000000E+01 0. -1.
        -11    1    6    6    0    0 -0.55157290768E+01 -0.19872069935E+02 -0.38504694875E+02  0.43679903367E+02  0.00000000000E+00 0.  1.
         12    1    6    6    0    0 -0.45425452117E+02  0.68641149736E+02 -0.35121460775E+03  0.36073089670E+03  0.00000000000E+00 0. -1.
         -5    1    3    3    0  503  0.28415731952E+02  0.32120155735E+02 -0.20569358496E+03  0.21016921545E+03  0.47000000000E+01 0.  1.
         11    1    4    4    0    0  0.16636833666E+01  0.24924895843E+02 -0.85935821199E+01  0.26417190024E+02  0.00000000000E+00 0. -1.
        -12    1    4    4    0    0  0.18930173023E+02 -0.53435987478E+02 -0.23596013886E+02  0.61404625882E+02  0.00000000000E+00 0.  1.
</event>
<event>
12    1  0.8407180E-002  0.1922927E+03  0.7818608E-02  0.1156976E+00
         21   -1    0    0  501  502  0.00000000000E+00  0.00000000000E+00  0.57998363378E+03  0.57998363378E+03  0.00000000000E+00 0.  1.
         21   -1    0    0  502  503 -0.00000000000E+00 -0.00000000000E+00 -0.12815242082E+03  0.12815242082E+03  0.00000000000E+00 0.  1.
         -6    2    1    2    0  503  0.26826539513E+02  0.75260205238E+02 -0.27433501600E+02  0.19173394372E+03  0.17212073219E+03 0.  0.
        -24    2    3    3    0    0 -0.47151807879E+02  0.18585529839E+02 -0.26125399226E+02  0.98413978838E+02  0.80212591532E+02 0.  0.
          6    2    1    2  501    0 -0.26826539513E+02 -0.75260205238E+02  0.47926471457E+03  0.51640211087E+03  0.17490772359E+03 0.  0.
         24    2    5    5    0    0  0.27799453340E+02 -0.75592112511E+02  0.18517293041E+03  0.21724299474E+03  0.80115713358E+02 0.  0.
          5    1    5    5  501    0 -0.54625992853E+02  0.33190727256E+00  0.29409178416E+03  0.29915911614E+03  0.47000000000E+01 0. -1.
        -11    1    6    6    0    0  0.18223157091E+02 -0.55041527640E+02  0.18572426896E+03  0.19456401851E+03  0.00000000000E+00 0.  1.
         12    1    6    6    0    0  0.95762962484E+01 -0.20550584871E+02 -0.55133855207E+00  0.22678976224E+02  0.00000000000E+00 0. -1.
         -5    1    3    3    0  503  0.73978347392E+02  0.56674675399E+02 -0.13081023741E+01  0.93319964886E+02  0.47000000000E+01 0.  1.
         11    1    4    4    0    0 -0.43015912232E+02  0.22756316570E+02  0.19489882520E+02  0.52422077120E+02  0.00000000000E+00 0. -1.
        -12    1    4    4    0    0 -0.41358956470E+01 -0.41707867312E+01 -0.45615281747E+02  0.45991901717E+02  0.00000000000E+00 0.  1.
</event>
<event>
12    1  0.8407180E-002  0.1809791E+03  0.7818608E-02  0.1167087E+00
         21   -1    0    0  503  502  0.00000000000E+00  0.00000000000E+00  0.10662046084E+02  0.10662046084E+02  0.00000000000E+00 0. -1.
         21   -1    0    0  501  503 -0.00000000000E+00 -0.00000000000E+00 -0.31685764193E+04  0.31685764193E+04  0.00000000000E+00 0. -1.
          6    2    1    2  501    0  0.59997083459E+02  0.32578577260E+01 -0.18826786981E+04  0.18913573250E+04  0.17071375695E+03 0.  0.
         24    2    3    3    0    0  0.96908708194E+02 -0.11346160708E+02 -0.17040156048E+04  0.17082771887E+04  0.70864228784E+02 0.  0.
         -6    2    1    2    0  502 -0.59997083459E+02 -0.32578577260E+01 -0.12752356751E+04  0.12878811404E+04  0.16971016782E+03 0.  0.
        -24    2    5    5    0    0 -0.85535065228E+02 -0.38187434545E+02 -0.69842229826E+03  0.70942800871E+03  0.81974784485E+02 0.  0.
          5    1    3    3  501    0 -0.36911624735E+02  0.14604018434E+02 -0.17866309330E+03  0.18308013629E+03  0.47000000000E+01 0. -1.
        -13    1    4    4    0    0  0.10223101148E+02 -0.47868865904E+00 -0.79658271336E+03  0.79664845457E+03  0.00000000000E+00 0.  1.
         14    1    4    4    0    0  0.86685607046E+02 -0.10867472049E+02 -0.90743289145E+03  0.91162873413E+03  0.00000000000E+00 0. -1.
         -5    1    5    5    0  502  0.25537981769E+02  0.34929576819E+02 -0.57681337688E+03  0.57845313172E+03  0.47000000000E+01 0.  1.
         13    1    6    6    0    0 -0.60978563549E+02 -0.43244124429E+02 -0.65527408464E+03  0.65952449956E+03  0.00000000000E+00 0. -1.
        -14    1    6    6    0    0 -0.24556501679E+02  0.50566898844E+01 -0.43148213617E+02  0.49903509152E+02  0.00000000000E+00 0.  1.
</event>
<event>
12    1  0.8407180E-002  0.1823175E+03  0.7818608E-02  0.1165678E+00
         21   -1    0    0  501  502  0.00000000000E+00  0.00000000000E+00  0.36369581687E+03  0.36369581687E+03  0.00000000000E+00 0.  1.
         21   -1    0    0  502  503 -0.00000000000E+00 -0.00000000000E+00 -0.93811513531E+02  0.93811513531E+02  0.00000000000E+00 0.  1.
         -6    2    1    2    0  503 -0.23353092050E+02 -0.57534754893E+02  0.96815558924E+02  0.20642900295E+03  0.17141781086E+03 0.  0.
        -24    2    3    3    0    0 -0.49431599333E+02 -0.61307054401E+02  0.11094003859E+01  0.10705054670E+03  0.72502074775E+02 0.  0.
          6    2    1    2  501    0  0.23353092050E+02  0.57534754893E+02  0.17306874442E+03  0.25107832745E+03  0.17097345201E+03 0.  0.
         24    2    5    5    0    0  0.32199738267E+02  0.15819219310E+02  0.18575905654E+03  0.20633927203E+03  0.82355311005E+02 0.  0.
          5    1    5    5  501    0 -0.88466462167E+01  0.41715535582E+02 -0.12690312124E+02  0.44739055421E+02  0.47000000000E+01 0. -1.
        -11    1    6    6    0    0  0.46591233469E+00 -0.86157225538E+01  0.15650306570E+03  0.15674073282E+03  0.00000000000E+00 0.  1.
         12    1    6    6    0    0  0.31733825932E+02  0.24434941864E+02  0.29255990839E+02  0.49598539214E+02  0.00000000000E+00 0. -1.
         -5    1    3    3    0  503  0.26078507283E+02  0.37722995087E+01  0.95706158538E+02  0.99378456256E+02  0.47000000000E+01 0.  1.
         11    1    4    4    0    0 -0.16196636029E+02  0.28292000643E+00  0.27778243966E+02  0.32156521892E+02  0.00000000000E+00 0. -1.
        -12    1    4    4    0    0 -0.33234963305E+02 -0.61589974408E+02 -0.26668843580E+02  0.74894024804E+02  0.00000000000E+00 0.  1.
</event>
<event>
12    1  0.8407180E-002  0.3009499E+03  0.7818608E-02  0.1084844E+00
         21   -1    0    0  501  502  0.00000000000E+00  0.00000000000E+00  0.34335086897E+03  0.34335086897E+03  0.00000000000E+00 0.  1.
         21   -1    0    0  502  503 -0.00000000000E+00 -0.00000000000E+00 -0.35719377221E+03  0.35719377221E+03  0.00000000000E+00 0.  1.
         -6    2    1    2    0  503 -0.21187987545E+03  0.12553694085E+03 -0.18655465185E+03  0.35355731934E+03  0.17189396381E+03 0.  0.
        -24    2    3    3    0    0 -0.17669877178E+03  0.12396031486E+03 -0.20938113537E+03  0.31132777808E+03  0.80597208077E+02 0.  0.
          6    2    1    2  501    0  0.21187987545E+03 -0.12553694085E+03  0.17271174861E+03  0.34698732184E+03  0.17296892284E+03 0.  0.
         24    2    5    5    0    0  0.10725428851E+03 -0.93566063197E+02  0.27876057689E+02  0.16541607460E+03  0.79544406189E+02 0.  0.
          5    1    5    5  501    0  0.10462558694E+03 -0.31970877656E+02  0.14483569092E+03  0.18157124724E+03  0.47000000000E+01 0. -1.
        -13    1    6    6    0    0  0.11638045635E+03 -0.72256322622E+02  0.34580917253E+02  0.14128420512E+03  0.00000000000E+00 0.  1.
         14    1    6    6    0    0 -0.91261678331E+01 -0.21309740575E+02 -0.67048595635E+01  0.24131869477E+02  0.00000000000E+00 0. -1.
         -5    1    3    3    0  503 -0.35181103674E+02  0.15766259960E+01  0.22826483520E+02  0.42229541261E+02  0.47000000000E+01 0.  1.
         11    1    4    4    0    0 -0.65387104368E+02  0.33725109793E+02 -0.24766713389E+02  0.77628902738E+02  0.00000000000E+00 0. -1.
        -12    1    4    4    0    0 -0.11131166741E+03  0.90235205064E+02 -0.18461442198E+03  0.23369887534E+03  0.00000000000E+00 0.  1.
</event>
<event>
12    1  0.8407180E-002  0.1937287E+03  0.7818608E-02  0.1155510E+00
         21   -1    0    0  501  502  0.00000000000E+00  0.00000000000E+00  0.11213154804E+03  0.11213154804E+03  0.00000000000E+00 0. -1.
         21   -1    0    0  502  503 -0.00000000000E+00 -0.00000000000E+00 -0.34287113681E+03  0.34287113681E+03  0.00000000000E+00 0. -1.
         -6    2    1    2    0  503  0.84621444265E+02 -0.11913043876E+02 -0.75011401957E+02  0.20774389075E+03  0.17386231413E+03 0.  0.
        -24    2    3    3    0    0  0.63864870628E+02 -0.65672943209E+02 -0.84401803905E+02  0.14916717375E+03  0.82070238528E+02 0.  0.
          6    2    1    2  501    0 -0.84621444265E+02  0.11913043876E+02 -0.15572818681E+03  0.24725879410E+03  0.17199690012E+03 0.  0.
         24    2    5    5    0    0  0.17526086021E+02 -0.31743481009E+01 -0.38870704383E+02  0.91247549190E+02  0.80609821963E+02 0.  0.
          5    1    5    5  501    0 -0.10214753029E+03  0.15087391977E+02 -0.11685748243E+03  0.15601124491E+03  0.47000000000E+01 0. -1.
        -11    1    6    6    0    0 -0.71251460196E+01  0.35654775436E+02 -0.20333561051E+02  0.41659145721E+02  0.00000000000E+00 0.  1.
         12    1    6    6    0    0  0.24651232040E+02 -0.38829123537E+02 -0.18537143332E+02  0.49588403469E+02  0.00000000000E+00 0. -1.
         -5    1    3    3    0  503  0.20756573637E+02  0.53759899332E+02  0.93904019480E+01  0.58576716997E+02  0.47000000000E+01 0.  1.
         13    1    4    4    0    0 -0.12310641186E+02 -0.18583620932E+01  0.68867567541E+01  0.14227888623E+02  0.00000000000E+00 0. -1.
        -14    1    4    4    0    0  0.76175511814E+02 -0.63814581116E+02 -0.91288560659E+02  0.13493928513E+03  0.00000000000E+00 0.  1.
</event>
<event>
12    1  0.8407180E-002  0.2523973E+03  0.7818608E-02  0.1111920E+00
         21   -1    0    0  501  502  0.00000000000E+00  0.00000000000E+00  0.11509192593E+04  0.11509192593E+04  0.00000000000E+00 0.  1.
         21   -1    0    0  502  503 -0.00000000000E+00 -0.00000000000E+00 -0.59450013478E+02  0.59450013478E+02  0.00000000000E+00 0. -1.
         -6    2    1    2    0  503  0.16447242750E+03 -0.83818579989E+02  0.38278893701E+03  0.45808462884E+03  0.17098954097E+03 0.  0.
        -24    2    3    3    0    0  0.13214994093E+03 -0.60990467909E+02  0.15549249210E+03  0.22732148250E+03  0.79458777005E+02 0.  0.
          6    2    1    2  501    0 -0.16447242750E+03  0.83818579989E+02  0.70868030885E+03  0.75228464398E+03  0.17212690567E+03 0.  0.
         24    2    5    5    0    0 -0.68389979747E+02  0.10534683210E+03  0.35133156398E+03  0.38158865282E+03  0.80005548215E+02 0.  0.
          5    1    5    5  501    0 -0.96082447753E+02 -0.21528252112E+02  0.35734874487E+03  0.37069599116E+03  0.47000000000E+01 0. -1.
        -11    1    6    6    0    0  0.52132400840E+01  0.36132139334E+02  0.39448081038E+02  0.53748120549E+02  0.00000000000E+00 0.  1.
         12    1    6    6    0    0 -0.73603219831E+02  0.69214692768E+02  0.31188348295E+03  0.32784053227E+03  0.00000000000E+00 0. -1.
         -5    1    3    3    0  503  0.32322486571E+02 -0.22828112080E+02  0.22729644491E+03  0.23076314634E+03  0.47000000000E+01 0.  1.
         13    1    4    4    0    0  0.73334512829E+02 -0.73469746660E+02  0.81478856329E+02  0.13196423180E+03  0.00000000000E+00 0. -1.
        -14    1    4    4    0    0  0.58815428100E+02  0.12479278751E+02  0.74013635775E+02  0.95357250702E+02  0.00000000000E+00 0.  1.
</event>
<event>
12    1  0.8407180E-002  0.2222963E+03  0.7818608E-02  0.1132711E+00
         21   -1    0    0  503  502  0.00000000000E+00  0.00000000000E+00  0.82846153105E+02  0.82846153105E+02  0.00000000000E+00 0.  1.
         21   -1    0    0  501  503 -0.00000000000E+00 -0.00000000000E+00 -0.91753926765E+03  0.91753926765E+03  0.00000000000E+00 0. -1.
          6    2    1    2  501    0 -0.63666191053E+02  0.11990182441E+03 -0.71499249041E+03  0.74790989436E+03  0.17240973685E+03 0.  0.
         24    2    3    3    0    0  0.63717198604E+01  0.53207775333E+02 -0.53456122125E+03  0.54313944230E+03  0.79831624973E+02 0.  0.
         -6    2    1    2    0  502  0.63666191053E+02 -0.11990182441E+03 -0.11970062414E+03  0.25247552640E+03  0.17602789731E+03 0.  0.
        -24    2    5    5    0    0 -0.10444763968E+02 -0.11361979998E+01 -0.64179173205E+02  0.10180227335E+03  0.78322107640E+02 0.  0.
          5    1    3    3  501    0 -0.70037910914E+02  0.66694049077E+02 -0.18043126916E+03  0.20477045206E+03  0.47000000000E+01 0. -1.
        -13    1    4    4    0    0 -0.19591740202E+02 -0.51992030443E+01 -0.44154329988E+02  0.48584697726E+02  0.00000000000E+00 0.  1.
         14    1    4    4    0    0  0.25963460062E+02  0.58406978378E+02 -0.49040689126E+03  0.49455474457E+03  0.00000000000E+00 0. -1.
         -5    1    5    5    0  502  0.74110955021E+02 -0.11876562641E+03 -0.55521450934E+02  0.15067325305E+03  0.47000000000E+01 0.  1.
         13    1    6    6    0    0 -0.36918007587E+02 -0.70491792707E+01 -0.64526347989E+02  0.74674492281E+02  0.00000000000E+00 0. -1.
        -14    1    6    6    0    0  0.26473243619E+02  0.59129812709E+01  0.34717478426E+00  0.27127781066E+02  0.00000000000E+00 0.  1.
</event>
<event>
12    1  0.8407180E-002  0.2405343E+03  0.7818608E-02  0.1120966E+00
         21   -1    0    0  503  502  0.00000000000E+00  0.00000000000E+00  0.24573858887E+03  0.24573858887E+03  0.00000000000E+00 0. -1.
         21   -1    0    0  501  503 -0.00000000000E+00 -0.00000000000E+00 -0.23151411076E+03  0.23151411076E+03  0.00000000000E+00 0. -1.
          6    2    1    2  501    0  0.13220636799E+02  0.15375617256E+03  0.41660587666E+02  0.24411545582E+03  0.18450204706E+03 0.  0.
         24    2    3    3    0    0  0.48404643621E+02  0.38533787988E+02  0.67200497192E+02  0.12087386697E+03  0.79162633569E+02 0.  0.
         -6    2    1    2    0  502 -0.13220636799E+02 -0.15375617256E+03 -0.27436109556E+02  0.23313724381E+03  0.17258183132E+03 0.  0.
        -24    2    5    5    0    0 -0.69513261590E+02 -0.12064549351E+03  0.58698060051E+01  0.15967602489E+03  0.77939397364E+02 0.  0.
          5    1    3    3  501    0 -0.35184006822E+02  0.11522238458E+03 -0.25539909526E+02  0.12324158885E+03  0.47000000000E+01 0. -1.
        -11    1    4    4    0    0  0.35827586306E+02  0.37417866289E+02 -0.70007591694E+00  0.51809292259E+02  0.00000000000E+00 0.  1.
         12    1    4    4    0    0  0.12577057315E+02  0.11159216995E+01  0.67900573109E+02  0.69064574714E+02  0.00000000000E+00 0. -1.
         -5    1    5    5    0  502  0.56292624791E+02 -0.33110679059E+02 -0.33305915561E+02  0.73461218918E+02  0.47000000000E+01 0.  1.
         13    1    6    6    0    0 -0.24531278243E+02 -0.98050777141E+02  0.27712749399E+02  0.10480331574E+03  0.00000000000E+00 0. -1.
        -14    1    6    6    0    0 -0.44981983347E+02 -0.22594716364E+02 -0.21842943394E+02  0.54872709151E+02  0.00000000000E+00 0.  1.
</event>
<event>
12    1  0.8407180E-002  0.2552266E+03  0.7818608E-02  0.1110092E+00
         21   -1    0    0  501  502  0.00000000000E+00  0.00000000000E+00  0.13991167946E+03  0.13991167946E+03  0.00000000000E+00 0. -1.
         21   -1    0    0  502  503 -0.00000000000E+00 -0.00000000000E+00 -0.16154535971E+04  0.16154535971E+04  0.00000000000E+00 0. -1.
         -6    2    1    2    0  503 -0.18816142266E+03 -0.11752020433E+02 -0.14785527967E+04  0.15004195999E+04  0.17204003050E+03 0.  0.
        -24    2    3    3    0    0 -0.11596465991E+03  0.46522404178E+02 -0.11245746647E+04  0.11344539061E+04  0.81886214035E+02 0.  0.
          6    2    1    2  501    0  0.18816142266E+03  0.11752020433E+02  0.30108790960E+01  0.25494567665E+03  0.17159662492E+03 0.  0.
         24    2    5    5    0    0  0.11180632692E+03 -0.51447276455E+02  0.34841311688E+02  0.15073666450E+03  0.79750536244E+02 0.  0.
          5    1    5    5  501    0  0.76355095745E+02  0.63199296888E+02 -0.31830432592E+02  0.10420901215E+03  0.47000000000E+01 0. -1.
        -13    1    6    6    0    0  0.44354726146E+02 -0.27647258060E+01 -0.22393251592E+02  0.49763874016E+02  0.00000000000E+00 0.  1.
         14    1    6    6    0    0  0.67451600771E+02 -0.48682550649E+02  0.57234563280E+02  0.10097279048E+03  0.00000000000E+00 0. -1.
         -5    1    3    3    0  503 -0.72196762748E+02 -0.58274424611E+02 -0.35397813199E+03  0.36596569380E+03  0.47000000000E+01 0.  1.
         13    1    4    4    0    0 -0.17152440434E+02  0.46049239391E+02 -0.45114267485E+03  0.45381103086E+03  0.00000000000E+00 0. -1.
        -14    1    4    4    0    0 -0.98812219480E+02  0.47316478604E+00 -0.67343198986E+03  0.68064287521E+03  0.00000000000E+00 0.  1.
</event>
<event>
12    1  0.8407180E-002  0.2351692E+03  0.7818608E-02  0.1123808E+00
         21   -1    0    0  501  502  0.00000000000E+00  0.00000000000E+00  0.13604179383E+03  0.13604179383E+03  0.00000000000E+00 0. -1.
         21   -1    0    0  502  503 -0.00000000000E+00 -0.00000000000E+00 -0.42547304916E+03  0.42547304916E+03  0.00000000000E+00 0. -1.
         -6    2    1    2    0  503  0.14880440107E+03 -0.43804939924E+02 -0.21599930081E+03  0.31931214764E+03  0.17675668909E+03 0.  0.
        -24    2    3    3    0    0  0.17882083925E+02  0.20386086139E+01 -0.27017930596E+02  0.84837559767E+02  0.78380597873E+02 0.  0.
          6    2    1    2  501    0 -0.14880440107E+03  0.43804939924E+02 -0.73431954510E+02  0.24220269535E+03  0.17090427483E+03 0.  0.
         24    2    5    5    0    0 -0.21209253429E+02  0.47030121166E+01 -0.70022419626E+02  0.10862426376E+03  0.80150737196E+02 0.  0.
          5    1    5    5  501    0 -0.12759514764E+03  0.39101927807E+02 -0.34095348843E+01  0.13357843159E+03  0.47000000000E+01 0. -1.
        -11    1    6    6    0    0  0.11375587386E+02  0.35142107813E+02 -0.21560930859E+02  0.42769679324E+02  0.00000000000E+00 0.  1.
         12    1    6    6    0    0 -0.32584840815E+02 -0.30439095696E+02 -0.48461488767E+02  0.65854584436E+02  0.00000000000E+00 0. -1.
         -5    1    3    3    0  503  0.13092231714E+03 -0.45843548538E+02 -0.18898137022E+03  0.23447458787E+03  0.47000000000E+01 0.  1.
         13    1    4    4    0    0  0.41776492036E+02  0.21029217548E+02 -0.46588794099E+01  0.47002217340E+02  0.00000000000E+00 0. -1.
        -14    1    4    4    0    0 -0.23894408110E+02 -0.18990608934E+02 -0.22359051186E+02  0.37835342427E+02  0.00000000000E+00 0.  1.
</event>
<event>
12    1  0.8407180E-002  0.2743334E+03  0.7818608E-02  0.1099222E+00
         21   -1    0    0  501  502  0.00000000000E+00  0.00000000000E+00  0.93796431872E+03  0.93796431872E+03  0.00000000000E+00 0. -1.
         21   -1    0    0  502  503 -0.00000000000E+00 -0.00000000000E+00 -0.12758475913E+03  0.12758475913E+03  0.00000000000E+00 0. -1.
         -6    2    1    2    0  503  0.15430568668E+03 -0.14109845240E+03  0.76519491643E+02  0.28208916764E+03  0.17320521843E+03 0.  0.
        -24    2    3    3    0    0  0.81322235332E+02 -0.29858841899E+02  0.89669038051E+02  0.14831384972E+03  0.80321885156E+02 0.  0.
          6    2    1    2  501    0 -0.15430568668E+03  0.14109845240E+03  0.73386006794E+03  0.78345991021E+03  0.17759451955E+03 0.  0.
         24    2    5    5    0    0 -0.11065988379E+03  0.15645081117E+03  0.44562033769E+03  0.49149264642E+03  0.79152194680E+02 0.  0.
          5    1    5    5  501    0 -0.43645802887E+02 -0.15352358776E+02  0.28823973025E+03  0.29196726379E+03  0.47000000000E+01 0. -1.
        -11    1    6    6    0    0  0.10169720881E+02  0.70861404134E+01  0.12156636520E+02  0.17361463655E+02  0.00000000000E+00 0.  1.
         12    1    6    6    0    0 -0.12082960467E+03  0.14936467076E+03  0.43346370117E+03  0.47413118277E+03  0.00000000000E+00 0. -1.
         -5    1    3    3    0  503  0.72983451348E+02 -0.11123961050E+03 -0.13149546408E+02  0.13377531792E+03  0.47000000000E+01 0.  1.
         11    1    4    4    0    0  0.43026008961E+02 -0.52259343978E+02  0.30213088693E+02  0.74128990338E+02  0.00000000000E+00 0. -1.
        -12    1    4    4    0    0  0.38296226372E+02  0.22400502079E+02  0.59455949358E+02  0.74184859383E+02  0.00000000000E+00 0.  1.
</event>
<event>
12    1  0.8407180E-002  0.1724387E+03  0.7818608E-02  0.1175643E+00
         21   -1    0    0  503  502  0.00000000000E+00  0.00000000000E+00  0.15501483025E+03  0.15501483025E+03  0.00000000000E+00 0. -1.
         21   -1    0    0  501  503 -0.00000000000E+00 -0.00000000000E+00 -0.19255424302E+03  0.19255424302E+03  0.00000000000E+00 0. -1.
          6    2    1    2  501    0 -0.11188231539E+02 -0.14093772090E+02 -0.71565639695E+00  0.17244020311E+03  0.17149723189E+03 0.  0.
         24    2    3    3    0    0 -0.56850477933E+01 -0.72914746399E+02  0.19201707940E+02  0.10991833931E+03  0.79777538938E+02 0.  0.
         -6    2    1    2    0  502  0.11188231539E+02  0.14093772090E+02 -0.36823756367E+02  0.17512887016E+03  0.17026544334E+03 0.  0.
        -24    2    5    5    0    0  0.39692987149E+02 -0.81225371695E+01 -0.78646996664E+02  0.11965492206E+03  0.80563276060E+02 0.  0.
          5    1    3    3  501    0 -0.55031837453E+01  0.58820974309E+02 -0.19917364337E+02  0.62521863792E+02  0.47000000000E+01 0. -1.
        -13    1    4    4    0    0  0.28919043589E+02 -0.63191295334E+02  0.71326885149E+00  0.69497911052E+02  0.00000000000E+00 0.  1.
         14    1    4    4    0    0 -0.34604091382E+02 -0.97234510646E+01  0.18488439089E+02  0.40420428262E+02  0.00000000000E+00 0. -1.
         -5    1    5    5    0  502 -0.28504755610E+02  0.22216309260E+02  0.41823240297E+02  0.55473948106E+02  0.47000000000E+01 0.  1.
         13    1    6    6    0    0 -0.72565895740E+01 -0.31175010912E+02 -0.10369421197E+02  0.33646163133E+02  0.00000000000E+00 0. -1.
        -14    1    6    6    0    0  0.46949576723E+02  0.23052473743E+02 -0.68277575467E+02  0.86008758925E+02  0.00000000000E+00 0.  1.
</event>
<event>
12    1  0.8407180E-002  0.1827393E+03  0.7818608E-02  0.1165761E+00
         21   -1    0    0  501  502  0.00000000000E+00  0.00000000000E+00  0.58806205970E+03  0.58806205970E+03  0.00000000000E+00 0.  1.
         21   -1    0    0  502  503 -0.00000000000E+00 -0.00000000000E+00 -0.12099702788E+03  0.12099702788E+03  0.00000000000E+00 0.  1.
         -6    2    1    2    0  503  0.42174225785E+02  0.17315769030E+02  0.49403957396E+03  0.52675301477E+03  0.17696083396E+03 0.  0.
        -24    2    3    3    0    0 -0.37130350336E+02  0.21962231688E+02  0.16122369030E+03  0.18455525350E+03  0.78781728472E+02 0.  0.
          6    2    1    2  501    0 -0.42174225785E+02 -0.17315769030E+02 -0.26974542134E+02  0.18230607280E+03  0.17444018195E+03 0.  0.
         24    2    5    5    0    0 -0.70448807372E+01  0.19830871965E+02  0.45347198087E+02  0.93612961858E+02  0.79146221806E+02 0.  0.
          5    1    5    5  501    0 -0.35129345048E+02 -0.37146640995E+02 -0.72321740220E+02  0.88693110945E+02  0.47000000000E+01 0. -1.
        -13    1    6    6    0    0  0.16169053259E+02 -0.13353786630E+02 -0.11421581903E+02  0.23879163173E+02  0.00000000000E+00 0.  1.
         14    1    6    6    0    0 -0.23213933996E+02  0.33184658594E+02  0.56768779990E+02  0.69733798686E+02  0.00000000000E+00 0. -1.
         -5    1    3    3    0  503  0.79304576121E+02 -0.46464626579E+01  0.33281588365E+03  0.34219776127E+03  0.47000000000E+01 0.  1.
         13    1    4    4    0    0 -0.25504513466E+02  0.38162389314E+02  0.37602690651E+02  0.59336418071E+02  0.00000000000E+00 0. -1.
        -14    1    4    4    0    0 -0.11625836870E+02 -0.16200157626E+02  0.12362099965E+03  0.12521883542E+03  0.00000000000E+00 0.  1.
</event>
<event>
12    1  0.8407180E-002  0.1887076E+03  0.7818608E-02  0.1160154E+00
         21   -1    0    0  501  502  0.00000000000E+00  0.00000000000E+00  0.17283011703E+04  0.17283011703E+04  0.00000000000E+00 0. -1.
         21   -1    0    0  502  503 -0.00000000000E+00 -0.00000000000E+00 -0.21139655443E+02  0.21139655443E+02  0.00000000000E+00 0. -1.
         -6    2    1    2    0  503 -0.34455593740E+02 -0.64798925069E+02  0.68020287995E+03  0.70528825069E+03  0.17137523170E+03 0.  0.
        -24    2    3    3    0    0 -0.26762366300E+02 -0.11060126191E+03  0.51633748762E+03  0.53490340215E+03  0.81045574351E+02 0.  0.
          6    2    1    2  501    0  0.34455593740E+02  0.64798925069E+02  0.10269586349E+04  0.10441525750E+04  0.17385187243E+03 0.  0.
         24    2    5    5    0    0  0.52615246363E+02  0.88173642674E+02  0.97668887672E+03  0.98562660650E+03  0.83640242259E+02 0.  0.
          5    1    5    5  501    0 -0.18159652623E+02 -0.23374717605E+02  0.50269758183E+02  0.58525968546E+02  0.47000000000E+01 0. -1.
        -13    1    6    6    0    0  0.82752902843E+01  0.60544653345E+02  0.77059514523E+03  0.77301423877E+03  0.00000000000E+00 0.  1.
         14    1    6    6    0    0  0.44339956079E+02  0.27628989330E+02  0.20609373149E+03  0.21261236773E+03  0.00000000000E+00 0. -1.
         -5    1    3    3    0  503 -0.76932274405E+01  0.45802336845E+02  0.16386539233E+03  0.17038484854E+03  0.47000000000E+01 0.  1.
         13    1    4    4    0    0 -0.20180595502E+02  0.54459787804E+01  0.12255049436E+03  0.12432030722E+03  0.00000000000E+00 0. -1.
        -14    1    4    4    0    0 -0.65817707977E+01 -0.11604724070E+03  0.39378699326E+03  0.41058309493E+03  0.00000000000E+00 0.  1.
</event>
<event>
12    1  0.8407180E-002  0.1804628E+03  0.7818608E-02  0.1167774E+00
         21   -1    0    0  501  502  0.00000000000E+00  0.00000000000E+00  0.37216552414E+03  0.37216552414E+03  0.00000000000E+00 0. -1.
         21   -1    0    0  502  503 -0.00000000000E+00 -0.00000000000E+00 -0.17585971570E+03  0.17585971570E+03  0.00000000000E+00 0. -1.
         -6    2    1    2    0  503 -0.50667372993E+02 -0.95231326821E+01 -0.97215668626E+02  0.20346512932E+03  0.17114116945E+03 0.  0.
        -24    2    3    3    0    0  0.28159672487E+01 -0.14493084280E+02 -0.58886478073E+01  0.97409093030E+02  0.96103465434E+02 0.  0.
          6    2    1    2  501    0  0.50667372993E+02  0.95231326821E+01  0.29352147707E+03  0.34456011052E+03  0.17294201201E+03 0.  0.
         24    2    5    5    0    0 -0.24375390415E+02  0.45816414918E+02  0.18202760397E+03  0.20527051143E+03  0.79426889171E+02 0.  0.
          5    1    5    5  501    0  0.75042763408E+02 -0.36293282236E+02  0.11149387310E+03  0.13928959909E+03  0.47000000000E+01 0. -1.
        -13    1    6    6    0    0 -0.35525937405E+02 -0.72526859885E+01  0.44267801842E+02  0.57221778742E+02  0.00000000000E+00 0.  1.
         14    1    6    6    0    0  0.11150546989E+02  0.53069100907E+02  0.13775980213E+03  0.14804873269E+03  0.00000000000E+00 0. -1.
         -5    1    3    3    0  503 -0.53483340242E+02  0.49699515974E+01 -0.91327020818E+02  0.10605603629E+03  0.47000000000E+01 0.  1.
         13    1    4    4    0    0 -0.44210177568E+02 -0.21849985770E+02  0.93837593782E+00  0.49323850500E+02  0.00000000000E+00 0. -1.
        -14    1    4    4    0    0  0.47026144817E+02  0.73569014904E+01 -0.68270237451E+01  0.48085242529E+02  0.00000000000E+00 0.  1.
</event>
<event>
12    1  0.8407180E-002  0.1995516E+03  0.7818608E-02  0.1150656E+00
         21   -1    0    0  501  502  0.00000000000E+00  0.00000000000E+00  0.23827891254E+03  0.23827891254E+03  0.00000000000E+00 0. -1.
         21   -1    0    0  502  503 -0.00000000000E+00 -0.00000000000E+00 -0.22621108647E+03  0.22621108647E+03  0.00000000000E+00 0. -1.
         -6    2    1    2    0  503  0.54888478642E+02 -0.79517303930E+02 -0.11473849247E+03  0.23018638752E+03  0.17459984144E+03 0.  0.
        -24    2    3    3    0    0  0.51069775737E+02 -0.39796253868E+02  0.34253225194E+01  0.10537804852E+03  0.83071875263E+02 0.  0.
          6    2    1    2  501    0 -0.54888478642E+02  0.79517303930E+02  0.12680631853E+03  0.23430361149E+03  0.17170495982E+03 0.  0.
         24    2    5    5    0    0 -0.10204761102E+03  0.53330578592E+02  0.70190388006E+02  0.15596344338E+03  0.78358404618E+02 0.  0.
          5    1    5    5  501    0  0.47159132380E+02  0.26186725338E+02  0.56615930526E+02  0.78340168114E+02  0.47000000000E+01 0. -1.
        -13    1    6    6    0    0 -0.30575436324E+02  0.41017120453E+02 -0.51134842218E+01  0.51414095320E+02  0.00000000000E+00 0.  1.
         14    1    6    6    0    0 -0.71472174698E+02  0.12313458140E+02  0.75303872228E+02  0.10454934806E+03  0.00000000000E+00 0. -1.
         -5    1    3    3    0  503  0.38187029048E+01 -0.39721050062E+02 -0.11816381499E+03  0.12480833900E+03  0.47000000000E+01 0.  1.
         13    1    4    4    0    0  0.26675831609E+02 -0.46314444529E+02 -0.31683322951E+02  0.62132605911E+02  0.00000000000E+00 0. -1.
        -14    1    4    4    0    0  0.24393944128E+02  0.65181906610E+01  0.35108645471E+02  0.43245442608E+02  0.00000000000E+00 0.  1.
</event>
<event>
12    1  0.8407180E-002  0.3502919E+03  0.7818608E-02  0.1062542E+00
         21   -1    0    0  503  502  0.00000000000E+00  0.00000000000E+00  0.19462254192E+03  0.19462254192E+03  0.00000000000E+00 0. -1.
         21   -1    0    0  501  503 -0.00000000000E+00 -0.00000000000E+00 -0.16441931444E+04  0.16441931444E+04  0.00000000000E+00 0.  1.
          6    2    1    2  501    0  0.20320987228E+03  0.22650255129E+03 -0.14471815393E+04  0.14889724074E+04  0.17351300874E+03 0.  0.
         24    2    3    3    0    0  0.17477533885E+03  0.22449176048E+03 -0.10655188950E+04  0.11062178776E+04  0.86281559795E+02 0.  0.
         -6    2    1    2    0  502 -0.20320987228E+03 -0.22650255129E+03 -0.23890631143E+01  0.34984327892E+03  0.17258897488E+03 0.  0.
        -24    2    5    5    0    0 -0.19604731239E+02 -0.84662684708E+02 -0.24839055121E+01  0.11778403096E+03  0.79465668652E+02 0.  0.
          5    1    3    3  501    0  0.28434533433E+02  0.20107908044E+01 -0.38166264431E+03  0.38275452973E+03  0.47000000000E+01 0. -1.
        -11    1    4    4    0    0  0.12791340759E+03  0.14410914176E+03 -0.84831111074E+03  0.86992012575E+03  0.00000000000E+00 0.  1.
         12    1    4    4    0    0  0.46861931257E+02  0.80382618720E+02 -0.21720778426E+03  0.23629775187E+03  0.00000000000E+00 0. -1.
         -5    1    5    5    0  502 -0.18360514104E+03 -0.14183986658E+03  0.94842397858E-01  0.23205924796E+03  0.47000000000E+01 0.  1.
         11    1    6    6    0    0 -0.26936013819E+02 -0.93784607365E+02  0.12931892491E+02  0.98429341471E+02  0.00000000000E+00 0. -1.
        -12    1    6    6    0    0  0.73312825804E+01  0.91219226570E+01 -0.15415798003E+02  0.19354689491E+02  0.00000000000E+00 0.  1.
</event>
<event>
12    1  0.8407180E-002  0.1952262E+03  0.7818608E-02  0.1153994E+00
         21   -1    0    0  503  502  0.00000000000E+00  0.00000000000E+00  0.96038953607E+02  0.96038953607E+02  0.00000000000E+00 0. -1.
         21   -1    0    0  501  503 -0.00000000000E+00 -0.00000000000E+00 -0.48388675322E+03  0.48388675322E+03  0.00000000000E+00 0. -1.
          6    2    1    2  501    0 -0.56212313311E+02  0.72759877426E+02 -0.31827842558E+03  0.37338242033E+03  0.17221919663E+03 0.  0.
         24    2    3    3    0    0  0.28267695464E+02  0.14357632460E+02 -0.19469914013E+03  0.21262911899E+03  0.79361091578E+02 0.  0.
         -6    2    1    2    0  502  0.56212313311E+02 -0.72759877426E+02 -0.69569374036E+02  0.20654328650E+03  0.17136629617E+03 0.  0.
        -24    2    5    5    0    0  0.10093624703E+03 -0.53890219284E+02 -0.71914413943E+02  0.15771825750E+03  0.81308573450E+02 0.  0.
          5    1    3    3  501    0 -0.84480008775E+02  0.58402244966E+02 -0.12357928545E+03  0.16075330134E+03  0.47000000000E+01 0. -1.
        -13    1    4    4    0    0 -0.83303837501E+01 -0.15888897152E+02 -0.74011459574E+01  0.19406939677E+02  0.00000000000E+00 0.  1.
         14    1    4    4    0    0  0.36598079214E+02  0.30246529611E+02 -0.18729799418E+03  0.19322217931E+03  0.00000000000E+00 0. -1.
         -5    1    5    5    0  502 -0.44723933715E+02 -0.18869658142E+02  0.23450399077E+01  0.48825029007E+02  0.47000000000E+01 0.  1.
         13    1    6    6    0    0  0.39674634736E+02 -0.80786407117E+01  0.13853260093E+02  0.42793152401E+02  0.00000000000E+00 0. -1.
        -14    1    6    6    0    0  0.61261612290E+02 -0.45811578572E+02 -0.85767674036E+02  0.11492510510E+03  0.00000000000E+00 0.  1.
</event>
<event>
12    1  0.8407180E-002  0.2044709E+03  0.7818608E-02  0.1146384E+00
         21   -1    0    0  501  502  0.00000000000E+00  0.00000000000E+00  0.19806941571E+03  0.19806941571E+03  0.00000000000E+00 0. -1.
         21   -1    0    0  502  503 -0.00000000000E+00 -0.00000000000E+00 -0.21267921443E+03  0.21267921443E+03  0.00000000000E+00 0. -1.
         -6    2    1    2    0  503  0.10482929545E+03 -0.26322844283E+02 -0.33373273091E+02  0.20717653132E+03  0.17356919789E+03 0.  0.
        -24    2    3    3    0    0 -0.50300183529E+01 -0.31496601465E+02  0.18645468263E+02  0.85423190316E+02  0.77020328281E+02 0.  0.
          6    2    1    2  501    0 -0.10482929545E+03  0.26322844283E+02  0.18763474370E+02  0.20357209883E+03  0.17148602898E+03 0.  0.
         24    2    5    5    0    0 -0.12157265727E+02  0.29535766587E+02 -0.38943059000E+02  0.94253472988E+02  0.79668028143E+02 0.  0.
          5    1    5    5  501    0 -0.92672029722E+02 -0.32129223039E+01  0.57706533370E+02  0.10931862584E+03  0.47000000000E+01 0. -1.
        -13    1    6    6    0    0 -0.29395067274E+02 -0.15859782962E+02 -0.29965381608E+02  0.44872338813E+02  0.00000000000E+00 0.  1.
         14    1    6    6    0    0  0.17237801547E+02  0.45395549549E+02 -0.89776773920E+01  0.49381134175E+02  0.00000000000E+00 0. -1.
         -5    1    3    3    0  503  0.10985931380E+03  0.51737571819E+01 -0.52018741354E+02  0.12175334100E+03  0.47000000000E+01 0.  1.
         11    1    4    4    0    0  0.26358709154E+02 -0.40936552520E+02  0.19955694120E+02  0.52619507868E+02  0.00000000000E+00 0. -1.
        -12    1    4    4    0    0 -0.31388727507E+02  0.94399510542E+01 -0.13102258564E+01  0.32803682449E+02  0.00000000000E+00 0.  1.
</event>
<event>
12    1  0.8407180E-002  0.2067515E+03  0.7818608E-02  0.1147293E+00
         21   -1    0    0  503  502  0.00000000000E+00  0.00000000000E+00  0.22233030644E+03  0.22233030644E+03  0.00000000000E+00 0. -1.
         21   -1    0    0  501  503 -0.00000000000E+00 -0.00000000000E+00 -0.20022480103E+03  0.20022480103E+03  0.00000000000E+00 0. -1.
          6    2    1    2  501    0  0.76114614138E+02 -0.44136445744E+02 -0.58582180200E+02  0.20061660066E+03  0.17051008268E+03 0.  0.
         24    2    3    3    0    0  0.31210938634E+02  0.31218207258E+01 -0.93229963732E+02  0.12664199199E+03  0.79765277804E+02 0.  0.
         -6    2    1    2    0  502 -0.76114614138E+02  0.44136445744E+02  0.80687685611E+02  0.22193850682E+03  0.18709553141E+03 0.  0.
        -24    2    5    5    0    0 -0.45063180382E+02  0.96550614440E+02  0.18319485436E+02  0.13462688668E+03  0.80225206115E+02 0.  0.
          5    1    3    3  501    0  0.44903675504E+02 -0.47258266470E+02  0.34647783532E+02  0.73974608666E+02  0.47000000000E+01 0. -1.
        -11    1    4    4    0    0  0.40660252864E+02  0.24514244909E+02 -0.23265431911E+02  0.52872343323E+02  0.00000000000E+00 0.  1.
         12    1    4    4    0    0 -0.94493142301E+01 -0.21392424183E+02 -0.69964531821E+02  0.73769648669E+02  0.00000000000E+00 0. -1.
         -5    1    5    5    0  502 -0.31051433756E+02 -0.52414168695E+02  0.62368200175E+02  0.87311620139E+02  0.47000000000E+01 0.  1.
         13    1    6    6    0    0 -0.47696857775E+02  0.60783373087E+02  0.45465341558E+02  0.89647676871E+02  0.00000000000E+00 0. -1.
        -14    1    6    6    0    0  0.26336773931E+01  0.35767241352E+02 -0.27145856122E+02  0.44979209810E+02  0.00000000000E+00 0.  1.
</event>
<event>
12    1  0.8407180E-002  0.2049525E+03  0.7818608E-02  0.1145659E+00
         21   -1    0    0  501  502  0.00000000000E+00  0.00000000000E+00  0.37750087580E+03  0.37750087580E+03  0.00000000000E+00 0. -1.
         21   -1    0    0  502  503 -0.00000000000E+00 -0.00000000000E+00 -0.22209161321E+03  0.22209161321E+03  0.00000000000E+00 0. -1.
         -6    2    1    2    0  503 -0.54827668013E+02 -0.97537577564E+02 -0.13416468817E+03  0.24482690777E+03  0.17152375637E+03 0.  0.
        -24    2    3    3    0    0  0.12653715095E+02  0.75546195652E+01 -0.53914800792E+02  0.96300003174E+02  0.78419997987E+02 0.  0.
          6    2    1    2  501    0  0.54827668013E+02  0.97537577564E+02  0.28957395077E+03  0.35476558124E+03  0.17171456680E+03 0.  0.
         24    2    5    5    0    0 -0.17686165678E+02  0.93654862784E+02  0.12042568898E+03  0.17062825201E+03  0.74347965928E+02 0.  0.
          5    1    5    5  501    0  0.72513833691E+02  0.38827147802E+01  0.16914826178E+03  0.18413732923E+03  0.47000000000E+01 0. -1.
        -13    1    6    6    0    0  0.28311281869E+02  0.36662629911E+02  0.34699107459E+02  0.57876637528E+02  0.00000000000E+00 0.  1.
         14    1    6    6    0    0 -0.45997447547E+02  0.56992232873E+02  0.85726581523E+02  0.11275161448E+03  0.00000000000E+00 0. -1.
         -5    1    3    3    0  503 -0.67481383109E+02 -0.10509219713E+03 -0.80249887380E+02  0.14852690459E+03  0.47000000000E+01 0.  1.
         13    1    4    4    0    0  0.39255899636E+02  0.55387933591E+01 -0.57013313551E+02  0.69442219220E+02  0.00000000000E+00 0. -1.
        -14    1    4    4    0    0 -0.26602184540E+02  0.20158262061E+01  0.30985127588E+01  0.26857783954E+02  0.00000000000E+00 0.  1.
</event>
<event>
12    1  0.8407180E-002  0.2044809E+03  0.7818608E-02  0.1146013E+00
         21   -1    0    0  503  502  0.00000000000E+00  0.00000000000E+00  0.84009432628E+02  0.84009432628E+02  0.00000000000E+00 0.  1.
         21   -1    0    0  501  503 -0.00000000000E+00 -0.00000000000E+00 -0.61401828995E+03  0.61401828995E+03  0.00000000000E+00 0.  1.
          6    2    1    2  501    0 -0.10876297115E+02  0.11111203731E+03 -0.41691021163E+03  0.46435608689E+03  0.17131337425E+03 0.  0.
         24    2    3    3    0    0  0.39635055648E+02  0.90390623012E+02 -0.17801821082E+03  0.21925967358E+03  0.81504102409E+02 0.  0.
         -6    2    1    2    0  502  0.10876297115E+02 -0.11111203731E+03 -0.11309864569E+03  0.23367163568E+03  0.17130951810E+03 0.  0.
        -24    2    5    5    0    0  0.40395871630E+02 -0.37929597266E+02 -0.11961625747E+03  0.15435175120E+03  0.80286569575E+02 0.  0.
          5    1    3    3  501    0 -0.50511352763E+02  0.20721414300E+02 -0.23889200081E+03  0.24509641331E+03  0.47000000000E+01 0. -1.
        -11    1    4    4    0    0 -0.11858107089E+02  0.70639900175E+02 -0.11534390565E+03  0.13577491216E+03  0.00000000000E+00 0.  1.
         12    1    4    4    0    0  0.51493162737E+02  0.19750722837E+02 -0.62674305174E+02  0.83484761426E+02  0.00000000000E+00 0. -1.
         -5    1    5    5    0  502 -0.29519574515E+02 -0.73182440045E+02  0.65176117830E+01  0.79319884480E+02  0.47000000000E+01 0.  1.
         13    1    6    6    0    0  0.22854274679E+01  0.24369902067E+02 -0.28053099174E+02  0.37230252198E+02  0.00000000000E+00 0. -1.
        -14    1    6    6    0    0  0.38110444162E+02 -0.62299499334E+02 -0.91563158298E+02  0.11712149900E+03  0.00000000000E+00 0.  1.
</event>
<event>
12    1  0.8407180E-002  0.2064575E+03  0.7818608E-02  0.1144496E+00
         21   -1    0    0  503  502  0.00000000000E+00  0.00000000000E+00  0.18482506504E+03  0.18482506504E+03  0.00000000000E+00 0.  1.
         21   -1    0    0  501  503 -0.00000000000E+00 -0.00000000000E+00 -0.25789101054E+03  0.25789101054E+03  0.00000000000E+00 0. -1.
          6    2    1    2  501    0  0.70667154347E+02  0.89674382828E+02 -0.10922837963E+03  0.23357129981E+03  0.17201561423E+03 0.  0.
         24    2    3    3    0    0  0.60932265519E+02  0.97633539512E+02 -0.18151574502E+02  0.14151050105E+03  0.80316207774E+02 0.  0.
         -6    2    1    2    0  502 -0.70667154347E+02 -0.89674382828E+02  0.36162434130E+02  0.20914477578E+03  0.17145983189E+03 0.  0.
        -24    2    5    5    0    0 -0.16674229958E+02 -0.38904785024E+02 -0.42474828156E+02  0.10098426096E+03  0.81253293425E+02 0.  0.
          5    1    3    3  501    0  0.97348888283E+01 -0.79591566838E+01 -0.91076805128E+02  0.92060798758E+02  0.47000000000E+01 0. -1.
        -13    1    4    4    0    0  0.45877371621E+02  0.56455519055E+01  0.15080292924E+01  0.46248023044E+02  0.00000000000E+00 0.  1.
         14    1    4    4    0    0  0.15054893898E+02  0.91987987606E+02 -0.19659603794E+02  0.95262478004E+02  0.00000000000E+00 0. -1.
         -5    1    5    5    0  502 -0.53992924389E+02 -0.50769597804E+02  0.78637262286E+02  0.10816051482E+03  0.47000000000E+01 0.  1.
         13    1    6    6    0    0 -0.97994101927E+01 -0.64182925991E+02 -0.25420701355E+02  0.69725809327E+02  0.00000000000E+00 0. -1.
        -14    1    6    6    0    0 -0.68748197650E+01  0.25278140967E+02 -0.17054126800E+02  0.31258451633E+02  0.00000000000E+00 0.  1.
</event>
<event>
12    1  0.8407180E-002  0.2194681E+03  0.7818608E-02  0.1134438E+00
         21   -1    0    0  501  502  0.00000000000E+00  0.00000000000E+00  0.12978158343E+04  0.12978158343E+04  0.00000000000E+00 0.  1.
         21   -1    0    0  502  503 -0.00000000000E+00 -0.00000000000E+00 -0.11068375109E+03  0.11068375109E+03  0.00000000000E+00 0.  1.
         -6    2    1    2    0  503  0.11979733518E+03 -0.64194116766E+02  0.18463940357E+02  0.21940267486E+03  0.17124348308E+03 0.  0.
        -24    2    3    3    0    0  0.49677160737E+02  0.27338804943E+02  0.34247135714E+02  0.10292815457E+03  0.78778855940E+02 0.  0.
          6    2    1    2  501    0 -0.11979733518E+03  0.64194116766E+02  0.11686681429E+04  0.11890969106E+04  0.17231932099E+03 0.  0.
         24    2    5    5    0    0 -0.62889185937E+02  0.19788906563E+02  0.10037564293E+04  0.10090182516E+04  0.79020327428E+02 0.  0.
          5    1    5    5  501    0 -0.56908149246E+02  0.44405210203E+02  0.16491171363E+03  0.18007865902E+03  0.47000000000E+01 0. -1.
        -13    1    6    6    0    0 -0.10891360549E+02  0.44030001621E+02  0.47335185520E+03  0.47551996972E+03  0.00000000000E+00 0.  1.
         14    1    6    6    0    0 -0.51997825388E+02 -0.24241095058E+02  0.53040457407E+03  0.53349828184E+03  0.00000000000E+00 0. -1.
         -5    1    3    3    0  503  0.70120174447E+02 -0.91532921709E+02 -0.15783195357E+02  0.11647452029E+03  0.47000000000E+01 0.  1.
         11    1    4    4    0    0  0.50754987889E+02 -0.15952777580E+02  0.24329530516E+02  0.58502016745E+02  0.00000000000E+00 0. -1.
        -12    1    4    4    0    0 -0.10778271527E+01  0.43291582524E+02  0.99176051980E+01  0.44426137821E+02  0.00000000000E+00 0.  1.
</event>
<event>
12    1  0.8407180E-002  0.1762574E+03  0.7818608E-02  0.1172554E+00
         21   -1    0    0  501  502  0.00000000000E+00  0.00000000000E+00  0.18708730819E+04  0.18708730819E+04  0.00000000000E+00 0.  1.
         21   -1    0    0  502  503 -0.00000000000E+00 -0.00000000000E+00 -0.59542407444E+02  0.59542407444E+02  0.00000000000E+00 0.  1.
         -6    2    1    2    0  503  0.19145044328E+02 -0.14075061587E+02  0.79194841083E+02  0.18933501605E+03  0.17032699541E+03 0.  0.
        -24    2    3    3    0    0 -0.11247590410E+02  0.82834330236E+01  0.11321921480E+03  0.13831185920E+03  0.78207776095E+02 0.  0.
          6    2    1    2  501    0 -0.19145044328E+02  0.14075061587E+02  0.17321358334E+04  0.17410804733E+04  0.17464830134E+03 0.  0.
         24    2    5    5    0    0 -0.93236037411E+01  0.65971363542E+02  0.14652176678E+04  0.14689461610E+04  0.80627906447E+02 0.  0.
          5    1    5    5  501    0 -0.98214405873E+01 -0.51896301955E+02  0.26691816558E+03  0.27213431237E+03  0.47000000000E+01 0. -1.
        -11    1    6    6    0    0  0.25710263429E+01  0.59992183891E+02  0.49383775399E+03  0.49747502407E+03  0.00000000000E+00 0.  1.
         12    1    6    6    0    0 -0.11894630084E+02  0.59791796509E+01  0.97137991383E+03  0.97147113689E+03  0.00000000000E+00 0. -1.
         -5    1    3    3    0  503  0.30392634739E+02 -0.22358494611E+02 -0.34024373720E+02  0.51023156848E+02  0.47000000000E+01 0.  1.
         13    1    4    4    0    0  0.25048449785E+02 -0.18006576935E+02  0.26382097021E+02  0.40591584014E+02  0.00000000000E+00 0. -1.
        -14    1    4    4    0    0 -0.36296040195E+02  0.26290009959E+02  0.86837117783E+02  0.97720275185E+02  0.00000000000E+00 0.  1.
</event>
<event>
12    1  0.8407180E-002  0.2138029E+03  0.7818608E-02  0.1139065E+00
         21   -1    0    0  501  502  0.00000000000E+00  0.00000000000E+00  0.12050451450E+04  0.12050451450E+04  0.00000000000E+00 0.  1.
         21   -1    0    0  502  503 -0.00000000000E+00 -0.00000000000E+00 -0.96422944256E+02  0.96422944256E+02  0.00000000000E+00 0. -1.
         -6    2    1    2    0  503 -0.61369122258E+02 -0.11046408279E+03  0.46865786204E+02  0.21887913558E+03  0.17246214461E+03 0.  0.
        -24    2    3    3    0    0 -0.98720706459E+02 -0.56754949703E+02  0.36596933106E+02  0.15249125142E+03  0.94590401459E+02 0.  0.
          6    2    1    2  501    0  0.61369122258E+02  0.11046408279E+03  0.10617564145E+04  0.10825889536E+04  0.16942159264E+03 0.  0.
         24    2    5    5    0    0 -0.27145680066E+02  0.37806461594E+02  0.62092008354E+03  0.62709717453E+03  0.74450652542E+02 0.  0.
          5    1    5    5  501    0  0.88514802323E+02  0.72657621193E+02  0.44083633095E+03  0.45549177911E+03  0.47000000000E+01 0. -1.
        -11    1    6    6    0    0  0.14583535138E+02  0.43320709052E+02  0.32356496756E+03  0.32677767910E+03  0.00000000000E+00 0.  1.
         12    1    6    6    0    0 -0.41729215204E+02 -0.55142474579E+01  0.29735511599E+03  0.30031949542E+03  0.00000000000E+00 0. -1.
         -5    1    3    3    0  503  0.37351584202E+02 -0.53709133084E+02  0.10268853098E+02  0.66387884158E+02  0.47000000000E+01 0.  1.
         13    1    4    4    0    0 -0.46470143603E+02 -0.52918764758E+02 -0.22101118034E+02  0.73812799218E+02  0.00000000000E+00 0. -1.
        -14    1    4    4    0    0 -0.52250562857E+02 -0.38361849447E+01  0.58698051140E+02  0.78678452205E+02  0.00000000000E+00 0.  1.
</event>
<event>
12    1  0.8407180E-002  0.1781611E+03  0.7818608E-02  0.1171592E+00
         21   -1    0    0  501  502  0.00000000000E+00  0.00000000000E+00  0.48258256901E+03  0.48258256901E+03  0.00000000000E+00 0.  1.
         21   -1    0    0  502  503 -0.00000000000E+00 -0.00000000000E+00 -0.72723974151E+02  0.72723974151E+02  0.00000000000E+00 0.  1.
         -6    2    1    2    0  503 -0.43019979935E+02 -0.21117460931E+02  0.10680002934E+03  0.20772008506E+03  0.17159464339E+03 0.  0.
        -24    2    3    3    0    0  0.39974142682E+02  0.10309661046E+02  0.52515960060E+02  0.10358297082E+03  0.79166183368E+02 0.  0.
          6    2    1    2  501    0  0.43019979935E+02  0.21117460931E+02  0.30305856552E+03  0.34758645810E+03  0.16332539879E+03 0.  0.
         24    2    5    5    0    0  0.64926583395E+02 -0.20516917268E+02  0.11763413206E+03  0.15622911895E+03  0.77028199100E+02 0.  0.
          5    1    5    5  501    0 -0.21906603460E+02  0.41634378198E+02  0.18542443346E+03  0.19135733915E+03  0.47000000000E+01 0. -1.
        -13    1    6    6    0    0  0.53654043744E+02 -0.19838944762E+02  0.24196083785E+02  0.62111115027E+02  0.00000000000E+00 0.  1.
         14    1    6    6    0    0  0.11272539651E+02 -0.67797250605E+00  0.93438048274E+02  0.94118003922E+02  0.00000000000E+00 0. -1.
         -5    1    3    3    0  503 -0.82994122617E+02 -0.31427121977E+02  0.54284069278E+02  0.10413711424E+03  0.47000000000E+01 0.  1.
         11    1    4    4    0    0  0.37055927666E+02 -0.28833149943E+02  0.15009131044E+02  0.49292659956E+02  0.00000000000E+00 0. -1.
        -12    1    4    4    0    0  0.29182150155E+01  0.39142810989E+02  0.37506829016E+02  0.54290310865E+02  0.00000000000E+00 0.  1.
</event>
<event>
12    1  0.8407180E-002  0.2182474E+03  0.7818608E-02  0.1136069E+00
         21   -1    0    0  503  502  0.00000000000E+00  0.00000000000E+00  0.62442690183E+03  0.62442690183E+03  0.00000000000E+00 0.  1.
         21   -1    0    0  501  503 -0.00000000000E+00 -0.00000000000E+00 -0.87368421446E+02  0.87368421446E+02  0.00000000000E+00 0. -1.
          6    2    1    2  501    0  0.11752434308E+03  0.66169552458E+02  0.13538821880E+03  0.25683052438E+03  0.17158545269E+03 0.  0.
         24    2    3    3    0    0  0.98293864587E+01  0.70416242110E+02  0.87775228591E+02  0.13890968275E+03  0.80847666738E+02 0.  0.
         -6    2    1    2    0  502 -0.11752434308E+03 -0.66169552458E+02  0.40167026159E+03  0.45496479890E+03  0.16572141776E+03 0.  0.
        -24    2    5    5    0    0 -0.20306007217E+02 -0.79721484326E+02  0.19960537296E+03  0.23027085394E+03  0.80090650311E+02 0.  0.
          5    1    3    3  501    0  0.10769495662E+03 -0.42466896521E+01  0.47612990204E+02  0.11792084163E+03  0.47000000000E+01 0. -1.
        -13    1    4    4    0    0 -0.27827332621E+02  0.66243255621E+01  0.72810521751E+01  0.29517043394E+02  0.00000000000E+00 0.  1.
         14    1    4    4    0    0  0.37656719080E+02  0.63791916548E+02  0.80494176416E+02  0.10939263936E+03  0.00000000000E+00 0. -1.
         -5    1    5    5    0  502 -0.97218335859E+02  0.13551931868E+02  0.20206488863E+03  0.22469394496E+03  0.47000000000E+01 0.  1.
         13    1    6    6    0    0 -0.62870421596E+00  0.16402649104E+02  0.23288307263E+02  0.28491883437E+02  0.00000000000E+00 0. -1.
        -14    1    6    6    0    0 -0.19677303001E+02 -0.96124133429E+02  0.17631706570E+03  0.20177897051E+03  0.00000000000E+00 0.  1.
</event>
<event>
12    1  0.8407180E-002  0.1768343E+03  0.7818608E-02  0.1171460E+00
         21   -1    0    0  501  502  0.00000000000E+00  0.00000000000E+00  0.36738481841E+03  0.36738481841E+03  0.00000000000E+00 0. -1.
         21   -1    0    0  502  503 -0.00000000000E+00 -0.00000000000E+00 -0.93397884235E+02  0.93397884235E+02  0.00000000000E+00 0. -1.
         -6    2    1    2    0  503  0.20144101843E+02 -0.38526560328E+02  0.63299433735E+02  0.18571984611E+03  0.16910045014E+03 0.  0.
        -24    2    3    3    0    0  0.27870714162E+02 -0.13911648996E+02  0.10582136361E+03  0.13576187459E+03  0.79137948620E+02 0.  0.
          6    2    1    2  501    0 -0.20144101843E+02  0.38526560328E+02  0.21068750044E+03  0.27506285653E+03  0.17140674290E+03 0.  0.
         24    2    5    5    0    0  0.17515266421E+02  0.56975507311E+02  0.21022370379E+03  0.23286218391E+03  0.80484769164E+02 0.  0.
          5    1    5    5  501    0 -0.37659368264E+02 -0.18448946983E+02  0.46379665117E+00  0.42200672627E+02  0.47000000000E+01 0. -1.
        -13    1    6    6    0    0  0.42159791897E+02  0.31558088666E+02  0.66418267858E+02  0.84762888803E+02  0.00000000000E+00 0.  1.
         14    1    6    6    0    0 -0.24644525476E+02  0.25417418645E+02  0.14380543593E+03  0.14809929510E+03  0.00000000000E+00 0. -1.
         -5    1    3    3    0  503 -0.77266123188E+01 -0.24614911332E+02 -0.42521929874E+02  0.49957971516E+02  0.47000000000E+01 0.  1.
         13    1    4    4    0    0  0.20083374172E+02 -0.32950889189E+02  0.13047646915E+02  0.40735047644E+02  0.00000000000E+00 0. -1.
        -14    1    4    4    0    0  0.77873399899E+01  0.19039240194E+02  0.92773716694E+02  0.95026826951E+02  0.00000000000E+00 0.  1.
</event>
<event>
12    1  0.8407180E-002  0.2272342E+03  0.7818608E-02  0.1128751E+00
         21   -1    0    0  503  502  0.00000000000E+00  0.00000000000E+00  0.70335710302E+03  0.70335710302E+03  0.00000000000E+00 0.  1.
         21   -1    0    0  501  503 -0.00000000000E+00 -0.00000000000E+00 -0.11197058187E+03  0.11197058187E+03  0.00000000000E+00 0. -1.
          6    2    1    2  501    0  0.62029172230E+02 -0.13449964204E+03  0.55284312153E+02  0.23305545447E+03  0.17123293424E+03 0.  0.
         24    2    3    3    0    0  0.72125362190E+01 -0.10816339275E+03  0.90221434886E+02  0.16276211086E+03  0.81241967046E+02 0.  0.
         -6    2    1    2    0  502 -0.62029172230E+02  0.13449964204E+03  0.53610220900E+03  0.58227223042E+03  0.17232991588E+03 0.  0.
        -24    2    5    5    0    0  0.21146138573E+02  0.66852979055E+02  0.16446030245E+03  0.19544668829E+03  0.78966682197E+02 0.  0.
          5    1    3    3  501    0  0.54816636011E+02 -0.26336249295E+02 -0.34937122733E+02  0.70293343606E+02  0.47000000000E+01 0. -1.
        -11    1    4    4    0    0  0.36814120509E+02 -0.18930095930E+02  0.25420819739E+02  0.48578246953E+02  0.00000000000E+00 0.  1.
         12    1    4    4    0    0 -0.29601584290E+02 -0.89233296820E+02  0.64800615147E+02  0.11418386391E+03  0.00000000000E+00 0. -1.
         -5    1    5    5    0  502 -0.83175310802E+02  0.67646662990E+02  0.37164190655E+03  0.38682554213E+03  0.47000000000E+01 0.  1.
         11    1    6    6    0    0  0.62435570006E+01  0.64005589753E+02  0.54072283292E+02  0.84020886356E+02  0.00000000000E+00 0. -1.
        -12    1    6    6    0    0  0.14902581572E+02  0.28473893026E+01  0.11038801916E+03  0.11142580194E+03  0.00000000000E+00 0.  1.
</event>
<event>
12    1  0.8407180E-002  0.2377548E+03  0.7818608E-02  0.1121907E+00
         21   -1    0    0  503  502  0.00000000000E+00  0.00000000000E+00  0.12146401738E+03  0.12146401738E+03  0.00000000000E+00 0.  1.
         21   -1    0    0  501  503 -0.00000000000E+00 -0.00000000000E+00 -0.10625292108E+04  0.10625292108E+04  0.00000000000E+00 0. -1.
          6    2    1    2  501    0  0.37962362900E+02  0.15534517676E+03 -0.91537658485E+03  0.94485462471E+03  0.17106345256E+03 0.  0.
         24    2    3    3    0    0 -0.22632884236E+02  0.54070421177E+02 -0.59947259401E+03  0.60759243958E+03  0.79782979148E+02 0.  0.
         -6    2    1    2    0  502 -0.37962362900E+02 -0.15534517676E+03 -0.25688608553E+02  0.23913860346E+03  0.17593777909E+03 0.  0.
        -24    2    5    5    0    0 -0.93018978988E+02 -0.10584655729E+03 -0.30056131589E+01  0.16156313965E+03  0.78978416295E+02 0.  0.
          5    1    3    3  501    0  0.60595247136E+02  0.10127475559E+03 -0.31590399084E+03  0.33726218513E+03  0.47000000000E+01 0. -1.
        -13    1    4    4    0    0  0.16207430160E+02  0.31388623793E+02 -0.99205174325E+02  0.10530713703E+03  0.00000000000E+00 0.  1.
         14    1    4    4    0    0 -0.38840314396E+02  0.22681797384E+02 -0.50026741969E+03  0.50228530255E+03  0.00000000000E+00 0. -1.
         -5    1    5    5    0  502  0.55056616088E+02 -0.49498619475E+02 -0.22682995394E+02  0.77575463808E+02  0.47000000000E+01 0.  1.
         11    1    6    6    0    0 -0.14587404218E+02  0.89757362426E+01 -0.13936693187E+02  0.22081386277E+02  0.00000000000E+00 0. -1.
        -12    1    6    6    0    0 -0.78431574770E+02 -0.11482229353E+03  0.10931080028E+02  0.13948175337E+03  0.00000000000E+00 0.  1.
</event>
<event>
12    1  0.8407180E-002  0.2061245E+03  0.7818608E-02  0.1144944E+00
         21   -1    0    0  501  502  0.00000000000E+00  0.00000000000E+00  0.20556631796E+03  0.20556631796E+03  0.00000000000E+00 0. -1.
         21   -1    0    0  502  503 -0.00000000000E+00 -0.00000000000E+00 -0.14207090072E+04  0.14207090072E+04  0.00000000000E+00 0. -1.
         -6    2    1    2    0  503 -0.10742886874E+03 -0.25157366250E+02 -0.13593655580E+04  0.13747051245E+04  0.17252711164E+03 0.  0.
        -24    2    3    3    0    0 -0.84943436349E+02 -0.69191627380E+02 -0.12044105149E+04  0.12119852234E+04  0.79376475311E+02 0.  0.
          6    2    1    2  501    0  0.10742886874E+03  0.25157366250E+02  0.14422286874E+03  0.25157020063E+03  0.17410765365E+03 0.  0.
         24    2    5    5    0    0  0.11166846393E+02 -0.29424214049E+02  0.10034350099E+03  0.13243576073E+03  0.80498010534E+02 0.  0.
          5    1    5    5  501    0  0.96262022352E+02  0.54581580299E+02  0.43879367756E+02  0.11913443990E+03  0.47000000000E+01 0. -1.
        -13    1    6    6    0    0 -0.79393962344E+01 -0.37390885268E+02  0.96691455992E+01  0.39428475628E+02  0.00000000000E+00 0.  1.
         14    1    6    6    0    0  0.19106242627E+02  0.79666712192E+01  0.90674355388E+02  0.93007285105E+02  0.00000000000E+00 0. -1.
         -5    1    3    3    0  503 -0.22485432396E+02  0.44034261130E+02 -0.15495504314E+03  0.16271990112E+03  0.47000000000E+01 0.  1.
         13    1    4    4    0    0 -0.65675499361E+02 -0.33897125747E+02 -0.41349015188E+03  0.42004332163E+03  0.00000000000E+00 0. -1.
        -14    1    4    4    0    0 -0.19267936988E+02 -0.35294501633E+02 -0.79092036298E+03  0.79194190179E+03  0.00000000000E+00 0.  1.
</event>
<event>
12    1  0.8407180E-002  0.2206316E+03  0.7818608E-02  0.1133616E+00
         21   -1    0    0  501  502  0.00000000000E+00  0.00000000000E+00  0.71917661834E+02  0.71917661834E+02  0.00000000000E+00 0.  1.
         21   -1    0    0  502  503 -0.00000000000E+00 -0.00000000000E+00 -0.15932543965E+04  0.15932543965E+04  0.00000000000E+00 0.  1.
         -6    2    1    2    0  503 -0.20471394332E+02  0.13624729188E+03 -0.13924547968E+04  0.14096552209E+04  0.17092418824E+03 0.  0.
        -24    2    3    3    0    0 -0.14352242330E+02  0.29982589517E+02 -0.97613946498E+03  0.97992254062E+03  0.79340960298E+02 0.  0.
          6    2    1    2  501    0  0.20471394332E+02 -0.13624729188E+03 -0.12888193787E+03  0.25551683745E+03  0.17232497724E+03 0.  0.
         24    2    5    5    0    0 -0.95305308619E+00 -0.12614470048E+03 -0.28401750459E+02  0.15217552256E+03  0.80233013579E+02 0.  0.
          5    1    5    5  501    0  0.21424447418E+02 -0.10102591400E+02 -0.10048018741E+03  0.10334131489E+03  0.47000000000E+01 0. -1.
        -11    1    6    6    0    0  0.24610916151E+02 -0.96544099626E+02 -0.45451437430E+02  0.10950933079E+03  0.00000000000E+00 0.  1.
         12    1    6    6    0    0 -0.25563969237E+02 -0.29600600855E+02  0.17049686971E+02  0.42666191767E+02  0.00000000000E+00 0. -1.
         -5    1    3    3    0  503 -0.61191520020E+01  0.10626470236E+03 -0.41631533184E+03  0.42973268030E+03  0.47000000000E+01 0.  1.
         11    1    4    4    0    0 -0.47025152660E+02  0.11491298721E+02 -0.56947147225E+03  0.57152530358E+03  0.00000000000E+00 0. -1.
        -12    1    4    4    0    0  0.32672910331E+02  0.18491290796E+02 -0.40666799273E+03  0.40839723703E+03  0.00000000000E+00 0.  1.
</event>
<event>
12    1  0.8407180E-002  0.1982920E+03  0.7818608E-02  0.1154342E+00
         21   -1    0    0  501  502  0.00000000000E+00  0.00000000000E+00  0.20993487241E+02  0.20993487241E+02  0.00000000000E+00 0.  1.
         21   -1    0    0  502  503 -0.00000000000E+00 -0.00000000000E+00 -0.19558786517E+04  0.19558786517E+04  0.00000000000E+00 0.  1.
         -6    2    1    2    0  503 -0.62648370651E+02  0.55086916779E+01 -0.13267842406E+04  0.13415200780E+04  0.18805460561E+03 0.  0.
        -24    2    3    3    0    0 -0.15128910061E+01 -0.72858055232E+02 -0.72063550997E+03  0.72725851526E+03  0.65412726018E+02 0.  0.
          6    2    1    2  501    0  0.62648370651E+02 -0.55086916779E+01 -0.60810092395E+03  0.63535206097E+03  0.17300388333E+03 0.  0.
         24    2    5    5    0    0  0.33561741627E+02 -0.71058193750E+02 -0.40319091926E+03  0.41820471646E+03  0.78464068798E+02 0.  0.
          5    1    5    5  501    0  0.29086629024E+02  0.65549502073E+02 -0.20491000469E+03  0.21714734452E+03  0.47000000000E+01 0. -1.
        -13    1    6    6    0    0  0.50142418476E+02 -0.77878089871E+02 -0.35122325476E+03  0.36323137763E+03  0.00000000000E+00 0.  1.
         14    1    6    6    0    0 -0.16580676849E+02  0.68198961202E+01 -0.51967664502E+02  0.54973338826E+02  0.00000000000E+00 0. -1.
         -5    1    3    3    0  503 -0.61135479645E+02  0.78366746910E+02 -0.60614873058E+03  0.61426156275E+03  0.47000000000E+01 0.  1.
         13    1    4    4    0    0 -0.14778401481E+02 -0.47519595630E+02 -0.63553538975E+03  0.63748077990E+03  0.00000000000E+00 0. -1.
        -14    1    4    4    0    0  0.13265510475E+02 -0.25338459602E+02 -0.85100120221E+02  0.89777735351E+02  0.00000000000E+00 0.  1.
</event>
<event>
12    1  0.8407180E-002  0.1824428E+03  0.7818608E-02  0.1165561E+00
         21   -1    0    0  501  502  0.00000000000E+00  0.00000000000E+00  0.27078327440E+03  0.27078327440E+03  0.00000000000E+00 0.  1.
         21   -1    0    0  502  503 -0.00000000000E+00 -0.00000000000E+00 -0.16036898315E+03  0.16036898315E+03  0.00000000000E+00 0.  1.
         -6    2    1    2    0  503  0.12721245726E+01  0.61613631061E+02  0.15982570298E+03  0.24254821571E+03  0.17171931684E+03 0.  0.
        -24    2    3    3    0    0  0.61144819605E+02  0.28307251104E+02  0.58993007563E+02  0.12055076892E+03  0.80698968500E+02 0.  0.
          6    2    1    2  501    0 -0.12721245726E+01 -0.61613631061E+02 -0.49411411729E+02  0.18860404185E+03  0.17126628144E+03 0.  0.
         24    2    5    5    0    0 -0.63615975642E+02 -0.60765273464E+02 -0.33785295043E+02  0.12415451897E+03  0.80829991979E+02 0.  0.
          5    1    5    5  501    0  0.62343851069E+02 -0.84835759674E+00 -0.15626116686E+02  0.64449522880E+02  0.47000000000E+01 0. -1.
        -11    1    6    6    0    0  0.10759615826E+02 -0.40996000541E+02 -0.92736764725E+01  0.43387123302E+02  0.00000000000E+00 0.  1.
         12    1    6    6    0    0 -0.74375591468E+02 -0.19769272923E+02 -0.24511618570E+02  0.80767395668E+02  0.00000000000E+00 0. -1.
         -5    1    3    3    0  503 -0.59872695033E+02  0.33306379957E+02  0.10083269542E+03  0.12199744678E+03  0.47000000000E+01 0.  1.
         13    1    4    4    0    0 -0.13815105833E+02 -0.52936593017E+00 -0.79912084602E+01  0.15968618917E+02  0.00000000000E+00 0. -1.
        -14    1    4    4    0    0  0.74959925438E+02  0.28836617035E+02  0.66984216023E+02  0.10458215001E+03  0.00000000000E+00 0.  1.
</event>
<event>
12    1  0.8407180E-002  0.2083090E+03  0.7818608E-02  0.1142959E+00
         21   -1    0    0  501  502  0.00000000000E+00  0.00000000000E+00  0.69054720047E+03  0.69054720047E+03  0.00000000000E+00 0. -1.
         21   -1    0    0  502  503 -0.00000000000E+00 -0.00000000000E+00 -0.67053234298E+02  0.67053234298E+02  0.00000000000E+00 0.  1.
         -6    2    1    2    0  503  0.24527436647E+02 -0.11372097867E+03  0.21614800423E+03  0.30018759279E+03  0.17279633965E+03 0.  0.
        -24    2    3    3    0    0  0.57092078726E+02 -0.23274209140E+02  0.61153994219E+02  0.11774223886E+03  0.79512448950E+02 0.  0.
          6    2    1    2  501    0 -0.24527436647E+02  0.11372097867E+03  0.40734596194E+03  0.45741284198E+03  0.17251585189E+03 0.  0.
         24    2    5    5    0    0  0.16768347150E+02  0.13653140681E+03  0.27429628750E+03  0.31616850312E+03  0.76171297179E+02 0.  0.
          5    1    5    5  501    0 -0.41295783797E+02 -0.22810428135E+02  0.13304967444E+03  0.14124433886E+03  0.47000000000E+01 0. -1.
        -11    1    6    6    0    0 -0.15915131445E+02  0.89705302431E+02  0.11355528474E+03  0.14558549167E+03  0.00000000000E+00 0.  1.
         12    1    6    6    0    0  0.32683478595E+02  0.46826104378E+02  0.16074100276E+03  0.17058301144E+03  0.00000000000E+00 0. -1.
         -5    1    3    3    0  503 -0.32564642079E+02 -0.90446769534E+02  0.15499401001E+03  0.18244535394E+03  0.47000000000E+01 0.  1.
         11    1    4    4    0    0  0.73968278426E+02 -0.23046956620E+02  0.31526046109E+02  0.83644246700E+02  0.00000000000E+00 0. -1.
        -12    1    4    4    0    0 -0.16876199700E+02 -0.22725252071E+00  0.29627948110E+02  0.34097992158E+02  0.00000000000E+00 0.  1.
</event>
<event>
12    1  0.8407180E-002  0.1779273E+03  0.7818608E-02  0.1169948E+00
         21   -1    0    0  501  502  0.00000000000E+00  0.00000000000E+00  0.12589065987E+03  0.12589065987E+03  0.00000000000E+00 0. -1.
         21   -1    0    0  502  503 -0.00000000000E+00 -0.00000000000E+00 -0.25076333929E+03  0.25076333929E+03  0.00000000000E+00 0. -1.
         -6    2    1    2    0  503 -0.43130723196E+02 -0.14370745256E+02 -0.63016695914E+02  0.18828128845E+03  0.17149916039E+03 0.  0.
        -24    2    3    3    0    0 -0.33524610738E+01  0.27951067608E+02  0.10125777774E+02  0.94764672607E+02  0.89918355319E+02 0.  0.
          6    2    1    2  501    0  0.43130723196E+02  0.14370745256E+02 -0.61855983510E+02  0.18837271071E+03  0.17202132962E+03 0.  0.
         24    2    5    5    0    0 -0.21560695156E+02  0.43394598558E+02  0.13026250386E+01  0.93301876581E+02  0.79721945422E+02 0.  0.
          5    1    5    5  501    0  0.64691418353E+02 -0.29023853302E+02 -0.63158608548E+02  0.95070834133E+02  0.47000000000E+01 0. -1.
        -11    1    6    6    0    0 -0.13648152462E+02  0.50666575022E+02 -0.29835337031E+02  0.60361587337E+02  0.00000000000E+00 0.  1.
         12    1    6    6    0    0 -0.79125426943E+01 -0.72719764639E+01  0.31137962070E+02  0.32940289243E+02  0.00000000000E+00 0. -1.
         -5    1    3    3    0  503 -0.39778262123E+02 -0.42321812864E+02 -0.73142473688E+02  0.93516615843E+02  0.47000000000E+01 0.  1.
         13    1    4    4    0    0 -0.33546921999E+02  0.19284766222E+02 -0.26207199011E+02  0.46734521115E+02  0.00000000000E+00 0. -1.
        -14    1    4    4    0    0  0.30194460925E+02  0.86663013860E+01  0.36332976785E+02  0.48030151492E+02  0.00000000000E+00 0.  1.
</event>
<event>
12    1  0.8407180E-002  0.1855550E+03  0.7818608E-02  0.1162560E+00
         21   -1    0    0  503  502  0.00000000000E+00  0.00000000000E+00  0.21094675615E+03  0.21094675615E+03  0.00000000000E+00 0. -1.
         21   -1    0    0  501  503 -0.00000000000E+00 -0.00000000000E+00 -0.22537340175E+03  0.22537340175E+03  0.00000000000E+00 0. -1.
          6    2    1    2  501    0  0.70166044170E+02  0.11629240237E+02 -0.12187794685E+03  0.22200199853E+03  0.17138302262E+03 0.  0.
         24    2    3    3    0    0  0.89629775783E+02 -0.33324890391E+02 -0.11926555817E+03  0.17272091409E+03  0.80400222474E+02 0.  0.
         -6    2    1    2    0  502 -0.70166044170E+02 -0.11629240237E+02  0.10745130124E+03  0.21431815937E+03  0.17125413371E+03 0.  0.
        -24    2    5    5    0    0 -0.93977863019E+02  0.29706250837E+02  0.10873633786E+03  0.16636644554E+03  0.78357532853E+02 0.  0.
          5    1    3    3  501    0 -0.19463731613E+02  0.44954130627E+02 -0.26123886801E+01  0.49281084438E+02  0.47000000000E+01 0. -1.
        -13    1    4    4    0    0  0.65766347241E+02 -0.17337304322E+02 -0.22277370308E+02  0.71568678753E+02  0.00000000000E+00 0.  1.
         14    1    4    4    0    0  0.23863428541E+02 -0.15987586068E+02 -0.96988187861E+02  0.10115223534E+03  0.00000000000E+00 0. -1.
         -5    1    5    5    0  502  0.23811818849E+02 -0.41335491074E+02 -0.12850366191E+01  0.47951713821E+02  0.47000000000E+01 0.  1.
         11    1    6    6    0    0 -0.35490997901E+02  0.20291597130E+02 -0.18374976292E+01  0.40923541436E+02  0.00000000000E+00 0. -1.
        -12    1    6    6    0    0 -0.58486865118E+02  0.94146537069E+01  0.11057383549E+03  0.12544290411E+03  0.00000000000E+00 0.  1.
</event>
<event>
12    1  0.8407180E-002  0.2569647E+03  0.7818608E-02  0.1109048E+00
         21   -1    0    0  501  502  0.00000000000E+00  0.00000000000E+00  0.82795914213E+02  0.82795914213E+02  0.00000000000E+00 0.  1.
         21   -1    0    0  502  503 -0.00000000000E+00 -0.00000000000E+00 -0.83219599381E+03  0.83219599381E+03  0.00000000000E+00 0.  1.
         -6    2    1    2    0  503 -0.56346929354E+02  0.18204141946E+03 -0.47021907051E+03  0.53585148469E+03  0.17238556936E+03 0.  0.
        -24    2    3    3    0    0  0.19144669056E+02  0.59160487711E+02 -0.27870236996E+03  0.29606107327E+03  0.78170751718E+02 0.  0.
          6    2    1    2  501    0  0.56346929354E+02 -0.18204141946E+03 -0.27918100908E+03  0.37914042333E+03  0.17173051542E+03 0.  0.
         24    2    5    5    0    0  0.34049129378E+02 -0.19448267845E+03 -0.28173850798E+03  0.35305196593E+03  0.79285864678E+02 0.  0.
          5    1    5    5  501    0  0.22297799976E+02  0.12441258990E+02  0.25574988994E+01  0.26088457403E+02  0.47000000000E+01 0. -1.
        -11    1    6    6    0    0  0.59900146455E+02 -0.12799499487E+03 -0.19256413667E+03  0.23885496224E+03  0.00000000000E+00 0.  1.
         12    1    6    6    0    0 -0.25851017077E+02 -0.66487683577E+02 -0.89174371315E+02  0.11419700369E+03  0.00000000000E+00 0. -1.
         -5    1    3    3    0  503 -0.75491598411E+02  0.12288093175E+03 -0.19151670055E+03  0.23979041141E+03  0.47000000000E+01 0.  1.
         11    1    4    4    0    0  0.48308819484E+02  0.23250742003E+02 -0.14731321278E+03  0.15676581803E+03  0.00000000000E+00 0. -1.
        -12    1    4    4    0    0 -0.29164150428E+02  0.35909745708E+02 -0.13138915719E+03  0.13929525524E+03  0.00000000000E+00 0.  1.
</event>
<event>
12    1  0.8407180E-002  0.1983807E+03  0.7818608E-02  0.1151610E+00
         21   -1    0    0  501  502  0.00000000000E+00  0.00000000000E+00  0.10852595478E+04  0.10852595478E+04  0.00000000000E+00 0. -1.
         21   -1    0    0  502  503 -0.00000000000E+00 -0.00000000000E+00 -0.37786457267E+02  0.37786457267E+02  0.00000000000E+00 0. -1.
         -6    2    1    2    0  503 -0.45778851017E+02  0.87837941061E+02  0.39923620568E+03  0.44580764835E+03  0.17188282144E+03 0.  0.
        -24    2    3    3    0    0  0.76328408916E+01  0.10231746422E+03  0.34264656216E+03  0.36651740192E+03  0.80007597212E+02 0.  0.
          6    2    1    2  501    0  0.45778851017E+02 -0.87837941061E+02  0.64823688487E+03  0.67723835674E+03  0.16920261772E+03 0.  0.
         24    2    5    5    0    0  0.79751136712E+02 -0.26702399499E+02  0.30980780420E+03  0.33162585222E+03  0.83195963668E+02 0.  0.
          5    1    5    5  501    0 -0.33972285696E+02 -0.61135541562E+02  0.33842908068E+03  0.34561250453E+03  0.47000000000E+01 0. -1.
        -13    1    6    6    0    0  0.70707525236E+02  0.97806784756E+01  0.13380471933E+03  0.15165394394E+03  0.00000000000E+00 0.  1.
         14    1    6    6    0    0  0.90436114760E+01 -0.36483077975E+02  0.17600308487E+03  0.17997190828E+03  0.00000000000E+00 0. -1.
         -5    1    3    3    0  503 -0.53411691908E+02 -0.14479523159E+02  0.56589643528E+02  0.79290246425E+02  0.47000000000E+01 0.  1.
         13    1    4    4    0    0  0.20339986617E+02 -0.22251163406E+01  0.27752798517E+02  0.34480197561E+02  0.00000000000E+00 0. -1.
        -14    1    4    4    0    0 -0.12707145726E+02  0.10454258056E+03  0.31489376364E+03  0.33203720436E+03  0.00000000000E+00 0.  1.
</event>
<event>
12    1  0.8407180E-002  0.2567547E+03  0.7818608E-02  0.1109189E+00
         21   -1    0    0  503  502  0.00000000000E+00  0.00000000000E+00  0.79618457614E+02  0.79618457614E+02  0.00000000000E+00 0.  1.
         21   -1    0    0  501  503 -0.00000000000E+00 -0.00000000000E+00 -0.10884593520E+04  0.10884593520E+04  0.00000000000E+00 0.  1.
          6    2    1    2  501    0  0.78222611674E+02  0.17322250869E+03 -0.79144089909E+03  0.83204667391E+03  0.17262142485E+03 0.  0.
         24    2    3    3    0    0  0.89622829629E+02  0.60142616849E+02 -0.31472304214E+03  0.34194563122E+03  0.78910300374E+02 0.  0.
         -6    2    1    2    0  502 -0.78222611674E+02 -0.17322250869E+03 -0.21739999528E+03  0.33603113569E+03  0.17184106526E+03 0.  0.
        -24    2    5    5    0    0  0.24170275072E+02 -0.74502130545E+02 -0.11303242123E+03  0.15955253407E+03  0.80906818162E+02 0.  0.
          5    1    3    3  501    0 -0.11400217955E+02  0.11307989184E+03 -0.47671785695E+03  0.49010104269E+03  0.47000000000E+01 0. -1.
        -11    1    4    4    0    0  0.63171506958E+02  0.40624058802E+02 -0.10184246483E+03  0.12654185508E+03  0.00000000000E+00 0.  1.
         12    1    4    4    0    0  0.26451322671E+02  0.19518558048E+02 -0.21288057731E+03  0.21540377614E+03  0.00000000000E+00 0. -1.
         -5    1    5    5    0  502 -0.10239288675E+03 -0.98720378147E+02 -0.10436757405E+03  0.17647860162E+03  0.47000000000E+01 0.  1.
         11    1    6    6    0    0  0.65440975700E+01 -0.33787761605E+01  0.12320616910E+02  0.14354056653E+02  0.00000000000E+00 0. -1.
        -12    1    6    6    0    0  0.17626177502E+02 -0.71123354385E+02 -0.12535303814E+03  0.14519847742E+03  0.00000000000E+00 0.  1.
</event>
<event>
12    1  0.8407180E-002  0.1927900E+03  0.7818608E-02  0.1156115E+00
         21   -1    0    0  501  502  0.00000000000E+00  0.00000000000E+00  0.19317449740E+03  0.19317449740E+03  0.00000000000E+00 0.  1.
         21   -1    0    0  502  503 -0.00000000000E+00 -0.00000000000E+00 -0.19174995569E+03  0.19174995569E+03  0.00000000000E+00 0.  1.
         -6    2    1    2    0  503  0.25883933808E+02 -0.82575515014E+02  0.14124702604E+01  0.19279516483E+03  0.17227677383E+03 0.  0.
        -24    2    3    3    0    0 -0.23827003364E+02 -0.89681799500E+01  0.46600700461E+02  0.93029022283E+02  0.76384680156E+02 0.  0.
          6    2    1    2  501    0 -0.25883933808E+02  0.82575515014E+02  0.12071455890E-01  0.19212928826E+03  0.17153707924E+03 0.  0.
         24    2    5    5    0    0 -0.32309808633E+02  0.49804499064E+02 -0.65123797497E+02  0.11878078604E+03  0.79645177329E+02 0.  0.
          5    1    5    5  501    0  0.64258748248E+01  0.32771015950E+02  0.65135868953E+02  0.73348502220E+02  0.47000000000E+01 0. -1.
        -13    1    6    6    0    0 -0.33282718291E+02  0.53683827777E+02 -0.10524038580E+02  0.64034741271E+02  0.00000000000E+00 0.  1.
         14    1    6    6    0    0  0.97290965795E+00 -0.38793287132E+01 -0.54599758917E+02  0.54746044773E+02  0.00000000000E+00 0. -1.
         -5    1    3    3    0  503  0.49710937172E+02 -0.73607335064E+02 -0.45188230201E+02  0.99766142545E+02  0.47000000000E+01 0.  1.
         11    1    4    4    0    0 -0.20965812875E+01  0.33061305890E+02  0.17246915090E+02  0.37348382567E+02  0.00000000000E+00 0. -1.
        -12    1    4    4    0    0 -0.21730422076E+02 -0.42029485840E+02  0.29353785371E+02  0.55680639716E+02  0.00000000000E+00 0.  1.
</event>
<event>
12    1  0.8407180E-002  0.2416223E+03  0.7818608E-02  0.1118834E+00
         21   -1    0    0  501  502  0.00000000000E+00  0.00000000000E+00  0.84943903113E+02  0.84943903113E+02  0.00000000000E+00 0. -1.
         21   -1    0    0  502  503 -0.00000000000E+00 -0.00000000000E+00 -0.79231507380E+03  0.79231507380E+03  0.00000000000E+00 0. -1.
         -6    2    1    2    0  503  0.37415099730E+02  0.16243032621E+03 -0.19291509769E+03  0.30918852929E+03  0.17492230037E+03 0.  0.
        -24    2    3    3    0    0  0.74516368708E+02  0.11506799515E+03 -0.73234334620E+02  0.17515394565E+03  0.80760783778E+02 0.  0.
          6    2    1    2  501    0 -0.37415099730E+02 -0.16243032621E+03 -0.51445607300E+03  0.56807044762E+03  0.17394102982E+03 0.  0.
         24    2    5    5    0    0 -0.42255452972E+02 -0.81490060494E+02 -0.14633212528E+03  0.19109287996E+03  0.81714408876E+02 0.  0.
          5    1    5    5  501    0  0.48403532424E+01 -0.80940265719E+02 -0.36812394772E+03  0.37697756766E+03  0.47000000000E+01 0. -1.
        -11    1    6    6    0    0  0.38242877199E+00 -0.21317310766E+02  0.57418119730E+01  0.22080362198E+02  0.00000000000E+00 0.  1.
         12    1    6    6    0    0 -0.42637881744E+02 -0.60172749729E+02 -0.15207393725E+03  0.16901251776E+03  0.00000000000E+00 0. -1.
         -5    1    3    3    0  503 -0.37101268978E+02  0.47362331065E+02 -0.11968076307E+03  0.13403458364E+03  0.47000000000E+01 0.  1.
         13    1    4    4    0    0 -0.60522926970E+01  0.47113440684E+02 -0.12477800381E+01  0.47516981123E+02  0.00000000000E+00 0. -1.
        -14    1    4    4    0    0  0.80568661405E+02  0.67954554463E+02 -0.71986554582E+02  0.12763696453E+03  0.00000000000E+00 0.  1.
</event>
<event>
12    1  0.8407180E-002  0.1849834E+03  0.7818608E-02  0.1163350E+00
         21   -1    0    0  503  502  0.00000000000E+00  0.00000000000E+00  0.29605439442E+03  0.29605439442E+03  0.00000000000E+00 0. -1.
         21   -1    0    0  501  503 -0.00000000000E+00 -0.00000000000E+00 -0.35429213030E+03  0.35429213030E+03  0.00000000000E+00 0. -1.
          6    2    1    2  501    0 -0.29132187579E+01  0.66543758447E+02 -0.29648432724E+03  0.34945933351E+03  0.17257552215E+03 0.  0.
         24    2    3    3    0    0 -0.13691304516E+02  0.26972457975E+02 -0.29616372426E+03  0.30817679798E+03  0.79655645989E+02 0.  0.
         -6    2    1    2    0  502  0.29132187579E+01 -0.66543758447E+02  0.23824659136E+03  0.30088719122E+03  0.17127493953E+03 0.  0.
        -24    2    5    5    0    0 -0.63857093485E+02 -0.36057537073E+02  0.16171518752E+03  0.19474186600E+03  0.79966981510E+02 0.  0.
          5    1    3    3  501    0  0.10778085758E+02  0.39571300472E+02 -0.32060298647E+00  0.41282535532E+02  0.47000000000E+01 0. -1.
        -11    1    4    4    0    0  0.19118318270E+02  0.15840630847E+02 -0.26565894759E+02  0.36361826734E+02  0.00000000000E+00 0.  1.
         12    1    4    4    0    0 -0.32809622786E+02  0.11131827128E+02 -0.26959782950E+03  0.27181497124E+03  0.00000000000E+00 0. -1.
         -5    1    5    5    0  502  0.66770312243E+02 -0.30486221374E+02  0.76531403845E+02  0.10614532522E+03  0.47000000000E+01 0.  1.
         13    1    6    6    0    0 -0.70574437667E+02 -0.40393667385E+02  0.16659046659E+03  0.18537740740E+03  0.00000000000E+00 0. -1.
        -14    1    6    6    0    0  0.67173441826E+01  0.43361303121E+01 -0.48752790669E+01  0.93644586032E+01  0.00000000000E+00 0.  1.
</event>
<event>
12    1  0.8407180E-002  0.1873326E+03  0.7818608E-02  0.1161046E+00
         21   -1    0    0  501  502  0.00000000000E+00  0.00000000000E+00  0.19909037567E+03  0.19909037567E+03  0.00000000000E+00 0. -1.
         21   -1    0    0  502  503 -0.00000000000E+00 -0.00000000000E+00 -0.25209936817E+03  0.25209936817E+03  0.00000000000E+00 0. -1.
         -6    2    1    2    0  503  0.10811668859E+01 -0.72604299136E+02 -0.15078599068E+03  0.24047853722E+03  0.17268745960E+03 0.  0.
        -24    2    3    3    0    0  0.37236780856E+02 -0.10129328219E+03 -0.80805648795E+02  0.15651649568E+03  0.79504425521E+02 0.  0.
          6    2    1    2  501    0 -0.10811668859E+01  0.72604299136E+02  0.97776998175E+02  0.21071120662E+03  0.17194859129E+03 0.  0.
         24    2    5    5    0    0  0.26102837507E+02  0.21637151744E+02 -0.10695322216E+02  0.87727652845E+02  0.80201163924E+02 0.  0.
          5    1    5    5  501    0 -0.27184004393E+02  0.50967147393E+02  0.10847232039E+03  0.12298355378E+03  0.47000000000E+01 0. -1.
        -11    1    6    6    0    0  0.51750105891E+02  0.26320443539E+02  0.32711508949E+01  0.58151007180E+02  0.00000000000E+00 0.  1.
         12    1    6    6    0    0 -0.25647268384E+02 -0.46832917958E+01 -0.13966473111E+02  0.29576645665E+02  0.00000000000E+00 0. -1.
         -5    1    3    3    0  503 -0.36155613970E+02  0.28688983051E+02 -0.69980341884E+02  0.83962041544E+02  0.47000000000E+01 0.  1.
         13    1    4    4    0    0 -0.36478001702E+01 -0.86439611173E+02 -0.71013672491E+02  0.11192879212E+03  0.00000000000E+00 0. -1.
        -14    1    4    4    0    0  0.40884581026E+02 -0.14853671015E+02 -0.97919763040E+01  0.44587703554E+02  0.00000000000E+00 0.  1.
</event>
<event>
12    1  0.8407180E-002  0.2245851E+03  0.7818608E-02  0.1130907E+00
         21   -1    0    0  503  502  0.00000000000E+00  0.00000000000E+00  0.15892299113E+04  0.15892299113E+04  0.00000000000E+00 0. -1.
         21   -1    0    0  501  503 -0.00000000000E+00 -0.00000000000E+00 -0.14941515460E+03  0.14941515460E+03  0.00000000000E+00 0. -1.
          6    2    1    2  501    0  0.55460753992E+02  0.13214053385E+03 -0.51848173572E+02  0.23049231159E+03  0.17292037671E+03 0.  0.
         24    2    3    3    0    0  0.26091498900E+02  0.57268671897E+02 -0.93874493190E+02  0.13962619911E+03  0.81991389246E+02 0.  0.
         -6    2    1    2    0  502 -0.55460753992E+02 -0.13214053385E+03  0.14916629303E+04  0.15081527543E+04  0.17008649819E+03 0.  0.
        -24    2    5    5    0    0  0.19078261790E+02 -0.10325147135E+03  0.67377365586E+03  0.68635253649E+03  0.78000119303E+02 0.  0.
          5    1    3    3  501    0  0.29369255092E+02  0.74871861952E+02  0.42026319618E+02  0.90866112481E+02  0.47000000000E+01 0. -1.
        -13    1    4    4    0    0  0.52090512105E+01  0.45640454739E+02 -0.34164150854E+01  0.46063621387E+02  0.00000000000E+00 0.  1.
         14    1    4    4    0    0  0.20882447689E+02  0.11628217159E+02 -0.90458078104E+02  0.93562577723E+02  0.00000000000E+00 0. -1.
         -5    1    5    5    0  502 -0.74539015782E+02 -0.28889062503E+02  0.81788927440E+03  0.82180021780E+03  0.47000000000E+01 0.  1.
         13    1    6    6    0    0 -0.80310921859E+01 -0.89983092413E+02  0.36125034642E+03  0.37237517123E+03  0.00000000000E+00 0. -1.
        -14    1    6    6    0    0  0.27109353976E+02 -0.13268378934E+02  0.31252330944E+03  0.31397736526E+03  0.00000000000E+00 0.  1.
</event>
<event>
12    1  0.8407180E-002  0.3382082E+03  0.7818608E-02  0.1068028E+00
         21   -1    0    0  501  502  0.00000000000E+00  0.00000000000E+00  0.98955487066E+02  0.98955487066E+02  0.00000000000E+00 0.  1.
         21   -1    0    0  502  503 -0.00000000000E+00 -0.00000000000E+00 -0.27386594035E+04  0.27386594035E+04  0.00000000000E+00 0.  1.
         -6    2    1    2    0  503 -0.12853079445E+03  0.25857800126E+03 -0.24069755207E+04  0.24306204846E+04  0.17607394784E+03 0.  0.
        -24    2    3    3    0    0 -0.79457067657E+00  0.46504805204E+02 -0.75060462828E+03  0.75584342285E+03  0.75687803639E+02 0.  0.
          6    2    1    2  501    0  0.12853079445E+03 -0.25857800126E+03 -0.23272839580E+03  0.40699440602E+03  0.16762813745E+03 0.  0.
         24    2    5    5    0    0  0.28461807965E+02 -0.43624469317E+02 -0.55001747080E+02  0.11063706325E+03  0.80636212378E+02 0.  0.
          5    1    5    5  501    0  0.10006898649E+03 -0.21495353194E+03 -0.17772664872E+03  0.29635734277E+03  0.47000000000E+01 0. -1.
        -13    1    6    6    0    0  0.47971622368E+02 -0.44616846492E+02 -0.16648281959E+02  0.67595153937E+02  0.00000000000E+00 0.  1.
         14    1    6    6    0    0 -0.19509814403E+02  0.99237717501E+00 -0.38353465121E+02  0.43041909312E+02  0.00000000000E+00 0. -1.
         -5    1    3    3    0  503 -0.12773622377E+03  0.21207319605E+03 -0.16563708924E+04  0.16747770617E+04  0.47000000000E+01 0.  1.
         11    1    4    4    0    0  0.23264890311E+02  0.79435165180E+01 -0.53180085598E+03  0.53236876787E+03  0.00000000000E+00 0. -1.
        -12    1    4    4    0    0 -0.24059460988E+02  0.38561288686E+02 -0.21880377230E+03  0.22347465498E+03  0.00000000000E+00 0.  1.
</event>
<event>
12    1  0.8407180E-002  0.1753127E+03  0.7818608E-02  0.1173178E+00
         21   -1    0    0  501  502  0.00000000000E+00  0.00000000000E+00  0.42199975415E+02  0.42199975415E+02  0.00000000000E+00 0.  1.
         21   -1    0    0  502  503 -0.00000000000E+00 -0.00000000000E+00 -0.21591771320E+04  0.21591771320E+04  0.00000000000E+00 0.  1.
         -6    2    1    2    0  503  0.15429959267E+02  0.67017281636E+01 -0.19553534021E+04  0.19629305410E+04  0.17148289918E+03 0.  0.
        -24    2    3    3    0    0 -0.51961439539E+02 -0.53546893521E+01 -0.14060414713E+04  0.14093488892E+04  0.81135741756E+02 0.  0.
          6    2    1    2  501    0 -0.15429959267E+02 -0.67017281636E+01 -0.16162375449E+03  0.23844656647E+03  0.17450366827E+03 0.  0.
         24    2    5    5    0    0  0.41678178082E+02 -0.40231923917E+02 -0.53104919801E+02  0.11123005472E+03  0.78716671266E+02 0.  0.
          5    1    5    5  501    0 -0.57108137349E+02  0.33530195753E+02 -0.10851883469E+03  0.12721651175E+03  0.47000000000E+01 0. -1.
        -13    1    6    6    0    0  0.37450506808E+02  0.15945106883E+02 -0.28870016317E+02  0.49902552398E+02  0.00000000000E+00 0.  1.
         14    1    6    6    0    0  0.42276712739E+01 -0.56177030800E+02 -0.24234903484E+02  0.61327502320E+02  0.00000000000E+00 0. -1.
         -5    1    3    3    0  503  0.67391398807E+02  0.12056417516E+02 -0.54931193079E+03  0.55358165174E+03  0.47000000000E+01 0.  1.
         11    1    4    4    0    0 -0.12777191517E+02 -0.64270126615E+01 -0.35862955132E+02  0.38609774224E+02  0.00000000000E+00 0. -1.
        -12    1    4    4    0    0 -0.39184248022E+02  0.10723233094E+01 -0.13701785162E+04  0.13707391150E+04  0.00000000000E+00 0.  1.
</event>
<event>
12    1  0.8407180E-002  0.2512199E+03  0.7818608E-02  0.1112564E+00
         21   -1    0    0  501  502  0.00000000000E+00  0.00000000000E+00  0.52170915741E+02  0.52170915741E+02  0.00000000000E+00 0.  1.
         21   -1    0    0  502  503 -0.00000000000E+00 -0.00000000000E+00 -0.20002973339E+04  0.20002973339E+04  0.00000000000E+00 0. -1.
         -6    2    1    2    0  503  0.10202333690E+03  0.15149187964E+03 -0.16193763654E+04  0.16387194737E+04  0.17222993354E+03 0.  0.
        -24    2    3    3    0    0  0.11326970846E+03  0.53440285152E+02 -0.81379258353E+03  0.82709892470E+03  0.78411550774E+02 0.  0.
          6    2    1    2  501    0 -0.10202333690E+03 -0.15149187964E+03 -0.32875005280E+03  0.41374877592E+03  0.17249029390E+03 0.  0.
         24    2    5    5    0    0 -0.71014734264E+02 -0.18005402859E+03 -0.26479887812E+03  0.33700783161E+03  0.77416322699E+02 0.  0.
          5    1    5    5  501    0 -0.31008602632E+02  0.28562148951E+02 -0.63951174689E+02  0.76740944312E+02  0.47000000000E+01 0. -1.
        -13    1    6    6    0    0 -0.99821608230E+01 -0.69613828384E+02 -0.44776706871E+02  0.83370750957E+02  0.00000000000E+00 0.  1.
         14    1    6    6    0    0 -0.61032573441E+02 -0.11044020021E+03 -0.22002217124E+03  0.25363708065E+03  0.00000000000E+00 0. -1.
         -5    1    3    3    0  503 -0.11246371564E+02  0.98051594490E+02 -0.80558378182E+03  0.81162054901E+03  0.47000000000E+01 0.  1.
         13    1    4    4    0    0  0.76625083968E+02 -0.16770989934E+01 -0.54043162865E+03  0.54583931830E+03  0.00000000000E+00 0. -1.
        -14    1    4    4    0    0  0.36644624491E+02  0.55117384145E+02 -0.27336095489E+03  0.28125960640E+03  0.00000000000E+00 0.  1.
</event>
<event>
12    1  0.8407180E-002  0.1809080E+03  0.7818608E-02  0.1167114E+00
         21   -1    0    0  503  502  0.00000000000E+00  0.00000000000E+00  0.34041912418E+03  0.34041912418E+03  0.00000000000E+00 0. -1.
         21   -1    0    0  501  503 -0.00000000000E+00 -0.00000000000E+00 -0.14501114245E+03  0.14501114245E+03  0.00000000000E+00 0. -1.
          6    2    1    2  501    0 -0.51759245257E+02  0.11733029393E+02  0.23933853019E+03  0.30001772109E+03  0.17294801961E+03 0.  0.
         24    2    3    3    0    0 -0.30530231539E+02  0.56639847682E+02  0.70581223623E+02  0.12403927959E+03  0.79144591539E+02 0.  0.
         -6    2    1    2    0  502  0.51759245257E+02 -0.11733029393E+02 -0.43930548468E+02  0.18541254554E+03  0.17213725775E+03 0.  0.
        -24    2    5    5    0    0  0.88473755813E+02 -0.40752256624E+02 -0.51920854274E+02  0.13770504276E+03  0.82331961021E+02 0.  0.
          5    1    3    3  501    0 -0.21229013718E+02 -0.44906818289E+02  0.16875730657E+03  0.17597844150E+03  0.47000000000E+01 0. -1.
        -13    1    4    4    0    0 -0.43741638467E+00  0.41487960061E+02 -0.45111936019E+01  0.41734794007E+02  0.00000000000E+00 0.  1.
         14    1    4    4    0    0 -0.30092815155E+02  0.15151887621E+02  0.75092417225E+02  0.82304485583E+02  0.00000000000E+00 0. -1.
         -5    1    5    5    0  502 -0.36714510556E+02  0.29019227231E+02  0.79903058065E+01  0.47707502778E+02  0.47000000000E+01 0.  1.
         11    1    6    6    0    0  0.69759566832E+02 -0.64347137797E+02 -0.27152954799E+02  0.98712888022E+02  0.00000000000E+00 0. -1.
        -12    1    6    6    0    0  0.18714188981E+02  0.23594881173E+02 -0.24767899475E+02  0.38992154739E+02  0.00000000000E+00 0.  1.
</event>
<event>
12    1  0.8407180E-002  0.1934420E+03  0.7818608E-02  0.1155574E+00
         21   -1    0    0  503  502  0.00000000000E+00  0.00000000000E+00  0.19874131012E+04  0.19874131012E+04  0.00000000000E+00 0.  1.
         21   -1    0    0  501  503 -0.00000000000E+00 -0.00000000000E+00 -0.33148193114E+02  0.33148193114E+02  0.00000000000E+00 0. -1.
          6    2    1    2  501    0  0.81451264170E+02  0.30871448422E+02  0.16441610857E+04  0.16555015752E+04  0.17272068554E+03 0.  0.
         24    2    3    3    0    0  0.79196118833E+02  0.10575772727E+02  0.57843331008E+03  0.58956781473E+03  0.81371012913E+02 0.  0.
         -6    2    1    2    0  502 -0.81451264170E+02 -0.30871448422E+02  0.31010382243E+03  0.36505971909E+03  0.17180472361E+03 0.  0.
        -24    2    5    5    0    0 -0.10541321556E+03 -0.43928071347E+02  0.15987075855E+03  0.21229613050E+03  0.80432369840E+02 0.  0.
          5    1    3    3  501    0  0.22551453373E+01  0.20295675694E+02  0.10657277756E+04  0.10659337605E+04  0.47000000000E+01 0. -1.
        -13    1    4    4    0    0  0.27138599436E+02 -0.22113982464E+01  0.44410123448E+03  0.44493516419E+03  0.00000000000E+00 0.  1.
         14    1    4    4    0    0  0.52057519397E+02  0.12787170974E+02  0.13433207560E+03  0.14463265054E+03  0.00000000000E+00 0. -1.
         -5    1    5    5    0  502  0.23961951393E+02  0.13056622926E+02  0.15023306388E+03  0.15276358859E+03  0.47000000000E+01 0.  1.
         13    1    6    6    0    0 -0.75233285807E+02 -0.57328453997E+02  0.73370416952E+02  0.11970721371E+03  0.00000000000E+00 0. -1.
        -14    1    6    6    0    0 -0.30179929756E+02  0.13400382650E+02  0.86500341598E+02  0.92588916788E+02  0.00000000000E+00 0.  1.
</event>
<event>
12    1  0.8407180E-002  0.2138415E+03  0.7818608E-02  0.1138561E+00
         21   -1    0    0  503  502  0.00000000000E+00  0.00000000000E+00  0.52542762032E+02  0.52542762032E+02  0.00000000000E+00 0.  1.
         21   -1    0    0  501  503 -0.00000000000E+00 -0.00000000000E+00 -0.10237840572E+04  0.10237840572E+04  0.00000000000E+00 0. -1.
          6    2    1    2  501    0 -0.78779256021E+02  0.98449717781E+02 -0.69400311842E+03  0.72619940561E+03  0.17270416967E+03 0.  0.
         24    2    3    3    0    0 -0.20891798378E+02  0.99452588590E+02 -0.62303161763E+03  0.63448786093E+03  0.63868337161E+02 0.  0.
         -6    2    1    2    0  502  0.78779256021E+02 -0.98449717781E+02 -0.27723817675E+03  0.35012741362E+03  0.17271271237E+03 0.  0.
        -24    2    5    5    0    0  0.86559750452E+00 -0.92173537682E+02 -0.12136713573E+03  0.17569175199E+03  0.87412240419E+02 0.  0.
          5    1    3    3  501    0 -0.57887457643E+02 -0.10028708097E+01 -0.70971500793E+02  0.91711544677E+02  0.47000000000E+01 0. -1.
        -11    1    4    4    0    0 -0.21583248435E+02  0.50318937704E+02 -0.16542622023E+03  0.17425173298E+03  0.00000000000E+00 0.  1.
         12    1    4    4    0    0  0.69145005689E+00  0.49133650887E+02 -0.45760539740E+03  0.46023612796E+03  0.00000000000E+00 0. -1.
         -5    1    5    5    0  502  0.77913658516E+02 -0.62761800982E+01 -0.15587104102E+03  0.17443566163E+03  0.47000000000E+01 0.  1.
         13    1    6    6    0    0 -0.43121212705E+02 -0.40867225815E+02 -0.54505724829E+02  0.80625325861E+02  0.00000000000E+00 0. -1.
        -14    1    6    6    0    0  0.43986810210E+02 -0.51306311867E+02 -0.66861410901E+02  0.95066426132E+02  0.00000000000E+00 0.  1.
</event>
<event>
12    1  0.8407180E-002  0.1808912E+03  0.7818608E-02  0.1167057E+00
         21   -1    0    0  501  502  0.00000000000E+00  0.00000000000E+00  0.21274768259E+03  0.21274768259E+03  0.00000000000E+00 0.  1.
         21   -1    0    0  502  503 -0.00000000000E+00 -0.00000000000E+00 -0.28918744388E+03  0.28918744388E+03  0.00000000000E+00 0.  1.
         -6    2    1    2    0  503 -0.49721939789E+02  0.20254681100E+02 -0.21021589389E+03  0.27733077723E+03  0.17274002012E+03 0.  0.
        -24    2    3    3    0    0 -0.31813783127E+02 -0.55053891195E+02 -0.13214067288E+03  0.16728572613E+03  0.80500366491E+02 0.  0.
          6    2    1    2  501    0  0.49721939789E+02 -0.20254681100E+02  0.13377613260E+03  0.22460434924E+03  0.17224557075E+03 0.  0.
         24    2    5    5    0    0 -0.36880179220E+02 -0.33822255524E+02  0.60385583293E+02  0.11018289662E+03  0.77393536228E+02 0.  0.
          5    1    5    5  501    0  0.86602119008E+02  0.13567574424E+02  0.73390549309E+02  0.11442145262E+03  0.47000000000E+01 0. -1.
        -11    1    6    6    0    0  0.68589607926E+01 -0.43812031002E+02  0.43857073173E+02  0.62369722390E+02  0.00000000000E+00 0.  1.
         12    1    6    6    0    0 -0.43739140012E+02  0.99897754787E+01  0.16528510120E+02  0.47813174230E+02  0.00000000000E+00 0. -1.
         -5    1    3    3    0  503 -0.17908156662E+02  0.75308572294E+02 -0.78075221008E+02  0.11004505110E+03  0.47000000000E+01 0.  1.
         13    1    4    4    0    0 -0.40861133341E+02 -0.75456799157E+01 -0.10240345142E+03  0.11051260727E+03  0.00000000000E+00 0. -1.
        -14    1    4    4    0    0  0.90473502149E+01 -0.47508211279E+02 -0.29737221463E+02  0.56773118861E+02  0.00000000000E+00 0.  1.
</event>
<event>
12    1  0.8407180E-002  0.1959422E+03  0.7818608E-02  0.1153425E+00
         21   -1    0    0  503  502  0.00000000000E+00  0.00000000000E+00  0.12089202429E+03  0.12089202429E+03  0.00000000000E+00 0. -1.
         21   -1    0    0  501  503 -0.00000000000E+00 -0.00000000000E+00 -0.33137025949E+03  0.33137025949E+03  0.00000000000E+00 0.  1.
          6    2    1    2  501    0  0.78612211160E+02 -0.48940797785E+02 -0.15373608229E+03  0.24826960505E+03  0.17154571507E+03 0.  0.
         24    2    3    3    0    0  0.13790579223E+02 -0.45138900010E+02 -0.13658056929E+02  0.93801998139E+02  0.79903516609E+02 0.  0.
         -6    2    1    2    0  502 -0.78612211160E+02  0.48940797785E+02 -0.56742152910E+02  0.20399267873E+03  0.17267964451E+03 0.  0.
        -24    2    5    5    0    0 -0.13118556682E+02  0.74567424997E+02 -0.12194423965E+02  0.12060962917E+03  0.93089103946E+02 0.  0.
          5    1    3    3  501    0  0.64821631937E+02 -0.38018977752E+01 -0.14007802537E+03  0.15446760691E+03  0.47000000000E+01 0. -1.
        -13    1    4    4    0    0 -0.29680236399E+01  0.94640993126E+01 -0.32245724907E+02  0.33736702787E+02  0.00000000000E+00 0.  1.
         14    1    4    4    0    0  0.16758602863E+02 -0.54602999323E+02  0.18587667979E+02  0.60065295353E+02  0.00000000000E+00 0. -1.
         -5    1    5    5    0  502 -0.65493654478E+02 -0.25626627212E+02 -0.44547728945E+02  0.83383049556E+02  0.47000000000E+01 0.  1.
         11    1    6    6    0    0 -0.46169639060E+02  0.56831372126E+02  0.14406155373E+02  0.74625583692E+02  0.00000000000E+00 0. -1.
        -12    1    6    6    0    0  0.33051082378E+02  0.17736052871E+02 -0.26600579338E+02  0.45984045482E+02  0.00000000000E+00 0.  1.
</event>
<event>
12    1  0.8407180E-002  0.2046677E+03  0.7818608E-02  0.1146314E+00
         21   -1    0    0  503  502  0.00000000000E+00  0.00000000000E+00  0.35389088375E+03  0.35389088375E+03  0.00000000000E+00 0.  1.
         21   -1    0    0  501  503 -0.00000000000E+00 -0.00000000000E+00 -0.23635293613E+03  0.23635293613E+03  0.00000000000E+00 0. -1.
          6    2    1    2  501    0  0.22030172964E+02 -0.10661682647E+03 -0.15102518888E+03  0.25258272271E+03  0.17069548303E+03 0.  0.
         24    2    3    3    0    0  0.46200921188E+02 -0.10312097971E+03 -0.16988939495E+03  0.22136743343E+03  0.85864267851E+02 0.  0.
         -6    2    1    2    0  502 -0.22030172964E+02  0.10661682647E+03  0.26856313651E+03  0.33766109717E+03  0.17331007485E+03 0.  0.
        -24    2    5    5    0    0 -0.35611086783E+01  0.14190736614E+03  0.19542376669E+03  0.25424655442E+03  0.79375561640E+02 0.  0.
          5    1    3    3  501    0 -0.24170748224E+02 -0.34958467664E+01  0.18864206064E+02  0.31215289279E+02  0.47000000000E+01 0. -1.
        -11    1    4    4    0    0  0.17122288977E+01 -0.84679121704E+02 -0.67808411317E+02  0.10849638716E+03  0.00000000000E+00 0.  1.
         12    1    4    4    0    0  0.44488692290E+02 -0.18441858003E+02 -0.10208098363E+03  0.11287104628E+03  0.00000000000E+00 0. -1.
         -5    1    5    5    0  502 -0.18469064286E+02 -0.35290539669E+02  0.73139369818E+02  0.83414542755E+02  0.47000000000E+01 0.  1.
         11    1    6    6    0    0 -0.74872576862E+01  0.39227670611E+02  0.83341193997E+01  0.40796160547E+02  0.00000000000E+00 0. -1.
        -12    1    6    6    0    0  0.39261490079E+01  0.10267969553E+03  0.18708964729E+03  0.21345039387E+03  0.00000000000E+00 0.  1.
</event>
<event>
12    1  0.8407180E-002  0.1937025E+03  0.7818608E-02  0.1156903E+00
         21   -1    0    0  503  502  0.00000000000E+00  0.00000000000E+00  0.30103324340E+03  0.30103324340E+03  0.00000000000E+00 0.  1.
         21   -1    0    0  501  503 -0.00000000000E+00 -0.00000000000E+00 -0.20807915701E+03  0.20807915701E+03  0.00000000000E+00 0.  1.
          6    2    1    2  501    0 -0.62022130842E+02 -0.43310688137E+02 -0.11993754183E+03  0.22128693665E+03  0.16988329515E+03 0.  0.
         24    2    3    3    0    0 -0.15271829476E+02 -0.46310379720E+02 -0.14103838692E+03  0.16969309505E+03  0.80783908515E+02 0.  0.
         -6    2    1    2    0  502  0.62022130842E+02  0.43310688137E+02  0.21289162822E+03  0.28782546377E+03  0.17832019461E+03 0.  0.
        -24    2    5    5    0    0  0.11154510235E+02  0.76841591109E+02  0.64394272283E+02  0.12724716199E+03  0.77563939494E+02 0.  0.
          5    1    3    3  501    0 -0.46750301366E+02  0.29996915827E+01  0.21100845094E+02  0.51593841600E+02  0.47000000000E+01 0. -1.
        -11    1    4    4    0    0  0.18924589230E+02  0.30897225479E+01 -0.86335755701E+02  0.88439522700E+02  0.00000000000E+00 0.  1.
         12    1    4    4    0    0 -0.34196418706E+02 -0.49400102268E+02 -0.54702631223E+02  0.81253572347E+02  0.00000000000E+00 0. -1.
         -5    1    5    5    0  502  0.50867620607E+02 -0.33530902971E+02  0.14849735594E+03  0.16057830177E+03  0.47000000000E+01 0.  1.
         13    1    6    6    0    0 -0.85078540394E+01  0.40388710750E+02 -0.96664855271E+01  0.42391891664E+02  0.00000000000E+00 0. -1.
        -14    1    6    6    0    0  0.19662364274E+02  0.36452880359E+02  0.74060757810E+02  0.84855270329E+02  0.00000000000E+00 0.  1.
</event>
<event>
12    1  0.8407180E-002  0.2165753E+03  0.7818608E-02  0.1136571E+00
         21   -1    0    0  503  502  0.00000000000E+00  0.00000000000E+00  0.86546293577E+03  0.86546293577E+03  0.00000000000E+00 0.  1.
         21   -1    0    0  501  503 -0.00000000000E+00 -0.00000000000E+00 -0.25697899656E+03  0.25697899656E+03  0.00000000000E+00 0. -1.
          6    2    1    2  501    0 -0.12666404809E+03  0.34348503499E+02 -0.19455842355E+03  0.29070766574E+03  0.17156446595E+03 0.  0.
         24    2    3    3    0    0 -0.66438007109E+02 -0.49092728109E+02 -0.80050387078E+02  0.13668235756E+03  0.73823422134E+02 0.  0.
         -6    2    1    2    0  502  0.12666404809E+03 -0.34348503499E+02  0.80304236276E+03  0.83173426659E+03  0.17228248041E+03 0.  0.
        -24    2    5    5    0    0  0.56882459000E+02 -0.48850302968E+02  0.68313022544E+03  0.69216069087E+03  0.82447260868E+02 0.  0.
          5    1    3    3  501    0 -0.60226040980E+02  0.83441231608E+02 -0.11450803647E+03  0.15402530818E+03  0.47000000000E+01 0. -1.
        -13    1    4    4    0    0 -0.48049555779E+02 -0.23894713768E+02 -0.32185096381E+01  0.53759426716E+02  0.00000000000E+00 0.  1.
         14    1    4    4    0    0 -0.18388451330E+02 -0.25198014341E+02 -0.76831877440E+02  0.82922930845E+02  0.00000000000E+00 0. -1.
         -5    1    5    5    0  502  0.69781589089E+02  0.14501799469E+02  0.11991213732E+03  0.13957357572E+03  0.47000000000E+01 0.  1.
         13    1    6    6    0    0 -0.18386036483E+01  0.15932509380E+01 -0.17006660372E+01  0.29683626626E+01  0.00000000000E+00 0. -1.
        -14    1    6    6    0    0  0.58721062649E+02 -0.50443553906E+02  0.68483089148E+03  0.68919232821E+03  0.00000000000E+00 0.  1.
</event>
<event>
12    1  0.8407180E-002  0.2180952E+03  0.7818608E-02  0.1136721E+00
         21   -1    0    0  501  502  0.00000000000E+00  0.00000000000E+00  0.64234775002E+03  0.64234775002E+03  0.00000000000E+00 0. -1.
         21   -1    0    0  502  503 -0.00000000000E+00 -0.00000000000E+00 -0.88701453673E+02  0.88701453673E+02  0.00000000000E+00 0.  1.
         -6    2    1    2    0  503  0.59055307412E+02  0.10923222731E+03  0.12006507311E+03  0.24896009878E+03  0.17929389333E+03 0.  0.
        -24    2    3    3    0    0  0.67978395668E+02  0.79266190958E+02  0.15438001329E+03  0.20229973061E+03  0.78662578091E+02 0.  0.
          6    2    1    2  501    0 -0.59055307412E+02 -0.10923222731E+03  0.43358122324E+03  0.48208910491E+03  0.17028804749E+03 0.  0.
         24    2    5    5    0    0 -0.92424694416E+02 -0.35451559198E+02  0.23592552720E+03  0.26843759626E+03  0.81232699769E+02 0.  0.
          5    1    5    5  501    0  0.33369387003E+02 -0.73780668117E+02  0.19765569603E+03  0.21365150866E+03  0.47000000000E+01 0. -1.
        -13    1    6    6    0    0 -0.51183499675E+02  0.19171240170E+02  0.68993735225E+02  0.88019444380E+02  0.00000000000E+00 0.  1.
         14    1    6    6    0    0 -0.41241194741E+02 -0.54622799368E+02  0.16693179198E+03  0.18041815188E+03  0.00000000000E+00 0. -1.
         -5    1    3    3    0  503 -0.89230882555E+01  0.29966036356E+02 -0.34314940179E+02  0.46660368177E+02  0.47000000000E+01 0.  1.
         13    1    4    4    0    0  0.21628700273E+02  0.39220777095E+02  0.12799571539E+03  0.13560594821E+03  0.00000000000E+00 0. -1.
        -14    1    4    4    0    0  0.46349695395E+02  0.40045413863E+02  0.26384297906E+02  0.66693782399E+02  0.00000000000E+00 0.  1.
</event>
<event>
12    1  0.8407180E-002  0.1762947E+03  0.7818608E-02  0.1171979E+00
         21   -1    0    0  503  502  0.00000000000E+00  0.00000000000E+00  0.12237024746E+04  0.12237024746E+04  0.00000000000E+00 0. -1.
         21   -1    0    0  501  503 -0.00000000000E+00 -0.00000000000E+00 -0.43997193796E+02  0.43997193796E+02  0.00000000000E+00 0. -1.
          6    2    1    2  501    0  0.20701977167E+02  0.15956054880E+02  0.17639080635E+03  0.24938633559E+03  0.17434638014E+03 0.  0.
         24    2    3    3    0    0 -0.14485028513E+02  0.77476427451E+01  0.19314971835E+03  0.20928079320E+03  0.78878353710E+02 0.  0.
         -6    2    1    2    0  502 -0.20701977167E+02 -0.15956054880E+02  0.10033144744E+04  0.10183133328E+04  0.17215963979E+03 0.  0.
        -24    2    5    5    0    0  0.76224532481E+01 -0.58129587302E+02  0.86224513153E+03  0.86830156757E+03  0.83927317878E+02 0.  0.
          5    1    3    3  501    0  0.35187005680E+02  0.82084121350E+01 -0.16758912006E+02  0.40105542387E+02  0.47000000000E+01 0. -1.
        -11    1    4    4    0    0  0.17879402685E+02 -0.26245990912E+02  0.10085766033E+03  0.10573926767E+03  0.00000000000E+00 0.  1.
         12    1    4    4    0    0 -0.32364431198E+02  0.33993633657E+02  0.92292058020E+02  0.10354152553E+03  0.00000000000E+00 0. -1.
         -5    1    5    5    0  502 -0.28324430415E+02  0.42173532422E+02  0.14106934290E+03  0.15001176521E+03  0.47000000000E+01 0.  1.
         13    1    6    6    0    0 -0.11484238287E+02  0.17672666239E+02  0.10963958516E+03  0.11164698606E+03  0.00000000000E+00 0. -1.
        -14    1    6    6    0    0  0.19106691535E+02 -0.75802253541E+02  0.75260554637E+03  0.75665458151E+03  0.00000000000E+00 0.  1.
</event>
<event>
12    1  0.8407180E-002  0.1762808E+03  0.7818608E-02  0.1171586E+00
         21   -1    0    0  503  502  0.00000000000E+00  0.00000000000E+00  0.18883535280E+03  0.18883535280E+03  0.00000000000E+00 0.  1.
         21   -1    0    0  501  503 -0.00000000000E+00 -0.00000000000E+00 -0.28968439627E+03  0.28968439627E+03  0.00000000000E+00 0. -1.
          6    2    1    2  501    0  0.12774113579E+02  0.31958477684E+02 -0.20802723136E+03  0.27267239152E+03  0.17288835079E+03 0.  0.
         24    2    3    3    0    0  0.19161279993E+02  0.76350407170E+00 -0.22268669165E+03  0.23730415649E+03  0.79725544581E+02 0.  0.
         -6    2    1    2    0  502 -0.12774113579E+02 -0.31958477684E+02  0.10717818789E+03  0.20584735754E+03  0.17234108151E+03 0.  0.
        -24    2    5    5    0    0  0.15567308288E+02 -0.77601104039E+02  0.10137714952E+03  0.15160505320E+03  0.80265143595E+02 0.  0.
          5    1    3    3  501    0 -0.63871664138E+01  0.31194973612E+02  0.14659460290E+02  0.35368235034E+02  0.47000000000E+01 0. -1.
        -11    1    4    4    0    0 -0.27878129887E+02 -0.12601991199E+02 -0.11560675530E+03  0.11958646320E+03  0.00000000000E+00 0.  1.
         12    1    4    4    0    0  0.47039409880E+02  0.13365495271E+02 -0.10707993635E+03  0.11771769329E+03  0.00000000000E+00 0. -1.
         -5    1    5    5    0  502 -0.28341421867E+02  0.45642626355E+02  0.58010383689E+01  0.54242304341E+02  0.47000000000E+01 0.  1.
         11    1    6    6    0    0  0.90403380220E+01 -0.84184168879E+01 -0.12898620553E+02  0.17859783499E+02  0.00000000000E+00 0. -1.
        -12    1    6    6    0    0  0.65269702661E+01 -0.69182687151E+02  0.11427577007E+03  0.13374526970E+03  0.00000000000E+00 0.  1.
</event>
<event>
12    1  0.8407180E-002  0.1863590E+03  0.7818608E-02  0.1163164E+00
         21   -1    0    0  503  502  0.00000000000E+00  0.00000000000E+00  0.87893557319E+02  0.87893557319E+02  0.00000000000E+00 0.  1.
         21   -1    0    0  501  503 -0.00000000000E+00 -0.00000000000E+00 -0.39488496652E+03  0.39488496652E+03  0.00000000000E+00 0.  1.
          6    2    1    2  501    0  0.34757955254E+02 -0.63943053139E+02 -0.19806466050E+03  0.27195457553E+03  0.17156005337E+03 0.  0.
         24    2    3    3    0    0 -0.34274455539E+02 -0.54152313000E+02 -0.63349007678E+02  0.12019249381E+03  0.79535699459E+02 0.  0.
         -6    2    1    2    0  502 -0.34757955254E+02  0.63943053139E+02 -0.10892674869E+03  0.21082394830E+03  0.16518132794E+03 0.  0.
        -24    2    5    5    0    0 -0.73746258839E+02  0.81717009275E+01 -0.45701496405E+02  0.11781828143E+03  0.79292075749E+02 0.  0.
          5    1    3    3  501    0  0.69032410793E+02 -0.97907401390E+01 -0.13471565283E+03  0.15176208172E+03  0.47000000000E+01 0. -1.
        -11    1    4    4    0    0  0.76665334982E+01 -0.17749846750E+02  0.14779929305E+02  0.24336785034E+02  0.00000000000E+00 0.  1.
         12    1    4    4    0    0 -0.41940989038E+02 -0.36402466250E+02 -0.78128936983E+02  0.95855708774E+02  0.00000000000E+00 0. -1.
         -5    1    5    5    0  502  0.38988303585E+02  0.55771352212E+02 -0.63225252288E+02  0.93005666875E+02  0.47000000000E+01 0.  1.
         13    1    6    6    0    0 -0.37285744096E+02  0.43779413491E+02 -0.21410400738E+02  0.61361787932E+02  0.00000000000E+00 0. -1.
        -14    1    6    6    0    0 -0.36460514743E+02 -0.35607712564E+02 -0.24291095666E+02  0.56456493498E+02  0.00000000000E+00 0.  1.
</event>
<event>
12    1  0.8407180E-002  0.3502346E+03  0.7818608E-02  0.1062532E+00
         21   -1    0    0  501  502  0.00000000000E+00  0.00000000000E+00  0.14346197003E+03  0.14346197003E+03  0.00000000000E+00 0. -1.
         21   -1    0    0  502  503 -0.00000000000E+00 -0.00000000000E+00 -0.89947651275E+03  0.89947651275E+03  0.00000000000E+00 0.  1.
         -6    2    1    2    0  503  0.27550911056E+03 -0.12999989603E+03 -0.49425951342E+03  0.60569713742E+03  0.17254365450E+03 0.  0.
        -24    2    3    3    0    0  0.25915217270E+03 -0.15152460367E+03 -0.39346906371E+03  0.50123821149E+03  0.79386941152E+02 0.  0.
          6    2    1    2  501    0 -0.27550911056E+03  0.12999989603E+03 -0.26175502930E+03  0.43724134535E+03  0.17279773075E+03 0.  0.
         24    2    5    5    0    0 -0.22763328474E+03  0.15408122532E+03 -0.17592303576E+03  0.33594363445E+03  0.79694885033E+02 0.  0.
          5    1    5    5  501    0 -0.47875825819E+02 -0.24081329287E+02 -0.85831993541E+02  0.10129771090E+03  0.47000000000E+01 0. -1.
        -13    1    6    6    0    0 -0.15937939839E+03  0.79417599025E+02 -0.75539136421E+02  0.19342985498E+03  0.00000000000E+00 0.  1.
         14    1    6    6    0    0 -0.68253886350E+02  0.74663626295E+02 -0.10038389934E+03  0.14251377947E+03  0.00000000000E+00 0. -1.
         -5    1    3    3    0  503  0.16356937854E+02  0.21524707632E+02 -0.10079044971E+03  0.10445892594E+03  0.47000000000E+01 0.  1.
         13    1    4    4    0    0  0.12310451259E+03 -0.84706363190E+02 -0.25698881649E+03  0.29727620285E+03  0.00000000000E+00 0. -1.
        -14    1    4    4    0    0  0.13604766012E+03 -0.66818240475E+02 -0.13648024722E+03  0.20396200863E+03  0.00000000000E+00 0.  1.
</event>
<event>
12    1  0.8407180E-002  0.2221918E+03  0.7818608E-02  0.1132398E+00
         21   -1    0    0  503  502  0.00000000000E+00  0.00000000000E+00  0.89051573044E+02  0.89051573044E+02  0.00000000000E+00 0. -1.
         21   -1    0    0  501  503 -0.00000000000E+00 -0.00000000000E+00 -0.63763761093E+03  0.63763761093E+03  0.00000000000E+00 0. -1.
          6    2    1    2  501    0 -0.90312494248E+02 -0.10547064542E+03 -0.40745008936E+03  0.46409564655E+03  0.17346120652E+03 0.  0.
         24    2    3    3    0    0 -0.21929689508E+02 -0.11498383476E+03 -0.33625337425E+03  0.36480933834E+03  0.79481621202E+02 0.  0.
         -6    2    1    2    0  502  0.90312494248E+02  0.10547064542E+03 -0.14113594853E+03  0.26259353742E+03  0.17249813410E+03 0.  0.
        -24    2    5    5    0    0  0.76270812104E+01  0.10245028514E+03 -0.46005872014E+02  0.13642768799E+03  0.77082686103E+02 0.  0.
          5    1    3    3  501    0 -0.68382804740E+02  0.95131893412E+01 -0.71196715112E+02  0.99286308212E+02  0.47000000000E+01 0. -1.
        -13    1    4    4    0    0  0.29039016467E+02 -0.49578913552E+02 -0.11564011289E+03  0.12912772303E+03  0.00000000000E+00 0.  1.
         14    1    4    4    0    0 -0.50968705975E+02 -0.65404921212E+02 -0.22061326136E+03  0.23568161531E+03  0.00000000000E+00 0. -1.
         -5    1    5    5    0  502  0.82685413038E+02  0.30203602778E+01 -0.95130076516E+02  0.12616584943E+03  0.47000000000E+01 0.  1.
         11    1    6    6    0    0  0.23817824611E+02  0.34814427345E+01 -0.23518180391E+02  0.33652845669E+02  0.00000000000E+00 0. -1.
        -12    1    6    6    0    0 -0.16190743400E+02  0.98968842410E+02 -0.22487691623E+02  0.10277484232E+03  0.00000000000E+00 0.  1.
</event>
<event>
12    1  0.8407180E-002  0.4247485E+03  0.7818608E-02  0.1035578E+00
         21   -1    0    0  503  502  0.00000000000E+00  0.00000000000E+00  0.68539941228E+02  0.68539941228E+02  0.00000000000E+00 0.  1.
         21   -1    0    0  501  503 -0.00000000000E+00 -0.00000000000E+00 -0.26287073040E+04  0.26287073040E+04  0.00000000000E+00 0. -1.
          6    2    1    2  501    0 -0.29516036839E+03  0.25174552384E+03 -0.12732479769E+04  0.13422263883E+04  0.17296188898E+03 0.  0.
         24    2    3    3    0    0 -0.25400753623E+03  0.23961103088E+03 -0.93335489698E+03  0.99960385947E+03  0.78251118657E+02 0.  0.
         -6    2    1    2    0  502  0.29516036839E+03 -0.25174552384E+03 -0.12869193859E+04  0.13550208569E+04  0.17153590010E+03 0.  0.
        -24    2    5    5    0    0  0.22418181999E+03 -0.25981752598E+03 -0.10842716291E+04  0.11400992087E+04  0.80116194987E+02 0.  0.
          5    1    3    3  501    0 -0.41152832159E+02  0.12134492965E+02 -0.33989307988E+03  0.34262252884E+03  0.47000000000E+01 0. -1.
        -13    1    4    4    0    0 -0.15341552827E+03  0.18241733363E+03 -0.55684169760E+03  0.60571039623E+03  0.00000000000E+00 0.  1.
         14    1    4    4    0    0 -0.10059200796E+03  0.57193697246E+02 -0.37651319939E+03  0.39389346324E+03  0.00000000000E+00 0. -1.
         -5    1    5    5    0  502  0.70978548404E+02  0.80720021347E+01 -0.20264775683E+03  0.21492164828E+03  0.47000000000E+01 0.  1.
         13    1    6    6    0    0  0.18024972946E+03 -0.18261672395E+03 -0.69586023903E+03  0.74166050528E+03  0.00000000000E+00 0. -1.
        -14    1    6    6    0    0  0.43932090531E+02 -0.77200802027E+02 -0.38841139007E+03  0.39843870338E+03  0.00000000000E+00 0.  1.
</event>
<event>
12    1  0.8407180E-002  0.1817027E+03  0.7818608E-02  0.1166254E+00
         21   -1    0    0  503  502  0.00000000000E+00  0.00000000000E+00  0.15483636043E+04  0.15483636043E+04  0.00000000000E+00 0.  1.
         21   -1    0    0  501  503 -0.00000000000E+00 -0.00000000000E+00 -0.64769032621E+02  0.64769032621E+02  0.00000000000E+00 0.  1.
          6    2    1    2  501    0  0.11534167835E+02  0.57027588138E+02  0.81127454462E+02  0.19899131927E+03  0.17213569775E+03 0.  0.
         24    2    3    3    0    0  0.28650599012E+02  0.26825596112E+02 -0.27605615252E+02  0.84754271919E+02  0.69862344540E+02 0.  0.
         -6    2    1    2    0  502 -0.11534167835E+02 -0.57027588138E+02  0.14024671172E+04  0.14141413176E+04  0.17174535967E+03 0.  0.
        -24    2    5    5    0    0 -0.72506021931E+02 -0.52469495980E+02  0.92501376969E+03  0.93276606667E+03  0.79949295048E+02 0.  0.
          5    1    3    3  501    0 -0.17116431176E+02  0.30201992027E+02  0.10873306971E+03  0.11423704735E+03  0.47000000000E+01 0. -1.
        -13    1    4    4    0    0  0.26409964004E+02  0.37683772139E+02  0.86662424847E+01  0.46825811687E+02  0.00000000000E+00 0.  1.
         14    1    4    4    0    0  0.22406350074E+01 -0.10858176028E+02 -0.36271857736E+02  0.37928460232E+02  0.00000000000E+00 0. -1.
         -5    1    5    5    0  502  0.60971854095E+02 -0.45580921583E+01  0.47745334749E+03  0.48137525094E+03  0.47000000000E+01 0.  1.
         13    1    6    6    0    0 -0.12503625290E+02  0.21401684259E+02  0.20254743824E+03  0.20405841681E+03  0.00000000000E+00 0. -1.
        -14    1    6    6    0    0 -0.60002396641E+02 -0.73871180239E+02  0.72246633145E+03  0.72870764985E+03  0.00000000000E+00 0.  1.
</event>
<event>
12    1  0.8407180E-002  0.1775261E+03  0.7818608E-02  0.1171453E+00
         21   -1    0    0  503  502  0.00000000000E+00  0.00000000000E+00  0.89428569971E+02  0.89428569971E+02  0.00000000000E+00 0. -1.
         21   -1    0    0  501  503 -0.00000000000E+00 -0.00000000000E+00 -0.34640804327E+03  0.34640804327E+03  0.00000000000E+00 0. -1.
          6    2    1    2  501    0 -0.57428986206E+01 -0.42928199653E+02 -0.10767855388E+03  0.20762993259E+03  0.17216186201E+03 0.  0.
         24    2    3    3    0    0 -0.55534849703E+02  0.15294787540E+02 -0.79034947395E+02  0.12570496190E+03  0.78975720818E+02 0.  0.
         -6    2    1    2    0  502  0.57428986206E+01  0.42928199653E+02 -0.14930091942E+03  0.22820668065E+03  0.16706799018E+03 0.  0.
        -24    2    5    5    0    0 -0.29022358977E+02  0.62039983113E+02 -0.15552130792E+03  0.18777566984E+03  0.79884717816E+02 0.  0.
          5    1    3    3  501    0  0.49791951083E+02 -0.58222987193E+02 -0.28643606483E+02  0.81924970691E+02  0.47000000000E+01 0. -1.
        -13    1    4    4    0    0 -0.23671559102E+02  0.98285308938E+01  0.12581152961E+02  0.28552200260E+02  0.00000000000E+00 0.  1.
         14    1    4    4    0    0 -0.31863290602E+02  0.54662566462E+01 -0.91616100356E+02  0.97152761639E+02  0.00000000000E+00 0. -1.
         -5    1    5    5    0  502  0.34765257597E+02 -0.19111783460E+02  0.62203884933E+01  0.40431010819E+02  0.47000000000E+01 0.  1.
         13    1    6    6    0    0 -0.22575518335E+01  0.14582224709E+02  0.70235584984E+01  0.16342221138E+02  0.00000000000E+00 0. -1.
        -14    1    6    6    0    0 -0.26764807143E+02  0.47457758404E+02 -0.16254486642E+03  0.17143344870E+03  0.00000000000E+00 0.  1.
</event>
<event>
12    1  0.8407180E-002  0.1782031E+03  0.7818608E-02  0.1169680E+00
         21   -1    0    0  501  502  0.00000000000E+00  0.00000000000E+00  0.71665521218E+02  0.71665521218E+02  0.00000000000E+00 0. -1.
         21   -1    0    0  502  503 -0.00000000000E+00 -0.00000000000E+00 -0.64816779322E+03  0.64816779322E+03  0.00000000000E+00 0. -1.
         -6    2    1    2    0  503  0.37682690808E+02  0.26535681631E+02 -0.49159900612E+03  0.52290146572E+03  0.17214015350E+03 0.  0.
        -24    2    3    3    0    0  0.59918603053E+02 -0.33628761998E+02 -0.22612114243E+03  0.24974440069E+03  0.80748758462E+02 0.  0.
          6    2    1    2  501    0 -0.37682690808E+02 -0.26535681631E+02 -0.84903265880E+02  0.19693184872E+03  0.17160845228E+03 0.  0.
         24    2    5    5    0    0 -0.14866834931E+02 -0.81303711970E+02 -0.80581063558E+02  0.13725880740E+03  0.74265443139E+02 0.  0.
          5    1    5    5  501    0 -0.22815855877E+02  0.54768030339E+02 -0.43222023220E+01  0.59673041313E+02  0.47000000000E+01 0. -1.
        -11    1    6    6    0    0  0.27932888209E+02 -0.13738888312E+02 -0.23251471918E+02  0.38854011918E+02  0.00000000000E+00 0.  1.
         12    1    6    6    0    0 -0.42799723141E+02 -0.67564823658E+02 -0.57329591640E+02  0.98404795485E+02  0.00000000000E+00 0. -1.
         -5    1    3    3    0  503 -0.22235912245E+02  0.60164443630E+02 -0.26547786369E+03  0.27315706504E+03  0.47000000000E+01 0.  1.
         11    1    4    4    0    0  0.13913329339E+01 -0.26015138984E+02 -0.15568422501E+03  0.15784898220E+03  0.00000000000E+00 0. -1.
        -12    1    4    4    0    0  0.58527270119E+02 -0.76136230140E+01 -0.70436917421E+02  0.91895418486E+02  0.00000000000E+00 0.  1.
</event>
<event>
12    1  0.8407180E-002  0.1823943E+03  0.7818608E-02  0.1165989E+00
         21   -1    0    0  501  502  0.00000000000E+00  0.00000000000E+00  0.16848128199E+03  0.16848128199E+03  0.00000000000E+00 0. -1.
         21   -1    0    0  502  503 -0.00000000000E+00 -0.00000000000E+00 -0.27818855354E+03  0.27818855354E+03  0.00000000000E+00 0. -1.
         -6    2    1    2    0  503  0.19579392453E+01 -0.56714351038E+02 -0.17699432508E+03  0.25415478935E+03  0.17334161271E+03 0.  0.
        -24    2    3    3    0    0  0.62377800021E+02 -0.57504491662E+02 -0.90293903975E+02  0.14837087319E+03  0.81628245226E+02 0.  0.
          6    2    1    2  501    0 -0.19579392453E+01  0.56714351038E+02  0.67287053532E+02  0.19251504618E+03  0.17121373863E+03 0.  0.
         24    2    5    5    0    0 -0.28445643436E+02 -0.28158896631E+02  0.17373941305E+02  0.90444112931E+02  0.79222507139E+02 0.  0.
          5    1    5    5  501    0  0.26487704191E+02  0.84873247669E+02  0.49913112226E+02  0.10207093325E+03  0.47000000000E+01 0. -1.
        -13    1    6    6    0    0  0.22591437636E+02 -0.16963016648E+02 -0.11781982450E+02  0.30609346591E+02  0.00000000000E+00 0.  1.
         14    1    6    6    0    0 -0.51037081072E+02 -0.11195879983E+02  0.29155923755E+02  0.59834766340E+02  0.00000000000E+00 0. -1.
         -5    1    3    3    0  503 -0.60419860775E+02  0.79014062395E+00 -0.86700421110E+02  0.10578391616E+03  0.47000000000E+01 0.  1.
         11    1    4    4    0    0  0.37040214054E+02 -0.29175033194E+02  0.33886879314E+01  0.47272013125E+02  0.00000000000E+00 0. -1.
        -12    1    4    4    0    0  0.25337585967E+02 -0.28329458468E+02 -0.93682591906E+02  0.10109886006E+03  0.00000000000E+00 0.  1.
</event>
<event>
12    1  0.8407180E-002  0.1873312E+03  0.7818608E-02  0.1162276E+00
         21   -1    0    0  503  502  0.00000000000E+00  0.00000000000E+00  0.95307549846E+02  0.95307549846E+02  0.00000000000E+00 0. -1.
         21   -1    0    0  501  503 -0.00000000000E+00 -0.00000000000E+00 -0.49397388299E+03  0.49397388299E+03  0.00000000000E+00 0.  1.
          6    2    1    2  501    0 -0.66528969592E+02  0.30266346041E+02 -0.35698681788E+03  0.40315329195E+03  0.17248429833E+03 0.  0.
         24    2    3    3    0    0 -0.56545623926E+02 -0.47773984169E+02 -0.20910040105E+03  0.23557512329E+03  0.79327799935E+02 0.  0.
         -6    2    1    2    0  502  0.66528969592E+02 -0.30266346041E+02 -0.41679515267E+02  0.18612814089E+03  0.16602514069E+03 0.  0.
        -24    2    5    5    0    0  0.21096827661E+02  0.39858675160E+02  0.34038206287E+01  0.91069236550E+02  0.79045744529E+02 0.  0.
          5    1    3    3  501    0 -0.99833456658E+01  0.78040330210E+02 -0.14788641683E+03  0.16757816866E+03  0.47000000000E+01 0. -1.
        -11    1    4    4    0    0 -0.76691951337E+02 -0.36232164011E+02 -0.17260914837E+03  0.19232353785E+03  0.00000000000E+00 0.  1.
         12    1    4    4    0    0  0.20146327411E+02 -0.11541820158E+02 -0.36491252682E+02  0.43251585440E+02  0.00000000000E+00 0. -1.
         -5    1    5    5    0  502  0.45432141931E+02 -0.70125021201E+02 -0.45083335896E+02  0.95058904340E+02  0.47000000000E+01 0.  1.
         13    1    6    6    0    0  0.95898266799E+01  0.58567407023E+01  0.38957630804E+02  0.40545815878E+02  0.00000000000E+00 0. -1.
        -14    1    6    6    0    0  0.11507000981E+02  0.34001934458E+02 -0.35553810175E+02  0.50523420672E+02  0.00000000000E+00 0.  1.
</event>
<event>
12    1  0.8407180E-002  0.1794195E+03  0.7818608E-02  0.1168495E+00
         21   -1    0    0  503  502  0.00000000000E+00  0.00000000000E+00  0.36999496633E+03  0.36999496633E+03  0.00000000000E+00 0.  1.
         21   -1    0    0  501  503 -0.00000000000E+00 -0.00000000000E+00 -0.12091110795E+03  0.12091110795E+03  0.00000000000E+00 0.  1.
          6    2    1    2  501    0  0.58216938971E+01 -0.50761389280E+02 -0.57977217280E+01  0.17951313774E+03  0.17199052963E+03 0.  0.
         24    2    3    3    0    0  0.12942937370E+02  0.36417679364E+02  0.12562705065E+02  0.90013990312E+02  0.80317681087E+02 0.  0.
         -6    2    1    2    0  502 -0.58216938971E+01  0.50761389280E+02  0.25488158011E+03  0.31139293654E+03  0.17143608223E+03 0.  0.
        -24    2    5    5    0    0  0.52314818646E+02  0.68181865900E+02  0.15761532302E+03  0.19664912685E+03  0.80266318907E+02 0.  0.
          5    1    3    3  501    0 -0.71212434730E+01 -0.87179068645E+02 -0.18360426793E+02  0.89499147428E+02  0.47000000000E+01 0. -1.
        -11    1    4    4    0    0  0.42176132564E+02  0.65469132673E+01  0.20696698641E+02  0.47434603045E+02  0.00000000000E+00 0.  1.
         12    1    4    4    0    0 -0.29233195194E+02  0.29870766097E+02 -0.81339935758E+01  0.42579387266E+02  0.00000000000E+00 0. -1.
         -5    1    5    5    0  502 -0.58136512543E+02 -0.17420476620E+02  0.97266257084E+02  0.11474380970E+03  0.47000000000E+01 0.  1.
         13    1    6    6    0    0  0.53381659167E+02  0.41563698382E+01  0.70155421294E+02  0.88253385672E+02  0.00000000000E+00 0. -1.
        -14    1    6    6    0    0 -0.10668405211E+01  0.64025496062E+02  0.87459901727E+02  0.10839574117E+03  0.00000000000E+00 0.  1.
</event>
<event>
12    1  0.8407180E-002  0.2321971E+03  0.7818608E-02  0.1125261E+00
         21   -1    0    0  501  502  0.00000000000E+00  0.00000000000E+00  0.57197390487E+02  0.57197390487E+02  0.00000000000E+00 0.  1.
         21   -1    0    0  502  503 -0.00000000000E+00 -0.00000000000E+00 -0.18419675465E+04  0.18419675465E+04  0.00000000000E+00 0.  1.
         -6    2    1    2    0  503  0.12388073869E+03 -0.93468567068E+02 -0.15563714712E+04  0.15734634639E+04  0.17150016175E+03 0.  0.
        -24    2    3    3    0    0  0.82982644165E+02 -0.86801348378E+02 -0.63556921860E+03  0.65171730346E+03  0.79791093982E+02 0.  0.
          6    2    1    2  501    0 -0.12388073869E+03  0.93468567068E+02 -0.22839868484E+03  0.32570147309E+03  0.17272139384E+03 0.  0.
         24    2    5    5    0    0 -0.64196158777E+02 -0.18230139702E+02 -0.81721466867E+02  0.13185837560E+03  0.79086966518E+02 0.  0.
          5    1    5    5  501    0 -0.59684579916E+02  0.11169870677E+03 -0.14667721797E+03  0.19384309750E+03  0.47000000000E+01 0. -1.
        -11    1    6    6    0    0 -0.39056986093E+02  0.20723752392E+02 -0.71994605929E+02  0.84487545584E+02  0.00000000000E+00 0.  1.
         12    1    6    6    0    0 -0.25139172684E+02 -0.38953892094E+02 -0.97268609374E+01  0.47370830014E+02  0.00000000000E+00 0. -1.
         -5    1    3    3    0  503  0.40898094528E+02 -0.66672186903E+01 -0.92080225256E+03  0.92174616043E+03  0.47000000000E+01 0.  1.
         11    1    4    4    0    0  0.35322911671E+02  0.52277497885E+01 -0.99287824974E+02  0.10551355195E+03  0.00000000000E+00 0. -1.
        -12    1    4    4    0    0  0.47659732494E+02 -0.92029098166E+02 -0.53628139363E+03  0.54620375151E+03  0.00000000000E+00 0.  1.
</event>
<event>
12    1  0.8407180E-002  0.2262157E+03  0.7818608E-02  0.1129635E+00
         21   -1    0    0  501  502  0.00000000000E+00  0.00000000000E+00  0.16160263984E+03  0.16160263984E+03  0.00000000000E+00 0. -1.
         21   -1    0    0  502  503 -0.00000000000E+00 -0.00000000000E+00 -0.33246738668E+03  0.33246738668E+03  0.00000000000E+00 0. -1.
         -6    2    1    2    0  503 -0.24790550511E+02  0.14301710294E+03 -0.14344937762E+03  0.26786423413E+03  0.17350810027E+03 0.  0.
        -24    2    3    3    0    0  0.12030207063E+02  0.15453286613E+03 -0.78631035192E+02  0.19228719724E+03  0.82258093418E+02 0.  0.
          6    2    1    2  501    0  0.24790550511E+02 -0.14301710294E+03 -0.27415369221E+02  0.22620579239E+03  0.17131548357E+03 0.  0.
         24    2    5    5    0    0  0.37330190463E+02 -0.44151121062E+02  0.38394513122E+02  0.10668694217E+03  0.81025307042E+02 0.  0.
          5    1    5    5  501    0 -0.12539639952E+02 -0.98865981875E+02 -0.65809882343E+02  0.11951885021E+03  0.47000000000E+01 0. -1.
        -13    1    6    6    0    0  0.44612207648E+01  0.66092952353E+00 -0.23253698173E+02  0.23686996375E+02  0.00000000000E+00 0.  1.
         14    1    6    6    0    0  0.32868969698E+02 -0.44812050586E+02  0.61648211294E+02  0.82999945798E+02  0.00000000000E+00 0. -1.
         -5    1    3    3    0  503 -0.36820757574E+02 -0.11515763188E+02 -0.64818342428E+02  0.75577036891E+02  0.47000000000E+01 0.  1.
         11    1    4    4    0    0 -0.24061655003E+02  0.84160289700E+02 -0.10991524683E+02  0.88219789269E+02  0.00000000000E+00 0. -1.
        -12    1    4    4    0    0  0.36091862066E+02  0.70372576425E+02 -0.67639510509E+02  0.10406740797E+03  0.00000000000E+00 0.  1.
</event>
<event>
12    1  0.8407180E-002  0.2343953E+03  0.7818608E-02  0.1123873E+00
         21   -1    0    0  503  502  0.00000000000E+00  0.00000000000E+00  0.18105439156E+03  0.18105439156E+03  0.00000000000E+00 0.  1.
         21   -1    0    0  501  503 -0.00000000000E+00 -0.00000000000E+00 -0.46692803714E+03  0.46692803714E+03  0.00000000000E+00 0. -1.
          6    2    1    2  501    0  0.12957574036E+03 -0.88677019841E+02  0.50368974749E+02  0.23810410617E+03  0.17176450570E+03 0.  0.
         24    2    3    3    0    0  0.36410630681E+02 -0.81152913192E+02 -0.19021385807E+02  0.12159890465E+03  0.80702857125E+02 0.  0.
         -6    2    1    2    0  502 -0.12957574036E+03  0.88677019841E+02 -0.33624262033E+03  0.40987832253E+03  0.17403348303E+03 0.  0.
        -24    2    5    5    0    0 -0.58842091717E+02  0.10360350715E+03 -0.29098890865E+03  0.32446147703E+03  0.80028911480E+02 0.  0.
          5    1    3    3  501    0  0.93165109678E+02 -0.75241066486E+01  0.69390360556E+02  0.11650520152E+03  0.47000000000E+01 0. -1.
        -11    1    4    4    0    0  0.53125372415E+02 -0.58349600880E+02  0.11783373380E+02  0.79786145447E+02  0.00000000000E+00 0.  1.
         12    1    4    4    0    0 -0.16714741735E+02 -0.22803312312E+02 -0.30804759187E+02  0.41812759203E+02  0.00000000000E+00 0. -1.
         -5    1    5    5    0  502 -0.70733648642E+02 -0.14926487309E+02 -0.45253711687E+02  0.85416845499E+02  0.47000000000E+01 0.  1.
         13    1    6    6    0    0 -0.68950224526E+02  0.44635824015E+02 -0.19146146622E+03  0.20833622656E+03  0.00000000000E+00 0. -1.
        -14    1    6    6    0    0  0.10108132809E+02  0.58967683134E+02 -0.99527442425E+02  0.11612525048E+03  0.00000000000E+00 0.  1.
</event>
<event>
12    1  0.8407180E-002  0.2248352E+03  0.7818608E-02  0.1131027E+00
         21   -1    0    0  501  502  0.00000000000E+00  0.00000000000E+00  0.12673483561E+04  0.12673483561E+04  0.00000000000E+00 0. -1.
         21   -1    0    0  502  503 -0.00000000000E+00 -0.00000000000E+00 -0.45107527807E+02  0.45107527807E+02  0.00000000000E+00 0. -1.
         -6    2    1    2    0  503 -0.12919570749E+02  0.13819884193E+03  0.37844744744E+03  0.44019694766E+03  0.17687579551E+03 0.  0.
        -24    2    3    3    0    0  0.53082110228E+02  0.91573522982E+02  0.30012924464E+03  0.32756492225E+03  0.77574443354E+02 0.  0.
          6    2    1    2  501    0  0.12919570749E+02 -0.13819884193E+03  0.84379338089E+03  0.87225893628E+03  0.17199577631E+03 0.  0.
         24    2    5    5    0    0  0.25792946200E+02 -0.32035268784E+01  0.32475485436E+03  0.33577730481E+03  0.81272039094E+02 0.  0.
          5    1    5    5  501    0 -0.12873375450E+02 -0.13499531505E+03  0.51903852653E+03  0.53648163147E+03  0.47000000000E+01 0. -1.
        -13    1    6    6    0    0 -0.80778163817E+00 -0.40603603573E+01 -0.41121456850E+01  0.58351332068E+01  0.00000000000E+00 0.  1.
         14    1    6    6    0    0  0.26600727838E+02  0.85683347882E+00  0.32886700004E+03  0.32994217161E+03  0.00000000000E+00 0. -1.
         -5    1    3    3    0  503 -0.66001680978E+02  0.46625318950E+02  0.78318202802E+02  0.11263202542E+03  0.47000000000E+01 0.  1.
         11    1    4    4    0    0 -0.14405683044E+02  0.32244003554E+02  0.45843080880E+02  0.57868709453E+02  0.00000000000E+00 0. -1.
        -12    1    4    4    0    0  0.67487793273E+02  0.59329519427E+02  0.25428616376E+03  0.26969621279E+03  0.00000000000E+00 0.  1.
</event>
<event>
12    1  0.8407180E-002  0.1920448E+03  0.7818608E-02  0.1156836E+00
         21   -1    0    0  503  502  0.00000000000E+00  0.00000000000E+00  0.52810544710E+03  0.52810544710E+03  0.00000000000E+00 0.  1.
         21   -1    0    0  501  503 -0.00000000000E+00 -0.00000000000E+00 -0.10427081908E+03  0.10427081908E+03  0.00000000000E+00 0.  1.
          6    2    1    2  501    0  0.25023573482E+01 -0.83109988376E+02  0.29672162218E+02  0.19432352214E+03  0.17311170407E+03 0.  0.
         24    2    3    3    0    0 -0.47856227937E+02 -0.25428063906E+01 -0.71331587361E+01  0.92324602655E+02  0.78589222449E+02 0.  0.
         -6    2    1    2    0  502 -0.25023573482E+01  0.83109988376E+02  0.39416246580E+03  0.43805274405E+03  0.17208319255E+03 0.  0.
        -24    2    5    5    0    0  0.42210425391E+02  0.22848903757E+02  0.12862788494E+03  0.16207931255E+03  0.86143939755E+02 0.  0.
          5    1    3    3  501    0  0.50358585286E+02 -0.80567181985E+02  0.36805320954E+02  0.10199891948E+03  0.47000000000E+01 0. -1.
        -11    1    4    4    0    0 -0.66690754932E+02 -0.14339005686E+02  0.21291503738E+01  0.68248056080E+02  0.00000000000E+00 0.  1.
         12    1    4    4    0    0  0.18834526994E+02  0.11796199295E+02 -0.92623091100E+01  0.24076546575E+02  0.00000000000E+00 0. -1.
         -5    1    5    5    0  502 -0.44712782739E+02  0.60261084619E+02  0.26553458086E+03  0.27597343150E+03  0.47000000000E+01 0.  1.
         11    1    6    6    0    0  0.71769104769E+01  0.52317611823E+02  0.70762257933E+02  0.88294607415E+02  0.00000000000E+00 0. -1.
        -12    1    6    6    0    0  0.35033514914E+02 -0.29468708065E+02  0.57865627006E+02  0.73784705130E+02  0.00000000000E+00 0.  1.
</event>
<event>
12    1  0.8407180E-002  0.2052328E+03  0.7818608E-02  0.1145597E+00
         21   -1    0    0  501  502  0.00000000000E+00  0.00000000000E+00  0.26027944104E+03  0.26027944104E+03  0.00000000000E+00 0. -1.
         21   -1    0    0  502  503 -0.00000000000E+00 -0.00000000000E+00 -0.22526068881E+03  0.22526068881E+03  0.00000000000E+00 0.  1.
         -6    2    1    2    0  503  0.28117785064E+02 -0.10759791318E+03 -0.11206351499E+03  0.23383485475E+03  0.17248938271E+03 0.  0.
        -24    2    3    3    0    0 -0.24489266956E+02 -0.12450082462E+03 -0.81273158811E+02  0.17040500081E+03  0.79576117223E+02 0.  0.
          6    2    1    2  501    0 -0.28117785064E+02  0.10759791318E+03  0.14708226721E+03  0.25170527509E+03  0.17133134980E+03 0.  0.
         24    2    5    5    0    0 -0.50652081059E+02  0.59457664966E+02  0.16162315369E+03  0.19639880735E+03  0.79684380424E+02 0.  0.
          5    1    5    5  501    0  0.22534295995E+02  0.48140248219E+02 -0.14540886475E+02  0.55306467741E+02  0.47000000000E+01 0. -1.
        -13    1    6    6    0    0 -0.40707001733E+01  0.39923449791E+02  0.17683895044E+02  0.43853991688E+02  0.00000000000E+00 0.  1.
         14    1    6    6    0    0 -0.46581380885E+02  0.19534215175E+02  0.14393925864E+03  0.15254481566E+03  0.00000000000E+00 0. -1.
         -5    1    3    3    0  503  0.52607052019E+02  0.16902911434E+02 -0.30790356175E+02  0.63429853937E+02  0.47000000000E+01 0.  1.
         13    1    4    4    0    0  0.21919115616E+02 -0.66042660942E+02 -0.16349684878E+02  0.71480017412E+02  0.00000000000E+00 0. -1.
        -14    1    4    4    0    0 -0.46408382571E+02 -0.58458163677E+02 -0.64923473934E+02  0.98924983401E+02  0.00000000000E+00 0.  1.
</event>
<event>
12    1  0.8407180E-002  0.1752165E+03  0.7818608E-02  0.1172857E+00
         21   -1    0    0  501  502  0.00000000000E+00  0.00000000000E+00  0.66471831888E+03  0.66471831888E+03  0.00000000000E+00 0. -1.
         21   -1    0    0  502  503 -0.00000000000E+00 -0.00000000000E+00 -0.54910300560E+02  0.54910300560E+02  0.00000000000E+00 0. -1.
         -6    2    1    2    0  503  0.30869810588E+02 -0.74426659743E+01  0.15758219624E+03  0.23464509343E+03  0.17093224628E+03 0.  0.
        -24    2    3    3    0    0 -0.23162548850E+01 -0.54082425231E+02  0.40450216130E+02  0.10418984114E+03  0.79303400034E+02 0.  0.
          6    2    1    2  501    0 -0.30869810588E+02  0.74426659743E+01  0.45222582208E+03  0.48498352601E+03  0.17231508309E+03 0.  0.
         24    2    5    5    0    0 -0.67318429809E+02 -0.23197235241E+02  0.39923752389E+03  0.41358916254E+03  0.81212758692E+02 0.  0.
          5    1    5    5  501    0  0.36448619221E+02  0.30639901216E+02  0.52988298186E+02  0.71394363462E+02  0.47000000000E+01 0. -1.
        -11    1    6    6    0    0 -0.76397416319E+02  0.70674338453E+00  0.22817333559E+03  0.24062447045E+03  0.00000000000E+00 0.  1.
         12    1    6    6    0    0  0.90789865103E+01 -0.23903978626E+02  0.17106418831E+03  0.17296469209E+03  0.00000000000E+00 0. -1.
         -5    1    3    3    0  503  0.33186065473E+02  0.46639759257E+02  0.11713198011E+03  0.13045525229E+03  0.47000000000E+01 0.  1.
         13    1    4    4    0    0  0.26046796202E+01 -0.71348725025E+02  0.46546617218E+02  0.85229176302E+02  0.00000000000E+00 0. -1.
        -14    1    4    4    0    0 -0.49209345052E+01  0.17266299794E+02 -0.60964010888E+01  0.18960664841E+02  0.00000000000E+00 0.  1.
</event>
<event>
12    1  0.8407180E-002  0.2334943E+03  0.7818608E-02  0.1124349E+00
         21   -1    0    0  503  502  0.00000000000E+00  0.00000000000E+00  0.25584631116E+04  0.25584631116E+04  0.00000000000E+00 0. -1.
         21   -1    0    0  501  503 -0.00000000000E+00 -0.00000000000E+00 -0.26163669973E+02  0.26163669973E+02  0.00000000000E+00 0. -1.
          6    2    1    2  501    0  0.32274088676E+02  0.15308941352E+03  0.70330358967E+03  0.74078692085E+03  0.17219563736E+03 0.  0.
         24    2    3    3    0    0  0.53922167325E+02  0.35941664823E+02  0.43482165558E+03  0.44702362622E+03  0.80999054593E+02 0.  0.
         -6    2    1    2    0  502 -0.32274088676E+02 -0.15308941352E+03  0.18289958520E+04  0.18438398607E+04  0.17332518625E+03 0.  0.
        -24    2    5    5    0    0 -0.54173245322E+01 -0.19203680583E+02  0.40231593586E+03  0.41063214785E+03  0.79765405055E+02 0.  0.
          5    1    3    3  501    0 -0.21648078649E+02  0.11714774870E+03  0.26848193409E+03  0.29376329462E+03  0.47000000000E+01 0. -1.
        -11    1    4    4    0    0  0.55166432855E+02  0.57760252639E+02  0.30040494692E+03  0.31084194414E+03  0.00000000000E+00 0.  1.
         12    1    4    4    0    0 -0.12442655294E+01 -0.21818587815E+02  0.13441670865E+03  0.13618168209E+03  0.00000000000E+00 0. -1.
         -5    1    5    5    0  502 -0.26856764144E+02 -0.13388573294E+03  0.14266799161E+04  0.14332077129E+04  0.47000000000E+01 0.  1.
         13    1    6    6    0    0  0.12760576026E+02  0.23505303960E+02  0.24931194483E+03  0.25074245242E+03  0.00000000000E+00 0. -1.
        -14    1    6    6    0    0 -0.18177900558E+02 -0.42708984543E+02  0.15300399104E+03  0.15988969542E+03  0.00000000000E+00 0.  1.
</event>
<event>
12    1  0.8407180E-002  0.3015584E+03  0.7818608E-02  0.1084535E+00
         21   -1    0    0  503  502  0.00000000000E+00  0.00000000000E+00  0.26087798026E+03  0.26087798026E+03  0.00000000000E+00 0. -1.
         21   -1    0    0  501  503 -0.00000000000E+00 -0.00000000000E+00 -0.35784990722E+03  0.35784990722E+03  0.00000000000E+00 0.  1.
          6    2    1    2  501    0  0.23698597190E+03 -0.72011199866E+02  0.30929007680E+01  0.30100089147E+03  0.17100879173E+03 0.  0.
         24    2    3    3    0    0  0.94808307747E+02 -0.94146335686E+02  0.17220355685E+02  0.15634223323E+03  0.79336029018E+02 0.  0.
         -6    2    1    2    0  502 -0.23698597190E+03  0.72011199866E+02 -0.10006482773E+03  0.31772699601E+03  0.17201601803E+03 0.  0.
        -24    2    5    5    0    0 -0.52499396081E+02  0.37467606387E+02  0.24968660134E+01  0.10378880976E+03  0.81276531515E+02 0.  0.
          5    1    3    3  501    0  0.14217766416E+03  0.22135135820E+02 -0.14127454917E+02  0.14465865824E+03  0.47000000000E+01 0. -1.
        -13    1    4    4    0    0  0.99707885030E+02 -0.90312825860E+02 -0.36356346331E+01  0.13457818059E+03  0.00000000000E+00 0.  1.
         14    1    4    4    0    0 -0.48995772821E+01 -0.38335098253E+01  0.20855990318E+02  0.21764052639E+02  0.00000000000E+00 0. -1.
         -5    1    5    5    0  502 -0.18448657582E+03  0.34543593479E+02 -0.10256169374E+03  0.21393818624E+03  0.47000000000E+01 0.  1.
         13    1    6    6    0    0 -0.77423318146E+01  0.55814498326E+00 -0.34248838948E+02  0.35117491326E+02  0.00000000000E+00 0. -1.
        -14    1    6    6    0    0 -0.44757064267E+02  0.36909461404E+02  0.36745704962E+02  0.68671318438E+02  0.00000000000E+00 0.  1.
</event>
<event>
12    1  0.8407180E-002  0.1952813E+03  0.7818608E-02  0.1154025E+00
         21   -1    0    0  501  502  0.00000000000E+00  0.00000000000E+00  0.13371275043E+03  0.13371275043E+03  0.00000000000E+00 0. -1.
         21   -1    0    0  502  503 -0.00000000000E+00 -0.00000000000E+00 -0.44491086590E+03  0.44491086590E+03  0.00000000000E+00 0. -1.
         -6    2    1    2    0  503  0.23273007224E+02  0.87650544289E+02 -0.33009710135E+03  0.38353469877E+03  0.17294657574E+03 0.  0.
        -24    2    3    3    0    0 -0.17628085871E+02  0.53955716850E+02 -0.31224245449E+03  0.32741768506E+03  0.80529630043E+02 0.  0.
          6    2    1    2  501    0 -0.23273007224E+02 -0.87650544289E+02  0.18898985881E+02  0.19508891757E+03  0.17169235077E+03 0.  0.
         24    2    5    5    0    0  0.51272743513E+02 -0.33767561641E+02  0.21116842232E+02  0.10296154021E+03  0.79912547766E+02 0.  0.
          5    1    5    5  501    0 -0.74545750736E+02 -0.53882982648E+02 -0.22178563510E+01  0.92127377357E+02  0.47000000000E+01 0. -1.
        -11    1    6    6    0    0  0.41432523748E+01 -0.46501357870E+02 -0.60765154528E+01  0.47079367710E+02  0.00000000000E+00 0.  1.
         12    1    6    6    0    0  0.47129491138E+02  0.12733796229E+02  0.27193357685E+02  0.55882172502E+02  0.00000000000E+00 0. -1.
         -5    1    3    3    0  503  0.40901093095E+02  0.33694827438E+02 -0.17854646862E+02  0.56117013703E+02  0.47000000000E+01 0.  1.
         11    1    4    4    0    0 -0.47003309538E+02  0.47314881157E+02 -0.18484063133E+03  0.19650462610E+03  0.00000000000E+00 0. -1.
        -12    1    4    4    0    0  0.29375223667E+02  0.66408356928E+01 -0.12740182316E+03  0.13091305897E+03  0.00000000000E+00 0.  1.
</event>
<event>
12    1  0.8407180E-002  0.3012392E+03  0.7818608E-02  0.1084677E+00
         21   -1    0    0  501  502  0.00000000000E+00  0.00000000000E+00  0.15408222582E+03  0.15408222582E+03  0.00000000000E+00 0.  1.
         21   -1    0    0  502  503 -0.00000000000E+00 -0.00000000000E+00 -0.83516446258E+03  0.83516446258E+03  0.00000000000E+00 0. -1.
         -6    2    1    2    0  503 -0.10288710012E+03  0.22461532598E+03 -0.60939994368E+03  0.67959618901E+03  0.17159513025E+03 0.  0.
        -24    2    3    3    0    0 -0.11123476796E+03  0.11785674888E+03 -0.45686670632E+03  0.49316776885E+03  0.90685577869E+02 0.  0.
          6    2    1    2  501    0  0.10288710012E+03 -0.22461532598E+03 -0.71682293080E+02  0.30965049939E+03  0.17235800125E+03 0.  0.
         24    2    5    5    0    0  0.52282779926E+02 -0.17181801815E+03  0.12796123358E+02  0.19781559527E+03  0.81928923589E+02 0.  0.
          5    1    5    5  501    0  0.50604320189E+02 -0.52797307824E+02 -0.84478416438E+02  0.11183490412E+03  0.47000000000E+01 0. -1.
        -11    1    6    6    0    0  0.12969501416E+02 -0.11676489759E+03 -0.25301543496E+02  0.12017660912E+03  0.00000000000E+00 0.  1.
         12    1    6    6    0    0  0.39313278511E+02 -0.55053120566E+02  0.38097666854E+02  0.77638986154E+02  0.00000000000E+00 0. -1.
         -5    1    3    3    0  503  0.83476678459E+01  0.10675857710E+03 -0.15253323736E+03  0.18642842016E+03  0.47000000000E+01 0.  1.
         11    1    4    4    0    0  0.92510370633E+01  0.27169654438E+02 -0.13088580666E+03  0.13399576932E+03  0.00000000000E+00 0. -1.
        -12    1    4    4    0    0 -0.12048580502E+03  0.90687094442E+02 -0.32598089966E+03  0.35917199954E+03  0.00000000000E+00 0.  1.
</event>
<event>
12    1  0.8407180E-002  0.1868035E+03  0.7818608E-02  0.1162112E+00
         21   -1    0    0  501  502  0.00000000000E+00  0.00000000000E+00  0.29002761711E+03  0.29002761711E+03  0.00000000000E+00 0.  1.
         21   -1    0    0  502  503 -0.00000000000E+00 -0.00000000000E+00 -0.13989775964E+03  0.13989775964E+03  0.00000000000E+00 0. -1.
         -6    2    1    2    0  503 -0.56944073053E+02 -0.29871253773E+02 -0.99565005696E+01  0.18391075813E+03  0.17201487085E+03 0.  0.
        -24    2    3    3    0    0  0.32038651236E+02  0.49921729670E+01 -0.39794364032E+01  0.88040016801E+02  0.81754582014E+02 0.  0.
          6    2    1    2  501    0  0.56944073053E+02  0.29871253773E+02  0.16008635804E+03  0.24601461862E+03  0.17538708985E+03 0.  0.
         24    2    5    5    0    0  0.82221268161E+02  0.72740813498E+02  0.12891813541E+03  0.18710550349E+03  0.79605407554E+02 0.  0.
          5    1    5    5  501    0 -0.25277195108E+02 -0.42869559724E+02  0.31168222635E+02  0.58909115133E+02  0.47000000000E+01 0. -1.
        -13    1    6    6    0    0  0.39371315788E+02  0.64851531720E+02  0.34955562274E+02  0.83532706213E+02  0.00000000000E+00 0.  1.
         14    1    6    6    0    0  0.42849952373E+02  0.78892817771E+01  0.93962573133E+02  0.10357279727E+03  0.00000000000E+00 0. -1.
         -5    1    3    3    0  503 -0.88982724289E+02 -0.34863426740E+02 -0.59770641664E+01  0.95870741324E+02  0.47000000000E+01 0.  1.
         11    1    4    4    0    0 -0.69053755478E+01  0.20580868756E+02 -0.31218176346E+02  0.38024083218E+02  0.00000000000E+00 0. -1.
        -12    1    4    4    0    0  0.38944026784E+02 -0.15588695789E+02  0.27238739943E+02  0.50015933583E+02  0.00000000000E+00 0.  1.
</event>
<event>
12    1  0.8407180E-002  0.2069504E+03  0.7818608E-02  0.1144144E+00
         21   -1    0    0  501  502  0.00000000000E+00  0.00000000000E+00  0.34220686139E+03  0.34220686139E+03  0.00000000000E+00 0.  1.
         21   -1    0    0  502  503 -0.00000000000E+00 -0.00000000000E+00 -0.12804622657E+03  0.12804622657E+03  0.00000000000E+00 0. -1.
         -6    2    1    2    0  503 -0.24309387912E+02 -0.11183558840E+03  0.69448214430E+02  0.21829233065E+03  0.17242488788E+03 0.  0.
        -24    2    3    3    0    0  0.68016932656E+01 -0.67429717664E+02 -0.26852398236E+02  0.10767732838E+03  0.79248507247E+02 0.  0.
          6    2    1    2  501    0  0.24309387912E+02  0.11183558840E+03  0.14471242039E+03  0.25196075730E+03  0.17159368703E+03 0.  0.
         24    2    5    5    0    0  0.53415263740E+02  0.13024231967E+03  0.14386393889E+03  0.21719339208E+03  0.81608114897E+02 0.  0.
          5    1    5    5  501    0 -0.29105875828E+02 -0.18406731264E+02  0.84848150326E+00  0.34767365221E+02  0.47000000000E+01 0. -1.
        -13    1    6    6    0    0  0.27874614830E+02  0.88854425913E+02  0.14034712114E+03  0.16843223435E+03  0.00000000000E+00 0.  1.
         14    1    6    6    0    0  0.25540648910E+02  0.41387893753E+02  0.35168177542E+01  0.48761157730E+02  0.00000000000E+00 0. -1.
         -5    1    3    3    0  503 -0.31111081177E+02 -0.44405870739E+02  0.96300612666E+02  0.11061500227E+03  0.47000000000E+01 0.  1.
         13    1    4    4    0    0 -0.50449521619E+01  0.16912533066E+02  0.19789789004E+01  0.17759551642E+02  0.00000000000E+00 0. -1.
        -14    1    4    4    0    0  0.11846645428E+02 -0.84342250730E+02 -0.28831377137E+02  0.89917776739E+02  0.00000000000E+00 0.  1.
</event>
<event>
12    1  0.8407180E-002  0.2469462E+03  0.7818608E-02  0.1115298E+00
         21   -1    0    0  501  502  0.00000000000E+00  0.00000000000E+00  0.11728734812E+04  0.11728734812E+04  0.00000000000E+00 0.  1.
         21   -1    0    0  502  503 -0.00000000000E+00 -0.00000000000E+00 -0.71309348270E+02  0.71309348270E+02  0.00000000000E+00 0.  1.
         -6    2    1    2    0  503  0.17661134782E+03 -0.11539052836E+02  0.22673124346E+03  0.33524542502E+03  0.17221416990E+03 0.  0.
        -24    2    3    3    0    0  0.11300005277E+03 -0.18280746024E+02  0.23378876450E+03  0.27071833080E+03  0.74350727143E+02 0.  0.
          6    2    1    2  501    0 -0.17661134782E+03  0.11539052836E+02  0.87483288950E+03  0.90893740449E+03  0.17178446613E+03 0.  0.
         24    2    5    5    0    0 -0.37076773482E+02 -0.36763486833E+02  0.41315315651E+03  0.42419695989E+03  0.80754498018E+02 0.  0.
          5    1    5    5  501    0 -0.13953457433E+03  0.48302539669E+02  0.46167973299E+03  0.48474044459E+03  0.47000000000E+01 0. -1.
        -13    1    6    6    0    0 -0.59969097316E+02 -0.12634182753E+02  0.22870657820E+03  0.23677545083E+03  0.00000000000E+00 0.  1.
         14    1    6    6    0    0  0.22892323833E+02 -0.24129304080E+02  0.18444657832E+03  0.18742150906E+03  0.00000000000E+00 0. -1.
         -5    1    3    3    0  503  0.63611295046E+02  0.67416931875E+01 -0.70575210342E+01  0.64527094213E+02  0.47000000000E+01 0.  1.
         13    1    4    4    0    0  0.13137431750E+02 -0.29157141106E+02  0.31643230113E+02  0.44989165389E+02  0.00000000000E+00 0. -1.
        -14    1    4    4    0    0  0.99862621020E+02  0.10876395082E+02  0.20214553439E+03  0.22572916542E+03  0.00000000000E+00 0.  1.
</event>
<event>
12    1  0.8407180E-002  0.2112500E+03  0.7818608E-02  0.1141096E+00
         21   -1    0    0  501  502  0.00000000000E+00  0.00000000000E+00  0.21090987934E+03  0.21090987934E+03  0.00000000000E+00 0. -1.
         21   -1    0    0  502  503 -0.00000000000E+00 -0.00000000000E+00 -0.21096914713E+03  0.21096914713E+03  0.00000000000E+00 0. -1.
         -6    2    1    2    0  503  0.49938358025E+02 -0.10781115373E+03  0.20428502915E+02  0.20963789809E+03  0.17150405275E+03 0.  0.
        -24    2    3    3    0    0  0.69830893485E+02 -0.17737868848E+02  0.41595723846E+02  0.11488004427E+03  0.79222690273E+02 0.  0.
          6    2    1    2  501    0 -0.49938358025E+02  0.10781115373E+03 -0.20487770709E+02  0.21224112838E+03  0.17466958338E+03 0.  0.
         24    2    5    5    0    0  0.11129824516E+02  0.83742318796E+02  0.39715279128E+02  0.12304959883E+03  0.80170140486E+02 0.  0.
          5    1    5    5  501    0 -0.61068182541E+02  0.24068834938E+02 -0.60203049837E+02  0.89191529552E+02  0.47000000000E+01 0. -1.
        -11    1    6    6    0    0  0.30354481885E+02  0.78599317327E+01  0.31324295120E+02  0.44321378162E+02  0.00000000000E+00 0.  1.
         12    1    6    6    0    0 -0.19224657369E+02  0.75882387064E+02  0.83909840077E+01  0.78728220671E+02  0.00000000000E+00 0. -1.
         -5    1    3    3    0  503 -0.19892535460E+02 -0.90073284886E+02 -0.21167220931E+02  0.94757853812E+02  0.47000000000E+01 0.  1.
         11    1    4    4    0    0  0.29042197062E+01 -0.20569068956E+02 -0.16250049531E+02  0.26373949260E+02  0.00000000000E+00 0. -1.
        -12    1    4    4    0    0  0.66926673779E+02  0.28312001084E+01  0.57845773377E+02  0.88506095014E+02  0.00000000000E+00 0.  1.
</event>
<event>
12    1  0.8407180E-002  0.3257967E+03  0.7818608E-02  0.1073853E+00
         21   -1    0    0  503  502  0.00000000000E+00  0.00000000000E+00  0.16680134022E+03  0.16680134022E+03  0.00000000000E+00 0. -1.
         21   -1    0    0  501  503 -0.00000000000E+00 -0.00000000000E+00 -0.67554713797E+03  0.67554713797E+03  0.00000000000E+00 0. -1.
          6    2    1    2  501    0 -0.19408188223E+03 -0.18366647830E+03 -0.13849190932E+03  0.35401055486E+03  0.18639289617E+03 0.  0.
         24    2    3    3    0    0 -0.18695166950E+03 -0.94781180222E+02 -0.14024686769E+03  0.26469870779E+03  0.80385466085E+02 0.  0.
         -6    2    1    2    0  502  0.19408188223E+03  0.18366647830E+03 -0.37025388843E+03  0.48833792333E+03  0.17316129245E+03 0.  0.
        -24    2    5    5    0    0  0.21845324232E+03  0.15410171392E+03 -0.33460721007E+03  0.43579447309E+03  0.80533722338E+02 0.  0.
          5    1    3    3  501    0 -0.71302127358E+01 -0.88885298075E+02  0.17549583639E+01  0.89311847066E+02  0.47000000000E+01 0. -1.
        -11    1    4    4    0    0 -0.83091203718E+02 -0.20435468129E+02 -0.98151961453E+02  0.13021353244E+03  0.00000000000E+00 0.  1.
         12    1    4    4    0    0 -0.10386046578E+03 -0.74345712094E+02 -0.42094906233E+02  0.13448517535E+03  0.00000000000E+00 0. -1.
         -5    1    5    5    0  502 -0.24371360081E+02  0.29564764382E+02 -0.35646678366E+02  0.52543450245E+02  0.47000000000E+01 0.  1.
         11    1    6    6    0    0  0.95646563106E+02  0.82577236287E+02 -0.98507126085E+02  0.16022146821E+03  0.00000000000E+00 0. -1.
        -12    1    6    6    0    0  0.12280667921E+03  0.71524477629E+02 -0.23610008398E+03  0.27557300487E+03  0.00000000000E+00 0.  1.
</event>
<event>
12    1  0.8407180E-002  0.1885708E+03  0.7818608E-02  0.1160272E+00
         21   -1    0    0  503  502  0.00000000000E+00  0.00000000000E+00  0.17554061019E+02  0.17554061019E+02  0.00000000000E+00 0. -1.
         21   -1    0    0  501  503 -0.00000000000E+00 -0.00000000000E+00 -0.28637914259E+04  0.28637914259E+04  0.00000000000E+00 0. -1.
          6    2    1    2  501    0  0.68543257452E+02  0.33694555975E+02 -0.22076334976E+04  0.22154822575E+04  0.16994843983E+03 0.  0.
         24    2    3    3    0    0  0.80948912550E+02  0.50695176196E+02 -0.21551584342E+04  0.21587491662E+04  0.79795731251E+02 0.  0.
         -6    2    1    2    0  502 -0.68543257452E+02 -0.33694555975E+02 -0.63860386725E+03  0.66586322941E+03  0.17241067188E+03 0.  0.
        -24    2    5    5    0    0 -0.81598725811E+02  0.22177841391E+01 -0.60153301444E+03  0.61241718602E+03  0.80929423896E+02 0.  0.
          5    1    3    3  501    0 -0.12405655097E+02 -0.17000620221E+02 -0.52475063362E+02  0.56733091235E+02  0.47000000000E+01 0. -1.
        -13    1    4    4    0    0 -0.25487679680E+01 -0.10385817710E+02 -0.62779389038E+03  0.62788496576E+03  0.00000000000E+00 0.  1.
         14    1    4    4    0    0  0.83497680518E+02  0.61080993905E+02 -0.15273645439E+04  0.15308642005E+04  0.00000000000E+00 0. -1.
         -5    1    5    5    0  502  0.13055468359E+02 -0.35912340114E+02 -0.37070852812E+02  0.53446043396E+02  0.47000000000E+01 0.  1.
         13    1    6    6    0    0 -0.31030829125E+01 -0.73513975208E+01 -0.27573040225E+01  0.84424460048E+01  0.00000000000E+00 0. -1.
        -14    1    6    6    0    0 -0.78495642899E+02  0.95691816599E+01 -0.59877571041E+03  0.60397474001E+03  0.00000000000E+00 0.  1.
</event>
<event>
12    1  0.8407180E-002  0.2144629E+03  0.7818608E-02  0.1138176E+00
         21   -1    0    0  501  502  0.00000000000E+00  0.00000000000E+00  0.13974933454E+04  0.13974933454E+04  0.00000000000E+00 0. -1.
         21   -1    0    0  502  503 -0.00000000000E+00 -0.00000000000E+00 -0.10108029391E+03  0.10108029391E+03  0.00000000000E+00 0. -1.
         -6    2    1    2    0  503  0.30379540261E+02 -0.12381871796E+03  0.32290570192E+02  0.21638801906E+03  0.17183452065E+03 0.  0.
        -24    2    3    3    0    0  0.17384454783E+02  0.88001861630E+01  0.12315164670E+02  0.81563122242E+02  0.78238207319E+02 0.  0.
          6    2    1    2  501    0 -0.30379540261E+02  0.12381871796E+03  0.12641224813E+04  0.12821856203E+04  0.17245383636E+03 0.  0.
         24    2    5    5    0    0 -0.34264700910E+02  0.15759600651E+03  0.10753943194E+04  0.10903617198E+04  0.80032285909E+02 0.  0.
          5    1    5    5  501    0  0.38851606490E+01 -0.33777288553E+02  0.18872816189E+03  0.19182390045E+03  0.47000000000E+01 0. -1.
        -13    1    6    6    0    0 -0.44229605266E+01 -0.85292483286E+01  0.10110889292E+03  0.10156435833E+03  0.00000000000E+00 0.  1.
         14    1    6    6    0    0 -0.29841740384E+02  0.16612525484E+03  0.97428542652E+03  0.98879736149E+03  0.00000000000E+00 0. -1.
         -5    1    3    3    0  503  0.12995085479E+02 -0.13261890412E+03  0.19975405522E+02  0.13482489682E+03  0.47000000000E+01 0.  1.
         13    1    4    4    0    0 -0.31138136449E+02 -0.17405101143E+00  0.23970497046E+01  0.31230748991E+02  0.00000000000E+00 0. -1.
        -14    1    4    4    0    0  0.48522591231E+02  0.89742371744E+01  0.99181149657E+01  0.50332373251E+02  0.00000000000E+00 0.  1.
</event>
<event>
12    1  0.8407180E-002  0.1989601E+03  0.7818608E-02  0.1150774E+00
         21   -1    0    0  503  502  0.00000000000E+00  0.00000000000E+00  0.14704758664E+03  0.14704758664E+03  0.00000000000E+00 0. -1.
         21   -1    0    0  501  503 -0.00000000000E+00 -0.00000000000E+00 -0.47339414426E+03  0.47339414426E+03  0.00000000000E+00 0. -1.
          6    2    1    2  501    0  0.64642280003E+02  0.74410365191E+02 -0.36723693963E+03  0.41732320139E+03  0.17198883040E+03 0.  0.
         24    2    3    3    0    0  0.10608492912E+03  0.46966828889E+02 -0.21321569856E+03  0.25541188755E+03  0.79463217820E+02 0.  0.
         -6    2    1    2    0  502 -0.64642280003E+02 -0.74410365191E+02  0.40890382006E+02  0.20311852951E+03  0.17282820047E+03 0.  0.
        -24    2    5    5    0    0 -0.49297591529E+02 -0.49730490961E+02  0.96182057949E+02  0.14047816645E+03  0.74697742367E+02 0.  0.
          5    1    3    3  501    0 -0.41442649120E+02  0.27443536302E+02 -0.15402124107E+03  0.16191131385E+03  0.47000000000E+01 0. -1.
        -11    1    4    4    0    0  0.83253218376E+00  0.34490369488E+02 -0.57214483060E+02  0.66811494289E+02  0.00000000000E+00 0.  1.
         12    1    4    4    0    0  0.10525239694E+03  0.12476459401E+02 -0.15600121549E+03  0.18860039326E+03  0.00000000000E+00 0. -1.
         -5    1    5    5    0  502 -0.15344688474E+02 -0.24679874230E+02 -0.55291675943E+02  0.62640363066E+02  0.47000000000E+01 0.  1.
         13    1    6    6    0    0 -0.36508974043E+01 -0.26318955702E+02  0.83510960320E+02  0.87636162482E+02  0.00000000000E+00 0. -1.
        -14    1    6    6    0    0 -0.45646694125E+02 -0.23411535259E+02  0.12671097629E+02  0.52842003963E+02  0.00000000000E+00 0.  1.
</event>
<event>
12    1  0.8407180E-002  0.1825221E+03  0.7818608E-02  0.1165717E+00
         21   -1    0    0  503  502  0.00000000000E+00  0.00000000000E+00  0.76202198162E+02  0.76202198162E+02  0.00000000000E+00 0.  1.
         21   -1    0    0  501  503 -0.00000000000E+00 -0.00000000000E+00 -0.58503504223E+03  0.58503504223E+03  0.00000000000E+00 0.  1.
          6    2    1    2  501    0 -0.54954753318E+02 -0.24150491108E+02 -0.42176448271E+03  0.45901160104E+03  0.17088914503E+03 0.  0.
         24    2    3    3    0    0 -0.19008144926E+02 -0.58287022721E+02 -0.19034707758E+03  0.22229749745E+03  0.97084915605E+02 0.  0.
         -6    2    1    2    0  502  0.54954753318E+02  0.24150491108E+02 -0.87068361357E+02  0.20222563934E+03  0.17236890243E+03 0.  0.
        -24    2    5    5    0    0  0.40288447748E+02  0.54842182300E+02 -0.11626917840E+03  0.15714950216E+03  0.80911187112E+02 0.  0.
          5    1    3    3  501    0 -0.35946608393E+02  0.34136531612E+02 -0.23141740512E+03  0.23671410359E+03  0.47000000000E+01 0. -1.
        -11    1    4    4    0    0 -0.41038783749E+02  0.10085656487E+02 -0.82890602075E+02  0.93041679643E+02  0.00000000000E+00 0.  1.
         12    1    4    4    0    0  0.22030638823E+02 -0.68372679208E+02 -0.10745647551E+03  0.12925581781E+03  0.00000000000E+00 0. -1.
         -5    1    5    5    0  502  0.14666305571E+02 -0.30691691192E+02  0.29200817048E+02  0.45076137186E+02  0.47000000000E+01 0.  1.
         13    1    6    6    0    0  0.93509310242E+01 -0.45739626784E+01 -0.80575825682E+02  0.81245459750E+02  0.00000000000E+00 0. -1.
        -14    1    6    6    0    0  0.30937516723E+02  0.59416144979E+02 -0.35693352722E+02  0.75904042407E+02  0.00000000000E+00 0.  1.
</event>
<event>
12    1  0.8407180E-002  0.2016221E+03  0.7818608E-02  0.1149668E+00
         21   -1    0    0  503  502  0.00000000000E+00  0.00000000000E+00  0.63573504076E+03  0.63573504076E+03  0.00000000000E+00 0. -1.
         21   -1    0    0  501  503 -0.00000000000E+00 -0.00000000000E+00 -0.14873697716E+03  0.14873697716E+03  0.00000000000E+00 0.  1.
          6    2    1    2  501    0 -0.98978017405E+02  0.35208388077E+02 -0.57520487839E+02  0.20382418440E+03  0.16492244573E+03 0.  0.
         24    2    3    3    0    0 -0.99177157540E+02  0.80936016491E+02 -0.50371255068E+02  0.15730260676E+03  0.76289576045E+02 0.  0.
         -6    2    1    2    0  502  0.98978017405E+02 -0.35208388077E+02  0.54451855144E+03  0.58064783351E+03  0.17209060168E+03 0.  0.
        -24    2    5    5    0    0  0.64744745855E+02 -0.70457228024E+02  0.49643303793E+03  0.51173699106E+03  0.79201538954E+02 0.  0.
          5    1    3    3  501    0  0.19914013502E+00 -0.45727628414E+02 -0.71492327714E+01  0.46521577642E+02  0.47000000000E+01 0. -1.
        -11    1    4    4    0    0 -0.92576777356E+02  0.29693172866E+02 -0.36021116719E+02  0.10368059158E+03  0.00000000000E+00 0.  1.
         12    1    4    4    0    0 -0.66003801833E+01  0.51242843625E+02 -0.14350138349E+02  0.53622015180E+02  0.00000000000E+00 0. -1.
         -5    1    5    5    0  502  0.34233271550E+02  0.35248839946E+02  0.48085513503E+02  0.68910842452E+02  0.47000000000E+01 0.  1.
         11    1    6    6    0    0  0.58821097434E+02 -0.19502752783E+02  0.37229912628E+03  0.37742140679E+03  0.00000000000E+00 0. -1.
        -12    1    6    6    0    0  0.59236484209E+01 -0.50954475241E+02  0.12413391165E+03  0.13431558428E+03  0.00000000000E+00 0.  1.
</event>
<event>
12    1  0.8407180E-002  0.1744860E+03  0.7818608E-02  0.1174000E+00
         21   -1    0    0  503  502  0.00000000000E+00  0.00000000000E+00  0.37739979011E+03  0.37739979011E+03  0.00000000000E+00 0.  1.
         21   -1    0    0  501  503 -0.00000000000E+00 -0.00000000000E+00 -0.97368701491E+02  0.97368701491E+02  0.00000000000E+00 0.  1.
          6    2    1    2  501    0  0.20030800464E+02  0.45228568009E+01  0.36815767872E+02  0.17543747877E+03  0.17029744270E+03 0.  0.
         24    2    3    3    0    0  0.84489771301E+01  0.67444094904E+02  0.38781804424E+02  0.11125667061E+03  0.79081775705E+02 0.  0.
         -6    2    1    2    0  502 -0.20030800464E+02 -0.45228568009E+01  0.24321532074E+03  0.29933101283E+03  0.17327340765E+03 0.  0.
        -24    2    5    5    0    0 -0.80942653779E+02 -0.75551723100E+01  0.14583443911E+03  0.18433286102E+03  0.78116107126E+02 0.  0.
          5    1    3    3  501    0  0.11581823334E+02 -0.62921238103E+02 -0.19660365519E+01  0.64180808159E+02  0.47000000000E+01 0. -1.
        -11    1    4    4    0    0 -0.63878166383E+01  0.11131571879E+01 -0.20230041481E+02  0.21243773173E+02  0.00000000000E+00 0.  1.
         12    1    4    4    0    0  0.14836793768E+02  0.66330937716E+02  0.59011845905E+02  0.90012897436E+02  0.00000000000E+00 0. -1.
         -5    1    5    5    0  502  0.60911853316E+02  0.30323155091E+01  0.97380881638E+02  0.11499815181E+03  0.47000000000E+01 0.  1.
         13    1    6    6    0    0 -0.30750882816E+02  0.35007788846E+02  0.53500822926E+02  0.70947164338E+02  0.00000000000E+00 0. -1.
        -14    1    6    6    0    0 -0.50191770964E+02 -0.42562961156E+02  0.92333616180E+02  0.11338569668E+03  0.00000000000E+00 0.  1.
</event>
<event>
12    1  0.8407180E-002  0.1803637E+03  0.7818608E-02  0.1167577E+00
         21   -1    0    0  503  502  0.00000000000E+00  0.00000000000E+00  0.17836740784E+03  0.17836740784E+03  0.00000000000E+00 0.  1.
         21   -1    0    0  501  503 -0.00000000000E+00 -0.00000000000E+00 -0.83093792466E+03  0.83093792466E+03  0.00000000000E+00 0.  1.
          6    2    1    2  501    0 -0.56573347301E+02  0.63108850145E+01 -0.77241095320E+03  0.79318960311E+03  0.17114524520E+03 0.  0.
         24    2    3    3    0    0 -0.65149288792E+02 -0.19934959926E+02 -0.26903956629E+03  0.28903959139E+03  0.80745059948E+02 0.  0.
         -6    2    1    2    0  502  0.56573347301E+02 -0.63108850145E+01  0.11984043638E+03  0.21611572939E+03  0.17059867351E+03 0.  0.
        -24    2    5    5    0    0  0.11495571595E+02  0.59146016785E+02  0.57405897370E+02  0.11493878776E+03  0.79278549506E+02 0.  0.
          5    1    3    3  501    0  0.85759414911E+01  0.26245844940E+02 -0.50337138691E+03  0.50415001171E+03  0.47000000000E+01 0. -1.
        -11    1    4    4    0    0  0.72201411489E+00 -0.37276912743E+02 -0.10483328606E+03  0.11126593097E+03  0.00000000000E+00 0.  1.
         12    1    4    4    0    0 -0.65871302907E+02  0.17341952817E+02 -0.16420628023E+03  0.17777366043E+03  0.00000000000E+00 0. -1.
         -5    1    5    5    0  502  0.45077775706E+02 -0.65456901800E+02  0.62434539013E+02  0.10117694163E+03  0.47000000000E+01 0.  1.
         11    1    6    6    0    0  0.11388853682E+02  0.37075289383E+02 -0.13195195541E+02  0.40968234724E+02  0.00000000000E+00 0. -1.
        -12    1    6    6    0    0  0.10671791239E+00  0.22070727402E+02  0.70601092910E+02  0.73970553039E+02  0.00000000000E+00 0.  1.
</event>
<event>
12    1  0.8407180E-002  0.2096487E+03  0.7818608E-02  0.1141963E+00
         21   -1    0    0  501  502  0.00000000000E+00  0.00000000000E+00  0.89606303335E+02  0.89606303335E+02  0.00000000000E+00 0.  1.
         21   -1    0    0  502  503 -0.00000000000E+00 -0.00000000000E+00 -0.88522531942E+03  0.88522531942E+03  0.00000000000E+00 0. -1.
         -6    2    1    2    0  503  0.91807629780E+02  0.77572724248E+02 -0.72074792079E+02  0.22169197784E+03  0.17177423833E+03 0.  0.
        -24    2    3    3    0    0  0.78552814387E+02  0.22041740506E+01 -0.88512834451E+02  0.14328019475E+03  0.80742116113E+02 0.  0.
          6    2    1    2  501    0 -0.91807629780E+02 -0.77572724248E+02 -0.72354422401E+03  0.75313964491E+03  0.17104652062E+03 0.  0.
         24    2    5    5    0    0 -0.44127768722E+02 -0.52454924216E+02 -0.66608435678E+03  0.67422197027E+03  0.78791597308E+02 0.  0.
          5    1    5    5  501    0 -0.47679861058E+02 -0.25117800032E+02 -0.57459867227E+02  0.78917674641E+02  0.47000000000E+01 0. -1.
        -11    1    6    6    0    0 -0.14756222975E+02 -0.68459032199E+02 -0.40600878563E+03  0.41200427087E+03  0.00000000000E+00 0.  1.
         12    1    6    6    0    0 -0.29371545747E+02  0.16004107983E+02 -0.26007557115E+03  0.26221769940E+03  0.00000000000E+00 0. -1.
         -5    1    3    3    0  503  0.13254815393E+02  0.75368550198E+02  0.16438042372E+02  0.78411783088E+02  0.47000000000E+01 0.  1.
         13    1    4    4    0    0  0.77690403012E+01  0.13462339460E+02 -0.66514956151E+02  0.68306895426E+02  0.00000000000E+00 0. -1.
        -14    1    4    4    0    0  0.70783774085E+02 -0.11258165410E+02 -0.21997878300E+02  0.74973299326E+02  0.00000000000E+00 0.  1.
</event>
<event>
12    1  0.8407180E-002  0.2444112E+03  0.7818608E-02  0.1117468E+00
         21   -1    0    0  501  502  0.00000000000E+00  0.00000000000E+00  0.22315714181E+03  0.22315714181E+03  0.00000000000E+00 0.  1.
         21   -1    0    0  502  503 -0.00000000000E+00 -0.00000000000E+00 -0.28990328039E+03  0.28990328039E+03  0.00000000000E+00 0.  1.
         -6    2    1    2    0  503  0.30495583700E+02 -0.16951907838E+03 -0.11052491550E+03  0.26823977478E+03  0.17340738527E+03 0.  0.
        -24    2    3    3    0    0  0.84537377141E+02 -0.11797441545E+03 -0.51649789318E+02  0.17302560463E+03  0.78775810273E+02 0.  0.
          6    2    1    2  501    0 -0.30495583700E+02  0.16951907838E+03  0.43778776924E+02  0.24482064742E+03  0.16838607286E+03 0.  0.
         24    2    5    5    0    0 -0.14405799167E+02  0.15952109100E+03  0.85394132358E+02  0.19885578338E+03  0.81221667182E+02 0.  0.
          5    1    5    5  501    0 -0.16089784533E+02  0.99979873785E+01 -0.41615355434E+02  0.45964864036E+02  0.47000000000E+01 0. -1.
        -11    1    6    6    0    0 -0.98921848194E+01  0.21525111444E+02 -0.15094074706E+02  0.28089443469E+02  0.00000000000E+00 0.  1.
         12    1    6    6    0    0 -0.45136143473E+01  0.13799597956E+03  0.10048820706E+03  0.17076633991E+03  0.00000000000E+00 0. -1.
         -5    1    3    3    0  503 -0.54041793441E+02 -0.51544662926E+02 -0.58875126185E+02  0.95214170152E+02  0.47000000000E+01 0.  1.
         11    1    4    4    0    0  0.52256305320E+02 -0.54738285266E+02  0.13256704994E+02  0.76829301357E+02  0.00000000000E+00 0. -1.
        -12    1    4    4    0    0  0.32281071821E+02 -0.63236130187E+02 -0.64906494311E+02  0.96196303270E+02  0.00000000000E+00 0.  1.
</event>
<event>
12    1  0.8407180E-002  0.2702539E+03  0.7818608E-02  0.1101194E+00
         21   -1    0    0  503  502  0.00000000000E+00  0.00000000000E+00  0.11766992987E+03  0.11766992987E+03  0.00000000000E+00 0.  1.
         21   -1    0    0  501  503 -0.00000000000E+00 -0.00000000000E+00 -0.12508869137E+04  0.12508869137E+04  0.00000000000E+00 0. -1.
          6    2    1    2  501    0  0.16452180445E+03  0.12823556773E+03 -0.10524518005E+04  0.10864926906E+04  0.17117181276E+03 0.  0.
         24    2    3    3    0    0  0.18752620659E+03  0.12832988341E+03 -0.10074392377E+04  0.10357242730E+04  0.78462188592E+02 0.  0.
         -6    2    1    2    0  502 -0.16452180445E+03 -0.12823556773E+03 -0.80765183310E+02  0.28206415290E+03  0.17182952757E+03 0.  0.
        -24    2    5    5    0    0 -0.17135264787E+02 -0.60332451384E+02  0.19919844514E+00  0.10065040922E+03  0.78720030530E+02 0.  0.
          5    1    3    3  501    0 -0.23004402144E+02 -0.94315681227E-01 -0.45012562828E+02  0.50768417602E+02  0.47000000000E+01 0. -1.
        -11    1    4    4    0    0  0.11721247090E+03  0.12249891939E+03 -0.73443069178E+03  0.75374610421E+03  0.00000000000E+00 0.  1.
         12    1    4    4    0    0  0.70313735691E+02  0.58309640178E+01 -0.27300854589E+03  0.28197816883E+03  0.00000000000E+00 0. -1.
         -5    1    5    5    0  502 -0.14738653966E+03 -0.67903116343E+02 -0.80964381755E+02  0.18141374368E+03  0.47000000000E+01 0.  1.
         13    1    6    6    0    0 -0.18337472514E+02  0.54603931038E+01 -0.23862026653E+02  0.30585537547E+02  0.00000000000E+00 0. -1.
        -14    1    6    6    0    0  0.12022077262E+01 -0.65792844488E+02  0.24061225099E+02  0.70064871673E+02  0.00000000000E+00 0.  1.
</event>
<event>
12    1  0.8407180E-002  0.2896399E+03  0.7818608E-02  0.1090606E+00
         21   -1    0    0  503  502  0.00000000000E+00  0.00000000000E+00  0.57750436342E+02  0.57750436342E+02  0.00000000000E+00 0. -1.
         21   -1    0    0  501  503 -0.00000000000E+00 -0.00000000000E+00 -0.15488710170E+04  0.15488710170E+04  0.00000000000E+00 0. -1.
          6    2    1    2  501    0 -0.22657209568E+02 -0.23209516226E+03 -0.94785594570E+03  0.99096918883E+03  0.17090209454E+03 0.  0.
         24    2    3    3    0    0  0.28670312470E+02 -0.41220782584E+02 -0.17409957016E+03  0.19235253359E+03  0.64557703758E+02 0.  0.
         -6    2    1    2    0  502  0.22657209568E+02  0.23209516226E+03 -0.54326463501E+03  0.61565226456E+03  0.17178397400E+03 0.  0.
        -24    2    5    5    0    0  0.11623237266E+02  0.24651386897E+03 -0.53709403271E+03  0.59590855720E+03  0.75715396910E+02 0.  0.
          5    1    3    3  501    0 -0.51327522038E+02 -0.19087437967E+03 -0.77375637554E+03  0.79861665524E+03  0.47000000000E+01 0. -1.
        -13    1    4    4    0    0  0.31489068854E+02 -0.43191720446E+02 -0.17874864662E+03  0.18656946385E+03  0.00000000000E+00 0.  1.
         14    1    4    4    0    0 -0.28187563842E+01  0.19709378617E+01  0.46490764644E+01  0.57830697367E+01  0.00000000000E+00 0. -1.
         -5    1    5    5    0  502  0.11033972302E+02 -0.14418706709E+02 -0.61706022983E+01  0.19743707368E+02  0.47000000000E+01 0.  1.
         11    1    6    6    0    0 -0.14970145302E+02  0.10394037457E+03 -0.15507928560E+03  0.18728932575E+03  0.00000000000E+00 0. -1.
        -12    1    6    6    0    0  0.26593382568E+02  0.14257349439E+03 -0.38201474711E+03  0.40861923145E+03  0.00000000000E+00 0.  1.
</event>
<event>
12    1  0.8407180E-002  0.2344973E+03  0.7818608E-02  0.1123727E+00
         21   -1    0    0  503  502  0.00000000000E+00  0.00000000000E+00  0.29411456133E+03  0.29411456133E+03  0.00000000000E+00 0.  1.
         21   -1    0    0  501  503 -0.00000000000E+00 -0.00000000000E+00 -0.22181292789E+03  0.22181292789E+03  0.00000000000E+00 0.  1.
          6    2    1    2  501    0  0.49334163550E+02  0.14911904418E+03 -0.67455784582E+02  0.24400673699E+03  0.17412253098E+03 0.  0.
         24    2    3    3    0    0  0.85135033782E+02  0.15536230857E+03 -0.72254649637E+02  0.20705000871E+03  0.79142597957E+02 0.  0.
         -6    2    1    2    0  502 -0.49334163550E+02 -0.14911904418E+03  0.13975741803E+03  0.27192075223E+03  0.17244828375E+03 0.  0.
        -24    2    5    5    0    0  0.37187613783E+02 -0.11625109983E+03  0.77122095878E+02  0.16006551856E+03  0.69108000458E+02 0.  0.
          5    1    3    3  501    0 -0.35800870233E+02 -0.62432643870E+01  0.47988650550E+01  0.36956728284E+02  0.47000000000E+01 0. -1.
        -11    1    4    4    0    0  0.12498313980E+02  0.66663321141E+02 -0.62092758378E+02  0.91954972029E+02  0.00000000000E+00 0.  1.
         12    1    4    4    0    0  0.72636719803E+02  0.88698987428E+02 -0.10161891259E+02  0.11509503668E+03  0.00000000000E+00 0. -1.
         -5    1    5    5    0  502 -0.86521777333E+02 -0.32867944348E+02  0.62635322151E+02  0.11185523367E+03  0.47000000000E+01 0.  1.
         13    1    6    6    0    0  0.29862301935E+02 -0.17794481729E+02  0.43685294594E+02  0.55828358570E+02  0.00000000000E+00 0. -1.
        -14    1    6    6    0    0  0.73253118477E+01 -0.98456618104E+02  0.33436801284E+02  0.10423715999E+03  0.00000000000E+00 0.  1.
</event>
<event>
12    1  0.8407180E-002  0.2893481E+03  0.7818608E-02  0.1090880E+00
         21   -1    0    0  501  502  0.00000000000E+00  0.00000000000E+00  0.10249607012E+03  0.10249607012E+03  0.00000000000E+00 0. -1.
         21   -1    0    0  502  503 -0.00000000000E+00 -0.00000000000E+00 -0.81366379371E+03  0.81366379371E+03  0.00000000000E+00 0. -1.
         -6    2    1    2    0  503 -0.11283496579E+03 -0.20066608569E+03 -0.33930700389E+03  0.44498821415E+03  0.17287758788E+03 0.  0.
        -24    2    3    3    0    0 -0.14881058287E+03 -0.18586236700E+03 -0.31013210730E+03  0.39613476286E+03  0.63650744915E+02 0.  0.
          6    2    1    2  501    0  0.11283496579E+03  0.20066608569E+03 -0.37186071970E+03  0.47117164968E+03  0.17528183350E+03 0.  0.
         24    2    5    5    0    0  0.10204825453E+03  0.22477216572E+03 -0.35464331257E+03  0.43929712471E+03  0.79206766702E+02 0.  0.
          5    1    5    5  501    0  0.10786711258E+02 -0.24106080026E+02 -0.17217407126E+02  0.31874524971E+02  0.47000000000E+01 0. -1.
        -11    1    6    6    0    0 -0.25518872265E+01  0.81533889587E+02 -0.12186085161E+03  0.14664363073E+03  0.00000000000E+00 0.  1.
         12    1    6    6    0    0  0.10460014176E+03  0.14323827613E+03 -0.23278246096E+03  0.29265349398E+03  0.00000000000E+00 0. -1.
         -5    1    3    3    0  503  0.35975617082E+02 -0.14803718689E+02 -0.29174896592E+02  0.48853451287E+02  0.47000000000E+01 0.  1.
         13    1    4    4    0    0 -0.33946533862E+02 -0.83288259588E+02 -0.14244776540E+03  0.16846562621E+03  0.00000000000E+00 0. -1.
        -14    1    4    4    0    0 -0.11486404901E+03 -0.10257410741E+03 -0.16768434190E+03  0.22766913665E+03  0.00000000000E+00 0.  1.
</event>
<event>
12    1  0.8407180E-002  0.1773889E+03  0.7818608E-02  0.1170540E+00
         21   -1    0    0  503  502  0.00000000000E+00  0.00000000000E+00  0.11412105953E+03  0.11412105953E+03  0.00000000000E+00 0.  1.
         21   -1    0    0  501  503 -0.00000000000E+00 -0.00000000000E+00 -0.33734746934E+03  0.33734746934E+03  0.00000000000E+00 0.  1.
          6    2    1    2  501    0  0.37669976602E+02 -0.20032039908E+02 -0.20918841799E+03  0.27427473565E+03  0.17218166754E+03 0.  0.
         24    2    3    3    0    0  0.77298743167E+02  0.21837129584E+02 -0.17216340658E+03  0.20559862654E+03  0.78604075879E+02 0.  0.
         -6    2    1    2    0  502 -0.37669976602E+02  0.20032039908E+02 -0.14037991827E+02  0.17719379321E+03  0.17140672501E+03 0.  0.
        -24    2    5    5    0    0  0.21061753316E+02 -0.41304320371E+02 -0.41531380477E+01  0.91570399649E+02  0.78855850779E+02 0.  0.
          5    1    3    3  501    0 -0.39628766565E+02 -0.41869169492E+02 -0.37025011402E+02  0.68676109112E+02  0.47000000000E+01 0. -1.
        -13    1    4    4    0    0  0.16856871603E+02 -0.23687511928E+02 -0.86730758370E+02  0.91473913161E+02  0.00000000000E+00 0.  1.
         14    1    4    4    0    0  0.60441871563E+02  0.45524641512E+02 -0.85432648214E+02  0.11412471338E+03  0.00000000000E+00 0. -1.
         -5    1    5    5    0  502 -0.58731729918E+02  0.61336360279E+02 -0.98848537797E+01  0.85623393565E+02  0.47000000000E+01 0.  1.
         11    1    6    6    0    0  0.23224038331E+02 -0.14395671305E+02  0.34757874695E+02  0.44212002466E+02  0.00000000000E+00 0. -1.
        -12    1    6    6    0    0 -0.21622850151E+01 -0.26908649067E+02 -0.38911012743E+02  0.47358397183E+02  0.00000000000E+00 0.  1.
</event>
<event>
12    1  0.8407180E-002  0.1878038E+03  0.7818608E-02  0.1160606E+00
         21   -1    0    0  503  502  0.00000000000E+00  0.00000000000E+00  0.52917990574E+03  0.52917990574E+03  0.00000000000E+00 0. -1.
         21   -1    0    0  501  503 -0.00000000000E+00 -0.00000000000E+00 -0.66501987581E+02  0.66501987581E+02  0.00000000000E+00 0. -1.
          6    2    1    2  501    0 -0.18632814590E+02  0.71620473692E+02  0.22133169594E+03  0.29027223270E+03  0.17260815571E+03 0.  0.
         24    2    3    3    0    0 -0.42642760132E+02  0.29974721295E+02  0.41272073802E+02  0.10384690260E+03  0.79774094763E+02 0.  0.
         -6    2    1    2    0  502  0.18632814590E+02 -0.71620473692E+02  0.24134622222E+03  0.30540966062E+03  0.17190226232E+03 0.  0.
        -24    2    5    5    0    0  0.62308713972E+02 -0.65777605010E+02  0.98650712820E+02  0.15599138295E+03  0.79951730786E+02 0.  0.
          5    1    3    3  501    0  0.24009945542E+02  0.41645752397E+02  0.18005962214E+03  0.18642533010E+03  0.47000000000E+01 0. -1.
        -13    1    4    4    0    0 -0.34837123704E+02  0.55891913490E+02  0.39331110619E+02  0.76710282519E+02  0.00000000000E+00 0.  1.
         14    1    4    4    0    0 -0.78056364280E+01 -0.25917192195E+02  0.19409631825E+01  0.27136620081E+02  0.00000000000E+00 0. -1.
         -5    1    5    5    0  502 -0.43675899382E+02 -0.58428686815E+01  0.14269550940E+03  0.14941827768E+03  0.47000000000E+01 0.  1.
         11    1    6    6    0    0  0.37620723444E+02 -0.15230846943E+01  0.24909284567E+01  0.37733848783E+02  0.00000000000E+00 0. -1.
        -12    1    6    6    0    0  0.24687990528E+02 -0.64254520316E+02  0.96159784363E+02  0.11825753416E+03  0.00000000000E+00 0.  1.
</event>
<event>
12    1  0.8407180E-002  0.2273943E+03  0.7818608E-02  0.1128695E+00
         21   -1    0    0  501  502  0.00000000000E+00  0.00000000000E+00  0.28537988565E+03  0.28537988565E+03  0.00000000000E+00 0.  1.
         21   -1    0    0  502  503 -0.00000000000E+00 -0.00000000000E+00 -0.37826911107E+03  0.37826911107E+03  0.00000000000E+00 0. -1.
         -6    2    1    2    0  503 -0.69600418039E+02  0.12978687934E+03 -0.28657215862E+03  0.36583026905E+03  0.17326087677E+03 0.  0.
        -24    2    3    3    0    0 -0.26964935654E-02  0.10469969422E+03 -0.10173679429E+03  0.16668356030E+03  0.80442575684E+02 0.  0.
          6    2    1    2  501    0  0.69600418039E+02 -0.12978687934E+03  0.19368293321E+03  0.29781872767E+03  0.17173835825E+03 0.  0.
         24    2    5    5    0    0 -0.10007874087E+02 -0.23169477484E+02  0.11829533998E+03  0.14481503566E+03  0.79628040679E+02 0.  0.
          5    1    5    5  501    0  0.79608292126E+02 -0.10661740186E+03  0.75387593227E+02  0.15300369200E+03  0.47000000000E+01 0. -1.
        -11    1    6    6    0    0  0.13545827845E+02 -0.94787974174E+01  0.11633186912E+03  0.11750081202E+03  0.00000000000E+00 0.  1.
         12    1    6    6    0    0 -0.23553701932E+02 -0.13690680067E+02  0.19634708611E+01  0.27314223643E+02  0.00000000000E+00 0. -1.
         -5    1    3    3    0  503 -0.69597721546E+02  0.25087185117E+02 -0.18483536433E+03  0.19914670876E+03  0.47000000000E+01 0.  1.
         13    1    4    4    0    0 -0.38175612554E+02  0.71887085564E+02 -0.57330390503E+02  0.99558546293E+02  0.00000000000E+00 0. -1.
        -14    1    4    4    0    0  0.38172916060E+02  0.32812608660E+02 -0.44406403787E+02  0.67125014003E+02  0.00000000000E+00 0.  1.
</event>
<event>
12    1  0.8407180E-002  0.2200396E+03  0.7818608E-02  0.1133935E+00
         21   -1    0    0  501  502  0.00000000000E+00  0.00000000000E+00  0.15914943308E+04  0.15914943308E+04  0.00000000000E+00 0. -1.
         21   -1    0    0  502  503 -0.00000000000E+00 -0.00000000000E+00 -0.78435248846E+02  0.78435248846E+02  0.00000000000E+00 0. -1.
         -6    2    1    2    0  503  0.23666385349E+02 -0.13455377034E+03  0.10314327604E+03  0.24301434219E+03  0.17248947855E+03 0.  0.
        -24    2    3    3    0    0  0.19543463892E+02 -0.13264745684E+03  0.13588261732E+03  0.20962891154E+03  0.86619282359E+02 0.  0.
          6    2    1    2  501    0 -0.23666385349E+02  0.13455377034E+03  0.14099158059E+04  0.14269152375E+04  0.17192934654E+03 0.  0.
         24    2    5    5    0    0  0.32639891456E+02  0.13797832731E+03  0.99960103023E+03  0.10127142844E+04  0.79275600220E+02 0.  0.
          5    1    5    5  501    0 -0.56306276805E+02 -0.34245569715E+01  0.41031477571E+03  0.41420095311E+03  0.47000000000E+01 0. -1.
        -11    1    6    6    0    0  0.28833240601E+02  0.57856797575E+02  0.22897550643E+03  0.23792550796E+03  0.00000000000E+00 0.  1.
         12    1    6    6    0    0  0.38066508544E+01  0.80121529734E+02  0.77062552380E+03  0.77478877641E+03  0.00000000000E+00 0. -1.
         -5    1    3    3    0  503  0.41229214566E+01 -0.19063135000E+01 -0.32739341281E+02  0.33385430654E+02  0.47000000000E+01 0.  1.
         13    1    4    4    0    0  0.17015184307E+02 -0.30500833740E+02 -0.53261098904E+01  0.35329658963E+02  0.00000000000E+00 0. -1.
        -14    1    4    4    0    0  0.25282795854E+01 -0.10214662310E+03  0.14120872721E+03  0.17429925257E+03  0.00000000000E+00 0.  1.
</event>
<event>
12    1  0.8407180E-002  0.2124718E+03  0.7818608E-02  0.1139660E+00
         21   -1    0    0  501  502  0.00000000000E+00  0.00000000000E+00  0.20158720159E+03  0.20158720159E+03  0.00000000000E+00 0. -1.
         21   -1    0    0  502  503 -0.00000000000E+00 -0.00000000000E+00 -0.44138716850E+03  0.44138716850E+03  0.00000000000E+00 0.  1.
         -6    2    1    2    0  503  0.92896606946E+02  0.82490299350E+02 -0.34562055729E+03  0.40560915279E+03  0.17213595249E+03 0.  0.
        -24    2    3    3    0    0  0.34096398481E+02  0.95819658311E+02 -0.30993415780E+03  0.33538988596E+03  0.77995013477E+02 0.  0.
          6    2    1    2  501    0 -0.92896606946E+02 -0.82490299350E+02  0.10582059038E+03  0.23736521729E+03  0.17236536764E+03 0.  0.
         24    2    5    5    0    0  0.98739727503E+01 -0.52077051348E+02  0.12813806920E+02  0.95382438494E+02  0.78256637484E+02 0.  0.
          5    1    5    5  501    0 -0.10277057970E+03 -0.30413248002E+02  0.93006783463E+02  0.14198277880E+03  0.47000000000E+01 0. -1.
        -11    1    6    6    0    0  0.37932285501E+02 -0.58716646068E+01  0.15171549652E+02  0.41273607153E+02  0.00000000000E+00 0.  1.
         12    1    6    6    0    0 -0.28058312750E+02 -0.46205386742E+02 -0.23577427323E+01  0.54108831341E+02  0.00000000000E+00 0. -1.
         -5    1    3    3    0  503  0.58800208465E+02 -0.13329358961E+02 -0.35686399490E+02  0.70219266832E+02  0.47000000000E+01 0.  1.
         13    1    4    4    0    0  0.12246404578E+02  0.28412305646E+02 -0.19810627122E+02  0.36738188363E+02  0.00000000000E+00 0. -1.
        -14    1    4    4    0    0  0.21849993903E+02  0.67407352666E+02 -0.29012353068E+03  0.29865169760E+03  0.00000000000E+00 0.  1.
</event>
<event>
12    1  0.8407180E-002  0.2113752E+03  0.7818608E-02  0.1140701E+00
         21   -1    0    0  501  502  0.00000000000E+00  0.00000000000E+00  0.77417069573E+02  0.77417069573E+02  0.00000000000E+00 0.  1.
         21   -1    0    0  502  503 -0.00000000000E+00 -0.00000000000E+00 -0.57429956779E+03  0.57429956779E+03  0.00000000000E+00 0. -1.
         -6    2    1    2    0  503  0.82615774097E+02 -0.89389572685E+02 -0.24286812007E+03  0.32196954470E+03  0.17281088546E+03 0.  0.
        -24    2    3    3    0    0 -0.92053178163E+00 -0.61955260940E+02 -0.55233109143E+02  0.11470173922E+03  0.79161170397E+02 0.  0.
          6    2    1    2  501    0 -0.82615774097E+02  0.89389572685E+02 -0.25401437815E+03  0.32974709266E+03  0.17144672344E+03 0.  0.
         24    2    5    5    0    0  0.15520632290E+02  0.75820735756E+01 -0.12650610310E+03  0.14918222517E+03  0.77156751596E+02 0.  0.
          5    1    5    5  501    0 -0.98136406388E+02  0.81807499109E+02 -0.12750827504E+03  0.18056486750E+03  0.47000000000E+01 0. -1.
        -13    1    6    6    0    0 -0.29219954169E+02  0.11824085356E+02 -0.34161704432E+02  0.46482650159E+02  0.00000000000E+00 0.  1.
         14    1    6    6    0    0  0.44740586459E+02 -0.42420117805E+01 -0.92344398671E+02  0.10269957501E+03  0.00000000000E+00 0. -1.
         -5    1    3    3    0  503  0.83536305879E+02 -0.27434311745E+02 -0.18763501093E+03  0.20726780547E+03  0.47000000000E+01 0.  1.
         13    1    4    4    0    0  0.59000950667E+01 -0.48199196944E+02 -0.75199061070E+02  0.89514649603E+02  0.00000000000E+00 0. -1.
        -14    1    4    4    0    0 -0.68206268483E+01 -0.13756063996E+02  0.19965951926E+02  0.25187089621E+02  0.00000000000E+00 0.  1.
</event>
<event>
12    1  0.8407180E-002  0.1801690E+03  0.7818608E-02  0.1167708E+00
         21   -1    0    0  501  502  0.00000000000E+00  0.00000000000E+00  0.63441062004E+02  0.63441062004E+02  0.00000000000E+00 0.  1.
         21   -1    0    0  502  503 -0.00000000000E+00 -0.00000000000E+00 -0.71989792270E+03  0.71989792270E+03  0.00000000000E+00 0. -1.
         -6    2    1    2    0  503 -0.41928246640E+02 -0.32922516879E+02 -0.53946672650E+03  0.56875761110E+03  0.17210171760E+03 0.  0.
        -24    2    3    3    0    0 -0.20237558234E+02  0.78977879142E+01 -0.50278156679E+03  0.50955732233E+03  0.79921380275E+02 0.  0.
          6    2    1    2  501    0  0.41928246640E+02  0.32922516879E+02 -0.11699013420E+03  0.21458137361E+03  0.17180397090E+03 0.  0.
         24    2    5    5    0    0  0.55675873808E+02 -0.30992177322E+02 -0.10796276324E+03  0.14841741957E+03  0.79444661288E+02 0.  0.
          5    1    5    5  501    0 -0.13747627168E+02  0.63914694201E+02 -0.90273709657E+01  0.66163954039E+02  0.47000000000E+01 0. -1.
        -11    1    6    6    0    0  0.49229062467E+02 -0.39279358096E+02 -0.30015197919E+02  0.69765899048E+02  0.00000000000E+00 0.  1.
         12    1    6    6    0    0  0.64468113404E+01  0.82871807745E+01 -0.77947565318E+02  0.78651520523E+02  0.00000000000E+00 0. -1.
         -5    1    3    3    0  503 -0.21690688406E+02 -0.40820304793E+02 -0.36685159710E+02  0.59200288765E+02  0.47000000000E+01 0.  1.
         13    1    4    4    0    0  0.72061186517E+00 -0.32886091118E+02 -0.29193529647E+03  0.29378262644E+03  0.00000000000E+00 0. -1.
        -14    1    4    4    0    0 -0.20958170100E+02  0.40783879032E+02 -0.21084627031E+03  0.21577469589E+03  0.00000000000E+00 0.  1.
</event>
<event>
12    1  0.8407180E-002  0.1830046E+03  0.7818608E-02  0.1165390E+00
         21   -1    0    0  503  502  0.00000000000E+00  0.00000000000E+00  0.32706840407E+03  0.32706840407E+03  0.00000000000E+00 0.  1.
         21   -1    0    0  501  503 -0.00000000000E+00 -0.00000000000E+00 -0.10220289091E+03  0.10220289091E+03  0.00000000000E+00 0.  1.
          6    2    1    2  501    0  0.37046398912E+02 -0.48372287854E+02  0.92962896837E+02  0.20526270137E+03  0.17256408224E+03 0.  0.
         24    2    3    3    0    0  0.21767676365E+00 -0.30996250332E+02  0.12633713085E+03  0.15240240482E+03  0.79401558203E+02 0.  0.
         -6    2    1    2    0  502 -0.37046398912E+02  0.48372287854E+02  0.13190261632E+03  0.22400859361E+03  0.17049702612E+03 0.  0.
        -24    2    5    5    0    0 -0.83902965531E+02  0.25240540499E+02  0.12314738666E+03  0.17081686853E+03  0.79601075511E+02 0.  0.
          5    1    3    3  501    0  0.36828722149E+02 -0.17376037522E+02 -0.33374234014E+02  0.52860296548E+02  0.47000000000E+01 0. -1.
        -13    1    4    4    0    0  0.19601241172E+02  0.19642589139E+02  0.24443663853E+02  0.36980165848E+02  0.00000000000E+00 0.  1.
         14    1    4    4    0    0 -0.19383564408E+02 -0.50638839472E+02  0.10189346700E+03  0.11542223897E+03  0.00000000000E+00 0. -1.
         -5    1    5    5    0  502  0.46856566619E+02  0.23131747356E+02  0.87552296528E+01  0.53191725083E+02  0.47000000000E+01 0.  1.
         13    1    6    6    0    0  0.14554901294E+02 -0.34560548979E+01  0.23267089519E+02  0.27661289229E+02  0.00000000000E+00 0. -1.
        -14    1    6    6    0    0 -0.98457866825E+02  0.28696595397E+02  0.99880297145E+02  0.14315557930E+03  0.00000000000E+00 0.  1.
</event>
<event>
12    1  0.8407180E-002  0.2996984E+03  0.7818608E-02  0.1085444E+00
         21   -1    0    0  501  502  0.00000000000E+00  0.00000000000E+00  0.45316890564E+03  0.45316890564E+03  0.00000000000E+00 0. -1.
         21   -1    0    0  502  503 -0.00000000000E+00 -0.00000000000E+00 -0.26976660661E+03  0.26976660661E+03  0.00000000000E+00 0. -1.
         -6    2    1    2    0  503 -0.23850246574E+03 -0.57701426524E+02 -0.94787475579E+02  0.31433074082E+03  0.17206472129E+03 0.  0.
        -24    2    3    3    0    0 -0.66145813807E+02 -0.40134197460E+02 -0.86079524385E+02  0.14079878003E+03  0.80178484951E+02 0.  0.
          6    2    1    2  501    0  0.23850246574E+03  0.57701426524E+02  0.27818977462E+03  0.40860477143E+03  0.17133425737E+03 0.  0.
         24    2    5    5    0    0  0.86063322209E+02 -0.22896904737E+02  0.76661783589E+02  0.14333244975E+03  0.82073128440E+02 0.  0.
          5    1    5    5  501    0  0.15243914353E+03  0.80598331261E+02  0.20152799103E+03  0.26527232168E+03  0.47000000000E+01 0. -1.
        -13    1    6    6    0    0  0.26550820618E+02  0.26268978791E+02  0.44262212588E+01  0.37611125440E+02  0.00000000000E+00 0.  1.
         14    1    6    6    0    0  0.59512501590E+02 -0.49165883528E+02  0.72235562330E+02  0.10572132431E+03  0.00000000000E+00 0. -1.
         -5    1    3    3    0  503 -0.17235665193E+03 -0.17567229064E+02 -0.87079511938E+01  0.17353196079E+03  0.47000000000E+01 0.  1.
         11    1    4    4    0    0 -0.79506286622E+02 -0.18215193479E+02 -0.47286932337E+02  0.94282007063E+02  0.00000000000E+00 0. -1.
        -12    1    4    4    0    0  0.13360472815E+02 -0.21919003981E+02 -0.38792592047E+02  0.46516772965E+02  0.00000000000E+00 0.  1.
</event>
<event>
12    1  0.8407180E-002  0.2636009E+03  0.7818608E-02  0.1105013E+00
         21   -1    0    0  501  502  0.00000000000E+00  0.00000000000E+00  0.69818232694E+03  0.69818232694E+03  0.00000000000E+00 0.  1.
         21   -1    0    0  502  503 -0.00000000000E+00 -0.00000000000E+00 -0.36559105529E+03  0.36559105529E+03  0.00000000000E+00 0.  1.
         -6    2    1    2    0  503 -0.18918281069E+03  0.64333315405E+02 -0.28749469477E+03  0.38998406447E+03  0.17177153340E+03 0.  0.
        -24    2    3    3    0    0 -0.15554560395E+03  0.71272794374E+02 -0.13130982284E+03  0.22999837054E+03  0.79892019304E+02 0.  0.
          6    2    1    2  501    0  0.18918281069E+03 -0.64333315405E+02  0.62008596642E+03  0.67378931776E+03  0.17192011995E+03 0.  0.
         24    2    5    5    0    0  0.11202938110E+03 -0.43749121267E+02  0.19709278009E+03  0.24329926395E+03  0.76709843138E+02 0.  0.
          5    1    5    5  501    0  0.77153429590E+02 -0.20584194139E+02  0.42299318633E+03  0.43049005381E+03  0.47000000000E+01 0. -1.
        -11    1    6    6    0    0  0.29123885778E+02  0.19197887892E+02  0.75947732036E+02  0.83575221350E+02  0.00000000000E+00 0.  1.
         12    1    6    6    0    0  0.82905495326E+02 -0.62947009159E+02  0.12114504805E+03  0.15972404260E+03  0.00000000000E+00 0. -1.
         -5    1    3    3    0  503 -0.33637206748E+02 -0.69394789689E+01 -0.15618487192E+03  0.15998569393E+03  0.47000000000E+01 0.  1.
         11    1    4    4    0    0  0.23909954450E+01  0.23291389304E+02 -0.11851160044E+02  0.26242249700E+02  0.00000000000E+00 0. -1.
        -12    1    4    4    0    0 -0.15793659939E+03  0.47981405070E+02 -0.11945866280E+03  0.20375612084E+03  0.00000000000E+00 0.  1.
</event>
<event>
12    1  0.8407180E-002  0.2704329E+03  0.7818608E-02  0.1101692E+00
         21   -1    0    0  503  502  0.00000000000E+00  0.00000000000E+00  0.29284062012E+03  0.29284062012E+03  0.00000000000E+00 0. -1.
         21   -1    0    0  501  503 -0.00000000000E+00 -0.00000000000E+00 -0.34927429889E+03  0.34927429889E+03  0.00000000000E+00 0. -1.
          6    2    1    2  501    0 -0.19376439691E+01 -0.20564176143E+03 -0.20335936791E+03  0.33836224644E+03  0.17561801954E+03 0.  0.
         24    2    3    3    0    0 -0.62569639565E+02 -0.84298866675E+02 -0.75277696928E+02  0.15174139701E+03  0.79608172910E+02 0.  0.
         -6    2    1    2    0  502  0.19376439691E+01  0.20564176143E+03  0.14692568913E+03  0.30375267257E+03  0.16848216362E+03 0.  0.
        -24    2    5    5    0    0 -0.62641585172E+02  0.14232944114E+03  0.91357020167E+02  0.19750346689E+03  0.80497678800E+02 0.  0.
          5    1    3    3  501    0  0.60631995596E+02 -0.12134289476E+03 -0.12808167098E+03  0.18662084943E+03  0.47000000000E+01 0. -1.
        -11    1    4    4    0    0 -0.42035567593E+02 -0.34565659078E+01 -0.48196951831E+02  0.64045944107E+02  0.00000000000E+00 0.  1.
         12    1    4    4    0    0 -0.20534071973E+02 -0.80842300767E+02 -0.27080745097E+02  0.87695452904E+02  0.00000000000E+00 0. -1.
         -5    1    5    5    0  502  0.64579229141E+02  0.63312320290E+02  0.55568668966E+02  0.10624920568E+03  0.47000000000E+01 0.  1.
         11    1    6    6    0    0 -0.46729016426E+02  0.18879831351E+02  0.31010528294E+02  0.59175179536E+02  0.00000000000E+00 0. -1.
        -12    1    6    6    0    0 -0.15912568746E+02  0.12344960979E+03  0.60346491873E+02  0.13832828736E+03  0.00000000000E+00 0.  1.
</event>
<event>
12    1  0.8407180E-002  0.1846906E+03  0.7818608E-02  0.1164664E+00
         21   -1    0    0  503  502  0.00000000000E+00  0.00000000000E+00  0.27162165669E+03  0.27162165669E+03  0.00000000000E+00 0.  1.
         21   -1    0    0  501  503 -0.00000000000E+00 -0.00000000000E+00 -0.13066718280E+03  0.13066718280E+03  0.00000000000E+00 0. -1.
          6    2    1    2  501    0 -0.36097733902E+02  0.53516091715E+02  0.19159841574E+02  0.18568175010E+03  0.17304217499E+03 0.  0.
         24    2    3    3    0    0 -0.23535775940E+02 -0.85287462680E+01  0.66857901782E+02  0.10628049283E+03  0.78733041748E+02 0.  0.
         -6    2    1    2    0  502  0.36097733902E+02 -0.53516091715E+02  0.12179463231E+03  0.21660708939E+03  0.16708584694E+03 0.  0.
        -24    2    5    5    0    0 -0.58403940552E+01 -0.87637515927E+02  0.47997700686E+02  0.12500384008E+03  0.74884820641E+02 0.  0.
          5    1    3    3  501    0 -0.12561957962E+02  0.62044837983E+02 -0.47698060208E+02  0.79401257269E+02  0.47000000000E+01 0. -1.
        -11    1    4    4    0    0 -0.22892289173E+02  0.33487379842E+02  0.34309831876E+02  0.53128392368E+02  0.00000000000E+00 0.  1.
         12    1    4    4    0    0 -0.64348676706E+00 -0.42016126110E+02  0.32548069907E+02  0.53152100459E+02  0.00000000000E+00 0. -1.
         -5    1    5    5    0  502  0.41938127957E+02  0.34121424212E+02  0.73796931627E+02  0.91603249311E+02  0.47000000000E+01 0.  1.
         13    1    6    6    0    0  0.21093679181E+02 -0.71089524934E+02  0.88387883164E+01  0.74677895228E+02  0.00000000000E+00 0. -1.
        -14    1    6    6    0    0 -0.26934073237E+02 -0.16547990993E+02  0.39158912370E+02  0.50325944850E+02  0.00000000000E+00 0.  1.
</event>
<event>
12    1  0.8407180E-002  0.3149341E+03  0.7818608E-02  0.1078281E+00
         21   -1    0    0  501  502  0.00000000000E+00  0.00000000000E+00  0.81456747952E+02  0.81456747952E+02  0.00000000000E+00 0.  1.
         21   -1    0    0  502  503 -0.00000000000E+00 -0.00000000000E+00 -0.14494867659E+04  0.14494867659E+04  0.00000000000E+00 0. -1.
         -6    2    1    2    0  503 -0.12261881633E+03  0.23356317274E+03 -0.99395059637E+03  0.10419456519E+04  0.16770755387E+03 0.  0.
        -24    2    3    3    0    0  0.15049000821E+01  0.76864042878E+02 -0.30128932436E+03  0.32099971629E+03  0.79719602802E+02 0.  0.
          6    2    1    2  501    0  0.12261881633E+03 -0.23356317274E+03 -0.37407942162E+03  0.48899786203E+03  0.17203594280E+03 0.  0.
         24    2    5    5    0    0  0.14071327911E+03 -0.19106018457E+03 -0.36419182945E+03  0.44152399485E+03  0.77482438946E+02 0.  0.
          5    1    5    5  501    0 -0.18094462773E+02 -0.42502988165E+02 -0.98875921628E+01  0.47473867177E+02  0.47000000000E+01 0. -1.
        -13    1    6    6    0    0  0.62352041662E+02 -0.44569848045E+02 -0.70690239151E+02  0.10426580631E+03  0.00000000000E+00 0.  1.
         14    1    6    6    0    0  0.78361237444E+02 -0.14649033653E+03 -0.29350159030E+03  0.33725818854E+03  0.00000000000E+00 0. -1.
         -5    1    3    3    0  503 -0.12412371642E+03  0.15669912986E+03 -0.69266127200E+03  0.72094593557E+03  0.47000000000E+01 0.  1.
         11    1    4    4    0    0 -0.18252056967E+02  0.63731194611E+02 -0.28402537818E+03  0.29165942158E+03  0.00000000000E+00 0. -1.
        -12    1    4    4    0    0  0.19756957050E+02  0.13132848267E+02 -0.17263946185E+02  0.29340294705E+02  0.00000000000E+00 0.  1.
</event>
<event>
12    1  0.8407180E-002  0.1915137E+03  0.7818608E-02  0.1157401E+00
         21   -1    0    0  503  502  0.00000000000E+00  0.00000000000E+00  0.41644564977E+03  0.41644564977E+03  0.00000000000E+00 0.  1.
         21   -1    0    0  501  503 -0.00000000000E+00 -0.00000000000E+00 -0.92565761699E+02  0.92565761699E+02  0.00000000000E+00 0.  1.
          6    2    1    2  501    0 -0.81582872094E+02  0.14758020553E+02  0.22116577762E+03  0.29169205996E+03  0.17116188963E+03 0.  0.
         24    2    3    3    0    0 -0.11484401804E+03 -0.98294713182E+01  0.13211293905E+03  0.19338973728E+03  0.81608791401E+02 0.  0.
         -6    2    1    2    0  502  0.81582872094E+02 -0.14758020553E+02  0.10271411045E+03  0.21731935151E+03  0.17263819932E+03 0.  0.
        -24    2    5    5    0    0  0.92642221127E+02  0.30910271558E+02  0.28199649309E+02  0.12910145636E+03  0.79586052736E+02 0.  0.
          5    1    3    3  501    0  0.33261145951E+02  0.24587491871E+02  0.89052838568E+02  0.98302322676E+02  0.47000000000E+01 0. -1.
        -11    1    4    4    0    0 -0.83384715168E+02 -0.33955719974E+02  0.12347549336E+03  0.15281426341E+03  0.00000000000E+00 0.  1.
         12    1    4    4    0    0 -0.31459302877E+02  0.24126248656E+02  0.86374456974E+01  0.40575473871E+02  0.00000000000E+00 0. -1.
         -5    1    5    5    0  502 -0.11059349033E+02 -0.45668292111E+02  0.74514461140E+02  0.88217895148E+02  0.47000000000E+01 0.  1.
         11    1    6    6    0    0 -0.12317497344E+02  0.41624302521E+01  0.15211978760E+02  0.20011268431E+02  0.00000000000E+00 0. -1.
        -12    1    6    6    0    0  0.10495971847E+03  0.26747841306E+02  0.12987670548E+02  0.10909018793E+03  0.00000000000E+00 0.  1.
</event>
<event>
12    1  0.8407180E-002  0.3117557E+03  0.7818608E-02  0.1079614E+00
         21   -1    0    0  503  502  0.00000000000E+00  0.00000000000E+00  0.23333771157E+03  0.23333771157E+03  0.00000000000E+00 0. -1.
         21   -1    0    0  501  503 -0.00000000000E+00 -0.00000000000E+00 -0.71976553731E+03  0.71976553731E+03  0.00000000000E+00 0.  1.
          6    2    1    2  501    0 -0.13095400070E+02 -0.25941285670E+03 -0.55334560169E+03  0.63512435158E+03  0.17240959177E+03 0.  0.
         24    2    3    3    0    0 -0.26680226732E+01 -0.24305105147E+03 -0.55867038643E+03  0.61446322378E+03  0.79821806104E+02 0.  0.
         -6    2    1    2    0  502  0.13095400070E+02  0.25941285670E+03  0.66917775952E+02  0.31797889731E+03  0.17078076786E+03 0.  0.
        -24    2    5    5    0    0  0.31821319527E+02  0.25531098451E+03  0.93274434002E+02  0.28505096329E+03  0.79734788189E+02 0.  0.
          5    1    3    3  501    0 -0.10427377397E+02 -0.16361805225E+02  0.53247847411E+01  0.20661127804E+02  0.47000000000E+01 0. -1.
        -13    1    4    4    0    0  0.30000542827E+02 -0.92977218398E+02 -0.16309866487E+03  0.19012093571E+03  0.00000000000E+00 0.  1.
         14    1    4    4    0    0 -0.32668565500E+02 -0.15007383307E+03 -0.39557172156E+03  0.42434228807E+03  0.00000000000E+00 0. -1.
         -5    1    5    5    0  502 -0.18725919457E+02  0.41018721895E+01 -0.26356658050E+02  0.32927934016E+02  0.47000000000E+01 0.  1.
         13    1    6    6    0    0  0.49194772694E+02  0.85847180350E+02  0.37238680279E+02  0.10571936125E+03  0.00000000000E+00 0. -1.
        -14    1    6    6    0    0 -0.17373453167E+02  0.16946380416E+03  0.56035753723E+02  0.17933160204E+03  0.00000000000E+00 0.  1.
</event>
<event>
12    1  0.8407180E-002  0.1779956E+03  0.7818608E-02  0.1170181E+00
         21   -1    0    0  501  502  0.00000000000E+00  0.00000000000E+00  0.16802693123E+03  0.16802693123E+03  0.00000000000E+00 0. -1.
         21   -1    0    0  502  503 -0.00000000000E+00 -0.00000000000E+00 -0.36587798698E+03  0.36587798698E+03  0.00000000000E+00 0. -1.
         -6    2    1    2    0  503 -0.37671242392E+02  0.66207556563E+01 -0.28547145658E+03  0.33551199648E+03  0.17207960470E+03 0.  0.
        -24    2    3    3    0    0 -0.54112035867E+02  0.65873541439E+02 -0.19675101237E+03  0.22746293571E+03  0.75901188166E+02 0.  0.
          6    2    1    2  501    0  0.37671242392E+02 -0.66207556563E+01  0.87620400827E+02  0.19839292173E+03  0.17383745236E+03 0.  0.
         24    2    5    5    0    0  0.82205302234E+02  0.27179026023E+02  0.77859422461E+02  0.14144492417E+03  0.80300471581E+02 0.  0.
          5    1    5    5  501    0 -0.44534059842E+02 -0.33799781679E+02  0.97609783653E+01  0.56947997561E+02  0.47000000000E+01 0. -1.
        -11    1    6    6    0    0  0.96716683964E+01 -0.12812194181E+02 -0.11390154923E+02  0.19683219210E+02  0.00000000000E+00 0.  1.
         12    1    6    6    0    0  0.72533633837E+02  0.39991220204E+02  0.89249577384E+02  0.12176170496E+03  0.00000000000E+00 0. -1.
         -5    1    3    3    0  503  0.16440793475E+02 -0.59252785782E+02 -0.88720444204E+02  0.10804906077E+03  0.47000000000E+01 0.  1.
         13    1    4    4    0    0 -0.73438834842E+02  0.52259031976E+02 -0.16290499588E+03  0.18617815814E+03  0.00000000000E+00 0. -1.
        -14    1    4    4    0    0  0.19326798975E+02  0.13614509463E+02 -0.33846016491E+02  0.41284777569E+02  0.00000000000E+00 0.  1.
</event>
<event>
12    1  0.8407180E-002  0.1879446E+03  0.7818608E-02  0.1160529E+00
         21   -1    0    0  503  502  0.00000000000E+00  0.00000000000E+00  0.16700042674E+03  0.16700042674E+03  0.00000000000E+00 0.  1.
         21   -1    0    0  501  503 -0.00000000000E+00 -0.00000000000E+00 -0.28271663630E+03  0.28271663630E+03  0.00000000000E+00 0.  1.
          6    2    1    2  501    0  0.73127145015E+02 -0.18000023415E+02 -0.17157798138E+03  0.25448413350E+03  0.17219637141E+03 0.  0.
         24    2    3    3    0    0  0.60008579660E+02 -0.37554837010E+02 -0.19490664393E+03  0.22100572272E+03  0.76443012845E+02 0.  0.
         -6    2    1    2    0  502 -0.73127145015E+02  0.18000023415E+02  0.55861771820E+02  0.19523292955E+03  0.17124187294E+03 0.  0.
        -24    2    5    5    0    0 -0.27855010498E+02  0.11252376457E+01 -0.35267077874E+02  0.91981383287E+02  0.80247369552E+02 0.  0.
          5    1    3    3  501    0  0.13118565355E+02  0.19554813595E+02  0.23328662550E+02  0.33478410776E+02  0.47000000000E+01 0. -1.
        -11    1    4    4    0    0  0.67390674635E+02 -0.39120946205E+01 -0.14932436687E+03  0.16387365272E+03  0.00000000000E+00 0.  1.
         12    1    4    4    0    0 -0.73820949752E+01 -0.33642742389E+02 -0.45582277051E+02  0.57132070003E+02  0.00000000000E+00 0. -1.
         -5    1    5    5    0  502 -0.45272134517E+02  0.16874785769E+02  0.91128849694E+02  0.10325154626E+03  0.47000000000E+01 0.  1.
         11    1    6    6    0    0 -0.16631381271E+02  0.36165093922E+02  0.16765146451E+01  0.39841279633E+02  0.00000000000E+00 0. -1.
        -12    1    6    6    0    0 -0.11223629227E+02 -0.35039856277E+02 -0.36943592519E+02  0.52140103654E+02  0.00000000000E+00 0.  1.
</event>
<event>
12    1  0.8407180E-002  0.1853067E+03  0.7818608E-02  0.1163171E+00
         21   -1    0    0  501  502  0.00000000000E+00  0.00000000000E+00  0.27724513197E+03  0.27724513197E+03  0.00000000000E+00 0.  1.
         21   -1    0    0  502  503 -0.00000000000E+00 -0.00000000000E+00 -0.17915284026E+03  0.17915284026E+03  0.00000000000E+00 0.  1.
         -6    2    1    2    0  503 -0.38779020815E+02  0.48798683406E+02 -0.79212475069E+02  0.19993054046E+03  0.17266291103E+03 0.  0.
        -24    2    3    3    0    0 -0.91663508355E+02  0.10042866780E+02 -0.47069337970E+02  0.12675914162E+03  0.73138905320E+02 0.  0.
          6    2    1    2  501    0  0.38779020815E+02 -0.48798683406E+02  0.17730476678E+03  0.25646743177E+03  0.17450913809E+03 0.  0.
         24    2    5    5    0    0  0.47621291745E+02 -0.51749184649E+02  0.20262455225E+03  0.22907997573E+03  0.80468382404E+02 0.  0.
          5    1    5    5  501    0 -0.88422709305E+01  0.29505012433E+01 -0.25319785463E+02  0.27387456046E+02  0.47000000000E+01 0. -1.
        -13    1    6    6    0    0  0.16273653949E+02  0.21281671578E+02  0.41072905087E+02  0.49037994354E+02  0.00000000000E+00 0.  1.
         14    1    6    6    0    0  0.31347637796E+02 -0.73030856227E+02  0.16155164716E+03  0.18004198137E+03  0.00000000000E+00 0. -1.
         -5    1    3    3    0  503  0.52884487541E+02  0.38755816626E+02 -0.32143137099E+02  0.73171398834E+02  0.47000000000E+01 0.  1.
         13    1    4    4    0    0 -0.59485278042E+02  0.12337630532E+02  0.96446465023E+01  0.61512069035E+02  0.00000000000E+00 0. -1.
        -14    1    4    4    0    0 -0.32178230314E+02 -0.22947637517E+01 -0.56713984472E+02  0.65247072590E+02  0.00000000000E+00 0.  1.
</event>
<event>
12    1  0.8407180E-002  0.2268761E+03  0.7818608E-02  0.1128895E+00
         21   -1    0    0  501  502  0.00000000000E+00  0.00000000000E+00  0.14884420833E+04  0.14884420833E+04  0.00000000000E+00 0. -1.
         21   -1    0    0  502  503 -0.00000000000E+00 -0.00000000000E+00 -0.77190878116E+02  0.77190878116E+02  0.00000000000E+00 0. -1.
         -6    2    1    2    0  503 -0.42197800749E+02 -0.14116357491E+03  0.12365904560E+03  0.25820559612E+03  0.17225202769E+03 0.  0.
        -24    2    3    3    0    0 -0.76890319065E+02 -0.13758629787E+03  0.59692378510E+02  0.18519743058E+03  0.76764560265E+02 0.  0.
          6    2    1    2  501    0  0.42197800749E+02  0.14116357491E+03  0.12875921596E+04  0.13074273653E+04  0.17252517737E+03 0.  0.
         24    2    5    5    0    0  0.34981364089E+02  0.89142250457E+02  0.11901129664E+04  0.11966005714E+04  0.79460794527E+02 0.  0.
          5    1    5    5  501    0  0.72164366597E+01  0.52021324452E+02  0.97479193170E+02  0.11082679395E+03  0.47000000000E+01 0. -1.
        -11    1    6    6    0    0  0.27676225603E+02  0.73247430246E+02  0.48576100633E+03  0.49203141644E+03  0.00000000000E+00 0.  1.
         12    1    6    6    0    0  0.73051384867E+01  0.15894820211E+02  0.70435196012E+03  0.70456915493E+03  0.00000000000E+00 0. -1.
         -5    1    3    3    0  503  0.34692518316E+02 -0.35772770411E+01  0.63966667090E+02  0.73008165548E+02  0.47000000000E+01 0.  1.
         13    1    4    4    0    0 -0.79131668879E+02 -0.95946126538E+02  0.17010781475E+02  0.12552627973E+03  0.00000000000E+00 0. -1.
        -14    1    4    4    0    0  0.22413498144E+01 -0.41640171330E+02  0.42681597035E+02  0.59671150842E+02  0.00000000000E+00 0.  1.
</event>
<event>
12    1  0.8407180E-002  0.2244360E+03  0.7818608E-02  0.1130672E+00
         21   -1    0    0  501  502  0.00000000000E+00  0.00000000000E+00  0.27052556228E+02  0.27052556228E+02  0.00000000000E+00 0.  1.
         21   -1    0    0  502  503 -0.00000000000E+00 -0.00000000000E+00 -0.18670819148E+04  0.18670819148E+04  0.00000000000E+00 0.  1.
         -6    2    1    2    0  503  0.66052489103E+02 -0.12712134114E+03 -0.97957687770E+03  0.10048932197E+04  0.17238548955E+03 0.  0.
        -24    2    3    3    0    0  0.83795965689E+02 -0.68989310175E+02 -0.86291460665E+03  0.87326366577E+03  0.78654451832E+02 0.  0.
          6    2    1    2  501    0 -0.66052489103E+02  0.12712134114E+03 -0.86045248091E+03  0.88924125136E+03  0.17276794992E+03 0.  0.
         24    2    5    5    0    0 -0.41387655287E+02  0.14150555424E+03 -0.48930164994E+03  0.51696408453E+03  0.78096095703E+02 0.  0.
          5    1    5    5  501    0 -0.24664833816E+02 -0.14384213105E+02 -0.37115083097E+03  0.37227716683E+03  0.47000000000E+01 0. -1.
        -13    1    6    6    0    0  0.21930554117E+02  0.25953046624E+02 -0.12620551324E+03  0.13069943154E+03  0.00000000000E+00 0.  1.
         14    1    6    6    0    0 -0.63318209404E+02  0.11555250762E+03 -0.36309613670E+03  0.38626465298E+03  0.00000000000E+00 0. -1.
         -5    1    3    3    0  503 -0.17743476586E+02 -0.58132030961E+02 -0.11666227105E+03  0.13162955394E+03  0.47000000000E+01 0.  1.
         11    1    4    4    0    0  0.85139066013E+02 -0.26173675281E+02 -0.65077659202E+03  0.65684388903E+03  0.00000000000E+00 0. -1.
        -12    1    4    4    0    0 -0.13431003233E+01 -0.42815634895E+02 -0.21213801463E+03  0.21641977673E+03  0.00000000000E+00 0.  1.
</event>
<event>
12    1  0.8407180E-002  0.1812497E+03  0.7818608E-02  0.1167956E+00
         21   -1    0    0  501  502  0.00000000000E+00  0.00000000000E+00  0.29561954479E+03  0.29561954479E+03  0.00000000000E+00 0.  1.
         21   -1    0    0  502  503 -0.00000000000E+00 -0.00000000000E+00 -0.15803507828E+03  0.15803507828E+03  0.00000000000E+00 0.  1.
         -6    2    1    2    0  503 -0.39416326617E+02  0.22429998181E+02 -0.59890361940E+02  0.18561026837E+03  0.16972791358E+03 0.  0.
        -24    2    3    3    0    0 -0.72981087854E+02  0.76880974369E+01  0.94533373472E+01  0.10703192870E+03  0.77337714907E+02 0.  0.
          6    2    1    2  501    0  0.39416326617E+02 -0.22429998181E+02  0.19747482844E+03  0.26804435470E+03  0.17548423461E+03 0.  0.
         24    2    5    5    0    0  0.45079185620E+02 -0.34675007999E+02  0.22007475551E+03  0.24130758338E+03  0.81005941955E+02 0.  0.
          5    1    5    5  501    0 -0.56628590028E+01  0.12245009818E+02 -0.22599927060E+02  0.26736771321E+02  0.47000000000E+01 0. -1.
        -13    1    6    6    0    0  0.22532304981E+02  0.24974430194E+02  0.56669713855E+02  0.65900556900E+02  0.00000000000E+00 0.  1.
         14    1    6    6    0    0  0.22546880639E+02 -0.59649438193E+02  0.16340504165E+03  0.17540702648E+03  0.00000000000E+00 0. -1.
         -5    1    3    3    0  503  0.33564761238E+02  0.14741900744E+02 -0.69343699287E+02  0.78578339670E+02  0.47000000000E+01 0.  1.
         11    1    4    4    0    0 -0.54873588387E+02  0.34495692866E+02  0.27017586221E+02  0.70221175539E+02  0.00000000000E+00 0. -1.
        -12    1    4    4    0    0 -0.18107499467E+02 -0.26807595429E+02 -0.17564248874E+02  0.36810753159E+02  0.00000000000E+00 0.  1.
</event>
<event>
12    1  0.8407180E-002  0.3415376E+03  0.7818608E-02  0.1066401E+00
         21   -1    0    0  501  502  0.00000000000E+00  0.00000000000E+00  0.21471244351E+03  0.21471244351E+03  0.00000000000E+00 0.  1.
         21   -1    0    0  502  503 -0.00000000000E+00 -0.00000000000E+00 -0.20689627770E+04  0.20689627770E+04  0.00000000000E+00 0.  1.
         -6    2    1    2    0  503  0.28608514344E+03 -0.75524657227E+02 -0.19080292479E+04  0.19379295470E+04  0.16567026089E+03 0.  0.
        -24    2    3    3    0    0  0.10613202631E+03  0.11612120488E+02 -0.94555047833E+03  0.95489169718E+03  0.79709459489E+02 0.  0.
          6    2    1    2  501    0 -0.28608514344E+03  0.75524657227E+02  0.53778914393E+02  0.34574567348E+03  0.17058492299E+03 0.  0.
         24    2    5    5    0    0 -0.20340640990E+03  0.14619097367E+02 -0.20061970430E+02  0.21917622032E+03  0.77767906622E+02 0.  0.
          5    1    5    5  501    0 -0.82678733543E+02  0.60905559860E+02  0.73840884823E+02  0.12656945316E+03  0.47000000000E+01 0. -1.
        -13    1    6    6    0    0 -0.18199829117E+03  0.23525160904E+02  0.68664089360E+01  0.18364084175E+03  0.00000000000E+00 0.  1.
         14    1    6    6    0    0 -0.21408118726E+02 -0.89060635370E+01 -0.26928379366E+02  0.35535378574E+02  0.00000000000E+00 0. -1.
         -5    1    3    3    0  503  0.17995311713E+03 -0.87136777715E+02 -0.96247876953E+03  0.98303784982E+03  0.47000000000E+01 0.  1.
         11    1    4    4    0    0  0.35654415080E+02  0.23538465216E+02 -0.14518303407E+03  0.15133872618E+03  0.00000000000E+00 0. -1.
        -12    1    4    4    0    0  0.70477611233E+02 -0.11926344729E+02 -0.80036744425E+03  0.80355297100E+03  0.00000000000E+00 0.  1.
</event>
<event>
12    1  0.8407180E-002  0.1858008E+03  0.7818608E-02  0.1163396E+00
         21   -1    0    0  503  502  0.00000000000E+00  0.00000000000E+00  0.64560992811E+03  0.64560992811E+03  0.00000000000E+00 0. -1.
         21   -1    0    0  501  503 -0.00000000000E+00 -0.00000000000E+00 -0.80606948525E+02  0.80606948525E+02  0.00000000000E+00 0. -1.
          6    2    1    2  501    0 -0.56958240632E+02 -0.75930084363E+01  0.64438874548E+02  0.19228209597E+03  0.17180844253E+03 0.  0.
         24    2    3    3    0    0  0.32405085141E+02 -0.14178945401E+02  0.49967190681E+02  0.10139371282E+03  0.80825941494E+02 0.  0.
         -6    2    1    2    0  502  0.56958240632E+02  0.75930084363E+01  0.50056410504E+03  0.53393478066E+03  0.17669191208E+03 0.  0.
        -24    2    5    5    0    0  0.12549627917E+02 -0.50102924743E+02  0.38581622135E+03  0.39795642797E+03  0.82748810757E+02 0.  0.
          5    1    3    3  501    0 -0.89363325773E+02  0.65859369643E+01  0.14471683866E+02  0.90888383157E+02  0.47000000000E+01 0. -1.
        -13    1    4    4    0    0  0.16498766012E+01  0.31355232261E+02  0.28490896470E+02  0.42398158740E+02  0.00000000000E+00 0.  1.
         14    1    4    4    0    0  0.30755208540E+02 -0.45534177662E+02  0.21476294212E+02  0.58995554076E+02  0.00000000000E+00 0. -1.
         -5    1    5    5    0  502  0.44408612715E+02  0.57695933179E+02  0.11474788369E+03  0.13597835269E+03  0.47000000000E+01 0.  1.
         13    1    6    6    0    0  0.14081997795E+02 -0.23252819006E+02  0.35882718947E+03  0.35985545453E+03  0.00000000000E+00 0. -1.
        -14    1    6    6    0    0 -0.15323698782E+01 -0.26850105736E+02  0.26989031879E+02  0.38100973442E+02  0.00000000000E+00 0.  1.
</event>
<event>
12    1  0.8407180E-002  0.1779026E+03  0.7818608E-02  0.1170057E+00
         21   -1    0    0  503  502  0.00000000000E+00  0.00000000000E+00  0.20834065508E+04  0.20834065508E+04  0.00000000000E+00 0.  1.
         21   -1    0    0  501  503 -0.00000000000E+00 -0.00000000000E+00 -0.20524929191E+02  0.20524929191E+02  0.00000000000E+00 0.  1.
          6    2    1    2  501    0  0.36480062410E+02 -0.23007250346E+02  0.49337679742E+03  0.52447115411E+03  0.17259547718E+03 0.  0.
         24    2    3    3    0    0  0.74570178889E+02 -0.48004212788E+02  0.43148107234E+03  0.44747196004E+03  0.78677336058E+02 0.  0.
         -6    2    1    2    0  502 -0.36480062410E+02  0.23007250346E+02  0.15695048242E+04  0.15794603258E+04  0.17172477791E+03 0.  0.
        -24    2    5    5    0    0 -0.19278002792E+02 -0.32935342292E+02  0.47322236529E+03  0.48160659964E+03  0.80926705373E+02 0.  0.
          5    1    3    3  501    0 -0.38090116479E+02  0.24996962441E+02  0.61895725076E+02  0.76999194069E+02  0.47000000000E+01 0. -1.
        -13    1    4    4    0    0  0.23519051454E+02  0.15408199889E+02  0.49646530287E+02  0.57055555161E+02  0.00000000000E+00 0.  1.
         14    1    4    4    0    0  0.51051127435E+02 -0.63412412677E+02  0.38183454205E+03  0.39041640488E+03  0.00000000000E+00 0. -1.
         -5    1    5    5    0  502 -0.17202059619E+02  0.55942592638E+02  0.10962824589E+04  0.10978537262E+04  0.47000000000E+01 0.  1.
         13    1    6    6    0    0  0.24042696958E+01  0.24750488755E+02  0.19883291769E+03  0.20038187633E+03  0.00000000000E+00 0. -1.
        -14    1    6    6    0    0 -0.21682272488E+02 -0.57685831046E+02  0.27438944760E+03  0.28122472331E+03  0.00000000000E+00 0.  1.
</event>
<event>
12    1  0.8407180E-002  0.3289409E+03  0.7818608E-02  0.1071882E+00
         21   -1    0    0  501  502  0.00000000000E+00  0.00000000000E+00  0.18665397318E+03  0.18665397318E+03  0.00000000000E+00 0. -1.
         21   -1    0    0  502  503 -0.00000000000E+00 -0.00000000000E+00 -0.63722163749E+03  0.63722163749E+03  0.00000000000E+00 0.  1.
         -6    2    1    2    0  503  0.24568081349E+03 -0.13517553382E+03 -0.35440748503E+03  0.48353569086E+03  0.17196107649E+03 0.  0.
        -24    2    3    3    0    0  0.89969575480E+02 -0.11461554530E+03 -0.22076723608E+03  0.27725794385E+03  0.83081569361E+02 0.  0.
          6    2    1    2  501    0 -0.24568081349E+03  0.13517553382E+03 -0.96160179281E+02  0.34033991982E+03  0.16719148866E+03 0.  0.
         24    2    5    5    0    0 -0.20611392801E+03  0.10166848163E+03 -0.13268047674E+03  0.27674681406E+03  0.78519161415E+02 0.  0.
          5    1    5    5  501    0 -0.39566885477E+02  0.33507052197E+02  0.36520297457E+02  0.63593105756E+02  0.47000000000E+01 0. -1.
        -11    1    6    6    0    0 -0.70098919715E+02  0.31391445033E+02 -0.88958413254E+02  0.11752821217E+03  0.00000000000E+00 0.  1.
         12    1    6    6    0    0 -0.13601500829E+03  0.70277036593E+02 -0.43722063485E+02  0.15921860189E+03  0.00000000000E+00 0. -1.
         -5    1    3    3    0  503  0.15571123801E+03 -0.20559988526E+02 -0.13364024895E+03  0.20627774700E+03  0.47000000000E+01 0.  1.
         11    1    4    4    0    0 -0.25608622537E+01 -0.52688402516E+02 -0.45749079304E+02  0.69825525650E+02  0.00000000000E+00 0. -1.
        -12    1    4    4    0    0  0.92530437734E+02 -0.61927142781E+02 -0.17501815678E+03  0.20743241820E+03  0.00000000000E+00 0.  1.
</event>
<event>
12    1  0.8407180E-002  0.2181414E+03  0.7818608E-02  0.1135397E+00
         21   -1    0    0  503  502  0.00000000000E+00  0.00000000000E+00  0.39526387177E+03  0.39526387177E+03  0.00000000000E+00 0.  1.
         21   -1    0    0  501  503 -0.00000000000E+00 -0.00000000000E+00 -0.12596208169E+03  0.12596208169E+03  0.00000000000E+00 0.  1.
          6    2    1    2  501    0  0.63051547293E+02 -0.11755654255E+03  0.19136201088E+03  0.29018114469E+03  0.17259965010E+03 0.  0.
         24    2    3    3    0    0  0.14680771959E+02 -0.44732559978E+02  0.14161908920E+02  0.92532389373E+02  0.78391048159E+02 0.  0.
         -6    2    1    2    0  502 -0.63051547293E+02  0.11755654255E+03  0.77939779208E+02  0.23104480878E+03  0.17179073365E+03 0.  0.
        -24    2    5    5    0    0 -0.66652456864E+02  0.24783555811E+02  0.88135274738E+02  0.13752565701E+03  0.78030154667E+02 0.  0.
          5    1    3    3  501    0  0.48370775335E+02 -0.72823982573E+02  0.17720010196E+03  0.19764875531E+03  0.47000000000E+01 0. -1.
        -13    1    4    4    0    0  0.36822782182E+01 -0.42661031173E+02  0.43556416194E+02  0.61079326660E+02  0.00000000000E+00 0.  1.
         14    1    4    4    0    0  0.10998493740E+02 -0.20715288044E+01 -0.29394507274E+02  0.31453062713E+02  0.00000000000E+00 0. -1.
         -5    1    5    5    0  502  0.36009095708E+01  0.92772986740E+02 -0.10195495530E+02  0.93519151768E+02  0.47000000000E+01 0.  1.
         11    1    6    6    0    0 -0.65617886841E+02 -0.51885536153E+00  0.26278865530E+02  0.70686314502E+02  0.00000000000E+00 0. -1.
        -12    1    6    6    0    0 -0.10345700231E+01  0.25302411173E+02  0.61856409208E+02  0.66839342504E+02  0.00000000000E+00 0.  1.
</event>
<event>
12    1  0.8407180E-002  0.3444566E+03  0.7818608E-02  0.1064970E+00
         21   -1    0    0  503  502  0.00000000000E+00  0.00000000000E+00  0.11318586635E+03  0.11318586635E+03  0.00000000000E+00 0. -1.
         21   -1    0    0  501  503 -0.00000000000E+00 -0.00000000000E+00 -0.17288999779E+04  0.17288999779E+04  0.00000000000E+00 0.  1.
          6    2    1    2  501    0 -0.19067025855E+03  0.22914660437E+03 -0.13868309017E+04  0.14289682643E+04  0.17258921326E+03 0.  0.
         24    2    3    3    0    0 -0.98960731128E+02  0.14048029538E+03 -0.10800682149E+04  0.10967066388E+04  0.81793416209E+02 0.  0.
         -6    2    1    2    0  502  0.19067025855E+03 -0.22914660437E+03 -0.22888320984E+03  0.41311758000E+03  0.17150888421E+03 0.  0.
        -24    2    5    5    0    0  0.17921655891E+03 -0.25144552432E+03 -0.20997614987E+03  0.38136862753E+03  0.77515287897E+02 0.  0.
          5    1    3    3  501    0 -0.91709527425E+02  0.88666308987E+02 -0.30676268680E+03  0.33226162550E+03  0.47000000000E+01 0. -1.
        -13    1    4    4    0    0 -0.36707159872E+02  0.29081425020E+02 -0.52838080885E+03  0.53045209400E+03  0.00000000000E+00 0.  1.
         14    1    4    4    0    0 -0.62253571256E+02  0.11139887036E+03 -0.55168740609E+03  0.56625454479E+03  0.00000000000E+00 0. -1.
         -5    1    5    5    0  502  0.11453699645E+02  0.22298919949E+02 -0.18907059970E+02  0.31748952473E+02  0.47000000000E+01 0.  1.
         13    1    6    6    0    0  0.75578038228E+02 -0.49323419723E+02 -0.73379677472E+02  0.11631602066E+03  0.00000000000E+00 0. -1.
        -14    1    6    6    0    0  0.10363852068E+03 -0.20212210460E+03 -0.13659647240E+03  0.26505260687E+03  0.00000000000E+00 0.  1.
</event>
<event>
12    1  0.8407180E-002  0.2564452E+03  0.7818608E-02  0.1109730E+00
         21   -1    0    0  503  502  0.00000000000E+00  0.00000000000E+00  0.32886734429E+03  0.32886734429E+03  0.00000000000E+00 0.  1.
         21   -1    0    0  501  503 -0.00000000000E+00 -0.00000000000E+00 -0.23851716080E+03  0.23851716080E+03  0.00000000000E+00 0. -1.
          6    2    1    2  501    0 -0.53486666179E+02 -0.17829561041E+03  0.16261270083E+03  0.30365612970E+03  0.17639162815E+03 0.  0.
         24    2    3    3    0    0  0.87908420834E+01 -0.17258738443E+03  0.10102449817E+03  0.21575693410E+03  0.80507274292E+02 0.  0.
         -6    2    1    2    0  502  0.53486666179E+02  0.17829561041E+03 -0.72262517336E+02  0.26372837539E+03  0.17228069080E+03 0.  0.
        -24    2    5    5    0    0  0.90062388805E+02  0.11858955484E+03 -0.89691114008E+02  0.19142040529E+03  0.80140871190E+02 0.  0.
          5    1    3    3  501    0 -0.62277508263E+02 -0.57082259801E+01  0.61588202660E+02  0.87899195594E+02  0.47000000000E+01 0. -1.
        -11    1    4    4    0    0 -0.19383847453E+02 -0.84291873239E+02  0.85806047220E+02  0.12183403127E+03  0.00000000000E+00 0.  1.
         12    1    4    4    0    0  0.28174689537E+02 -0.88295511193E+02  0.15218450950E+02  0.93922902833E+02  0.00000000000E+00 0. -1.
         -5    1    5    5    0  502 -0.36575722626E+02  0.59706055574E+02  0.17428596672E+02  0.72307970098E+02  0.47000000000E+01 0.  1.
         11    1    6    6    0    0  0.24731330046E+01  0.66821631585E+02 -0.42792420387E+02  0.79387896289E+02  0.00000000000E+00 0. -1.
        -12    1    6    6    0    0  0.87589255800E+02  0.51767923253E+02 -0.46898693621E+02  0.11203250900E+03  0.00000000000E+00 0.  1.
</event>
<event>
12    1  0.8407180E-002  0.1838614E+03  0.7818608E-02  0.1164303E+00
         21   -1    0    0  503  502  0.00000000000E+00  0.00000000000E+00  0.46565134291E+03  0.46565134291E+03  0.00000000000E+00 0.  1.
         21   -1    0    0  501  503 -0.00000000000E+00 -0.00000000000E+00 -0.13024803662E+03  0.13024803662E+03  0.00000000000E+00 0.  1.
          6    2    1    2  501    0  0.10152674940E+02  0.60904980125E+02 -0.30857773067E+02  0.18643288768E+03  0.17318350394E+03 0.  0.
         24    2    3    3    0    0  0.51355645118E+02  0.90034437509E+02 -0.35720368322E+02  0.13552174085E+03  0.79665521440E+02 0.  0.
         -6    2    1    2    0  502 -0.10152674940E+02 -0.60904980125E+02  0.36626107936E+03  0.40946649186E+03  0.17234597845E+03 0.  0.
        -24    2    5    5    0    0  0.26884822025E+02 -0.26670668662E+02  0.34248085885E+03  0.35350799697E+03  0.78997765921E+02 0.  0.
          5    1    3    3  501    0 -0.41202970178E+02 -0.29129457384E+02  0.48625952555E+01  0.50911146831E+02  0.47000000000E+01 0. -1.
        -11    1    4    4    0    0  0.61044201067E+01  0.20109503445E+02 -0.46987807039E+02  0.51473392000E+02  0.00000000000E+00 0.  1.
         12    1    4    4    0    0  0.45251225011E+02  0.69924934064E+02  0.11267438717E+02  0.84048348848E+02  0.00000000000E+00 0. -1.
         -5    1    5    5    0  502 -0.37037496965E+02 -0.34234311463E+02  0.23780220509E+02  0.55958494889E+02  0.47000000000E+01 0.  1.
         13    1    6    6    0    0  0.41092976780E+02 -0.16188903038E+02  0.88448404503E+02  0.98862700658E+02  0.00000000000E+00 0. -1.
        -14    1    6    6    0    0 -0.14208154755E+02 -0.10481765624E+02  0.25403245435E+03  0.25464529631E+03  0.00000000000E+00 0.  1.
</event>
<event>
12    1  0.8407180E-002  0.2104661E+03  0.7818608E-02  0.1141378E+00
         21   -1    0    0  503  502  0.00000000000E+00  0.00000000000E+00  0.11901808994E+03  0.11901808994E+03  0.00000000000E+00 0. -1.
         21   -1    0    0  501  503 -0.00000000000E+00 -0.00000000000E+00 -0.45711483186E+03  0.45711483186E+03  0.00000000000E+00 0. -1.
          6    2    1    2  501    0 -0.15531805688E+02  0.12030825772E+03 -0.29469364015E+03  0.36213301336E+03  0.17199030193E+03 0.  0.
         24    2    3    3    0    0 -0.24213831975E+02  0.49334889716E+02 -0.55280655147E+02  0.11222650297E+03  0.80737823440E+02 0.  0.
         -6    2    1    2    0  502  0.15531805688E+02 -0.12030825772E+03 -0.43403101782E+02  0.21399990844E+03  0.17087076317E+03 0.  0.
        -24    2    5    5    0    0 -0.49812991689E+02 -0.10651897122E+03 -0.34513346809E+02  0.14646321686E+03  0.80203973800E+02 0.  0.
          5    1    3    3  501    0  0.86820262864E+01  0.70973368005E+02 -0.23941298500E+03  0.24990651038E+03  0.47000000000E+01 0. -1.
        -13    1    4    4    0    0  0.85174232138E+01 -0.19027362283E+02 -0.18960561088E+02  0.28179600608E+02  0.00000000000E+00 0.  1.
         14    1    4    4    0    0 -0.32731255188E+02  0.68362252000E+02 -0.36320094059E+02  0.84046902365E+02  0.00000000000E+00 0. -1.
         -5    1    5    5    0  502  0.65344797377E+02 -0.13789286498E+02 -0.88897549737E+01  0.67536691582E+02  0.47000000000E+01 0.  1.
         11    1    6    6    0    0  0.21806288802E+02 -0.33045448982E+02 -0.12560778303E+02  0.41536599299E+02  0.00000000000E+00 0. -1.
        -12    1    6    6    0    0 -0.71619280491E+02 -0.73473522242E+02 -0.21952568506E+02  0.10492661756E+03  0.00000000000E+00 0.  1.
</event>
<event>
12    1  0.8407180E-002  0.1851203E+03  0.7818608E-02  0.1163798E+00
         21   -1    0    0  503  502  0.00000000000E+00  0.00000000000E+00  0.32095817943E+03  0.32095817943E+03  0.00000000000E+00 0. -1.
         21   -1    0    0  501  503 -0.00000000000E+00 -0.00000000000E+00 -0.13111954965E+03  0.13111954965E+03  0.00000000000E+00 0. -1.
          6    2    1    2  501    0  0.55406443026E+02 -0.29620743100E+02 -0.73369971645E+01  0.18161930550E+03  0.17024828414E+03 0.  0.
         24    2    3    3    0    0  0.79086875466E+02 -0.19427085183E+02  0.45792979745E+02  0.12237778300E+03  0.79039099612E+02 0.  0.
         -6    2    1    2    0  502 -0.55406443026E+02  0.29620743100E+02  0.19717562694E+03  0.27045842358E+03  0.17413290520E+03 0.  0.
        -24    2    5    5    0    0 -0.20572319367E+02 -0.51166728346E+02  0.10729407224E+03  0.14459812170E+03  0.79720414246E+02 0.  0.
          5    1    3    3  501    0 -0.23680432440E+02 -0.10193657917E+02 -0.53129976909E+02  0.59241522505E+02  0.47000000000E+01 0. -1.
        -11    1    4    4    0    0  0.80986205142E+02 -0.88757034835E+01  0.65921798981E+01  0.81737386620E+02  0.00000000000E+00 0.  1.
         12    1    4    4    0    0 -0.18993296763E+01 -0.10551381700E+02  0.39200799847E+02  0.40640396376E+02  0.00000000000E+00 0. -1.
         -5    1    5    5    0  502 -0.34834123659E+02  0.80787471446E+02  0.89881554706E+02  0.12586030188E+03  0.47000000000E+01 0.  1.
         11    1    6    6    0    0 -0.18795890551E+02 -0.16422073398E+02  0.10693190004E+03  0.10980619856E+03  0.00000000000E+00 0. -1.
        -12    1    6    6    0    0 -0.17764288159E+01 -0.34744654947E+02  0.36217219599E+00  0.34791923135E+02  0.00000000000E+00 0.  1.
</event>
<event>
12    1  0.8407180E-002  0.2397635E+03  0.7818608E-02  0.1120189E+00
         21   -1    0    0  501  502  0.00000000000E+00  0.00000000000E+00  0.54455053040E+03  0.54455053040E+03  0.00000000000E+00 0.  1.
         21   -1    0    0  502  503 -0.00000000000E+00 -0.00000000000E+00 -0.13476287351E+03  0.13476287351E+03  0.00000000000E+00 0. -1.
         -6    2    1    2    0  503  0.12732697901E+03  0.10532892216E+03  0.44632139739E+02  0.24247809126E+03  0.17174765040E+03 0.  0.
        -24    2    3    3    0    0  0.47645136033E+02  0.10814855278E+03 -0.13262625343E+02  0.14383205616E+03  0.80904849626E+02 0.  0.
          6    2    1    2  501    0 -0.12732697901E+03 -0.10532892216E+03  0.36515551716E+03  0.43683531265E+03  0.17372448658E+03 0.  0.
         24    2    5    5    0    0 -0.80113453270E+02 -0.11309030786E+03  0.15721505406E+03  0.22340925446E+03  0.77379187305E+02 0.  0.
          5    1    5    5  501    0 -0.47213525737E+02  0.77613856981E+01  0.20794046310E+03  0.21342605819E+03  0.47000000000E+01 0. -1.
        -13    1    6    6    0    0 -0.22137367879E+02 -0.57722799984E+02  0.12007757692E+03  0.13505779938E+03  0.00000000000E+00 0.  1.
         14    1    6    6    0    0 -0.57976085391E+02 -0.55367507875E+02  0.37137477134E+02  0.88351455073E+02  0.00000000000E+00 0. -1.
         -5    1    3    3    0  503  0.79681842975E+02 -0.28196306216E+01  0.57894765081E+02  0.98646035098E+02  0.47000000000E+01 0.  1.
         13    1    4    4    0    0  0.29667692188E+02  0.11179602468E+02  0.22554233478E+02  0.38908211458E+02  0.00000000000E+00 0. -1.
        -14    1    4    4    0    0  0.17977443845E+02  0.96968950314E+02 -0.35816858820E+02  0.10492384471E+03  0.00000000000E+00 0.  1.
</event>
<event>
12    1  0.8407180E-002  0.2157969E+03  0.7818608E-02  0.1137112E+00
         21   -1    0    0  501  502  0.00000000000E+00  0.00000000000E+00  0.50992567739E+03  0.50992567739E+03  0.00000000000E+00 0.  1.
         21   -1    0    0  502  503 -0.00000000000E+00 -0.00000000000E+00 -0.22779559848E+03  0.22779559848E+03  0.00000000000E+00 0.  1.
         -6    2    1    2    0  503  0.12937957386E+03 -0.48730169868E+01 -0.14460531683E+03  0.25952528673E+03  0.17227842689E+03 0.  0.
        -24    2    3    3    0    0  0.76798363920E+01  0.25064320867E+02 -0.45202335440E+02  0.99493686707E+02  0.84667245719E+02 0.  0.
          6    2    1    2  501    0 -0.12937957386E+03  0.48730169868E+01  0.42673539574E+03  0.47819598915E+03  0.17264265299E+03 0.  0.
         24    2    5    5    0    0 -0.37351083888E+02 -0.55296994281E+02  0.21570968135E+03  0.24019679722E+03  0.81920532982E+02 0.  0.
          5    1    5    5  501    0 -0.92028489971E+02  0.60170011268E+02  0.21102571439E+03  0.23799919193E+03  0.47000000000E+01 0. -1.
        -11    1    6    6    0    0 -0.33661967072E+02 -0.33780321344E+02  0.37532209687E+02  0.60686941768E+02  0.00000000000E+00 0.  1.
         12    1    6    6    0    0 -0.36891168154E+01 -0.21516672938E+02  0.17817747166E+03  0.17950985545E+03  0.00000000000E+00 0. -1.
         -5    1    3    3    0  503  0.12169973747E+03 -0.29937337854E+02 -0.99402981387E+02  0.16003160002E+03  0.47000000000E+01 0.  1.
         11    1    4    4    0    0 -0.17078417346E+02 -0.22580214898E+02 -0.34697667331E+02  0.44782435866E+02  0.00000000000E+00 0. -1.
        -12    1    4    4    0    0  0.24758253738E+02  0.47644535765E+02 -0.10504668109E+02  0.54711250840E+02  0.00000000000E+00 0.  1.
</event>
<event>
12    1  0.8407180E-002  0.1859814E+03  0.7818608E-02  0.1162429E+00
         21   -1    0    0  503  502  0.00000000000E+00  0.00000000000E+00  0.22549299482E+03  0.22549299482E+03  0.00000000000E+00 0. -1.
         21   -1    0    0  501  503 -0.00000000000E+00 -0.00000000000E+00 -0.45810279417E+03  0.45810279417E+03  0.00000000000E+00 0. -1.
          6    2    1    2  501    0  0.37584169075E+02  0.61095683330E+02 -0.39540668261E+03  0.43642802281E+03  0.17022844109E+03 0.  0.
         24    2    3    3    0    0  0.81768174498E+02  0.34915908019E+02 -0.19385968047E+03  0.22838742331E+03  0.81695069743E+02 0.  0.
         -6    2    1    2    0  502 -0.37584169075E+02 -0.61095683330E+02  0.16279688327E+03  0.24716776618E+03  0.17159203696E+03 0.  0.
        -24    2    5    5    0    0 -0.61825046661E+02  0.14767491044E+02  0.79125697852E+02  0.13155721890E+03  0.83701915145E+02 0.  0.
          5    1    3    3  501    0 -0.44184005423E+02  0.26179775311E+02 -0.20154700214E+03  0.20804059950E+03  0.47000000000E+01 0. -1.
        -13    1    4    4    0    0 -0.15759816812E+02  0.90014414041E+01 -0.17582180052E+02  0.25269167550E+02  0.00000000000E+00 0.  1.
         14    1    4    4    0    0  0.97527991310E+02  0.25914466615E+02 -0.17627750042E+03  0.20311825576E+03  0.00000000000E+00 0. -1.
         -5    1    5    5    0  502  0.24240877586E+02 -0.75863174374E+02  0.83671185415E+02  0.11561054727E+03  0.47000000000E+01 0.  1.
         13    1    6    6    0    0 -0.22689317400E+02 -0.34729353706E+02  0.37851991147E+02  0.56157870033E+02  0.00000000000E+00 0. -1.
        -14    1    6    6    0    0 -0.39135729261E+02  0.49496844750E+02  0.41273706705E+02  0.75399348871E+02  0.00000000000E+00 0.  1.
</event>
<event>
12    1  0.8407180E-002  0.2054713E+03  0.7818608E-02  0.1146849E+00
         21   -1    0    0  501  502  0.00000000000E+00  0.00000000000E+00  0.19682600326E+03  0.19682600326E+03  0.00000000000E+00 0. -1.
         21   -1    0    0  502  503 -0.00000000000E+00 -0.00000000000E+00 -0.37083293373E+03  0.37083293373E+03  0.00000000000E+00 0. -1.
         -6    2    1    2    0  503  0.11856701195E+03  0.22079263104E+02 -0.27508220292E+03  0.33867277483E+03  0.15647172227E+03 0.  0.
        -24    2    3    3    0    0  0.45215363259E+02  0.63093950987E+02 -0.18880096434E+03  0.21813559751E+03  0.76889915062E+02 0.  0.
          6    2    1    2  501    0 -0.11856701195E+03 -0.22079263104E+02  0.10107527245E+03  0.22898616216E+03  0.16635150007E+03 0.  0.
         24    2    5    5    0    0 -0.47273332299E+01 -0.39553234990E+02  0.57494587371E+02  0.10575394942E+03  0.79318750388E+02 0.  0.
          5    1    5    5  501    0 -0.11383967872E+03  0.17473971887E+02  0.43580685080E+02  0.12323221274E+03  0.47000000000E+01 0. -1.
        -11    1    6    6    0    0  0.20614344152E+02 -0.20476838628E+02 -0.10363165952E+02  0.30848781395E+02  0.00000000000E+00 0.  1.
         12    1    6    6    0    0 -0.25341677382E+02 -0.19076396363E+02  0.67857753323E+02  0.74905168025E+02  0.00000000000E+00 0. -1.
         -5    1    3    3    0  503  0.73351648689E+02 -0.41014687883E+02 -0.86281238575E+02  0.12053717733E+03  0.47000000000E+01 0.  1.
         13    1    4    4    0    0  0.39922299002E+02  0.38001768236E+02 -0.42489329656E+02  0.69593587933E+02  0.00000000000E+00 0. -1.
        -14    1    4    4    0    0  0.52930642570E+01  0.25092182751E+02 -0.14631163469E+03  0.14854200958E+03  0.00000000000E+00 0.  1.
</event>
<event>
12    1  0.8407180E-002  0.2170044E+03  0.7818608E-02  0.1136300E+00
         21   -1    0    0  503  502  0.00000000000E+00  0.00000000000E+00  0.79019396316E+02  0.79019396316E+02  0.00000000000E+00 0.  1.
         21   -1    0    0  501  503 -0.00000000000E+00 -0.00000000000E+00 -0.60565178194E+03  0.60565178194E+03  0.00000000000E+00 0. -1.
          6    2    1    2  501    0  0.87845687569E+02 -0.95730356718E+02 -0.21548498995E+03  0.30581808335E+03  0.17380953134E+03 0.  0.
         24    2    3    3    0    0  0.80648703129E+02 -0.13085626951E+03 -0.14522058070E+03  0.22679401396E+03  0.81969086386E+02 0.  0.
         -6    2    1    2    0  502 -0.87845687569E+02  0.95730356718E+02 -0.31114739567E+03  0.37885309491E+03  0.17273042485E+03 0.  0.
        -24    2    5    5    0    0 -0.24973716198E+02  0.70114379982E+02 -0.28573485784E+03  0.30621047569E+03  0.81121721229E+02 0.  0.
          5    1    3    3  501    0  0.71969844406E+01  0.35125912793E+02 -0.70264409249E+02  0.79024069382E+02  0.47000000000E+01 0. -1.
        -11    1    4    4    0    0  0.60513959461E+02 -0.24842177869E+02 -0.43955824877E+02  0.78811088253E+02  0.00000000000E+00 0.  1.
         12    1    4    4    0    0  0.20134743667E+02 -0.10601409164E+03 -0.10126475583E+03  0.14798292571E+03  0.00000000000E+00 0. -1.
         -5    1    5    5    0  502 -0.62871971372E+02  0.25615976736E+02 -0.25412537830E+02  0.72642619221E+02  0.47000000000E+01 0.  1.
         11    1    6    6    0    0 -0.28171704985E+02 -0.18395853519E+01 -0.14915225399E+03  0.15180060575E+03  0.00000000000E+00 0. -1.
        -12    1    6    6    0    0  0.31979887871E+01  0.71953965334E+02 -0.13658260385E+03  0.15440986994E+03  0.00000000000E+00 0.  1.
</event>
<event>
12    1  0.8407180E-002  0.2263095E+03  0.7818608E-02  0.1129484E+00
         21   -1    0    0  503  502  0.00000000000E+00  0.00000000000E+00  0.22826312625E+03  0.22826312625E+03  0.00000000000E+00 0.  1.
         21   -1    0    0  501  503 -0.00000000000E+00 -0.00000000000E+00 -0.31507300135E+03  0.31507300135E+03  0.00000000000E+00 0. -1.
          6    2    1    2  501    0 -0.12950210576E+03 -0.67749473147E+02  0.10323506251E+03  0.24874380180E+03  0.17278661491E+03 0.  0.
         24    2    3    3    0    0 -0.10475510466E+03 -0.11213559109E+03  0.94313971097E+02  0.19693436828E+03  0.79624101411E+02 0.  0.
         -6    2    1    2    0  502  0.12950210576E+03  0.67749473147E+02 -0.19004493761E+03  0.29459232581E+03  0.17119221245E+03 0.  0.
        -24    2    5    5    0    0  0.53274273062E+02  0.19026727838E+02 -0.17848460592E+03  0.20326697523E+03  0.79123600308E+02 0.  0.
          5    1    3    3  501    0 -0.24747001098E+02  0.44386117938E+02  0.89210914091E+01  0.51809433513E+02  0.47000000000E+01 0. -1.
        -13    1    4    4    0    0 -0.47257004491E+02 -0.82151325227E+01  0.52277022539E+02  0.70947867913E+02  0.00000000000E+00 0.  1.
         14    1    4    4    0    0 -0.57498100174E+02 -0.10392045856E+03  0.42036948558E+02  0.12598650037E+03  0.00000000000E+00 0. -1.
         -5    1    5    5    0  502  0.76227832701E+02  0.48722745309E+02 -0.11560331691E+02  0.91325350574E+02  0.47000000000E+01 0.  1.
         13    1    6    6    0    0  0.60409715556E+02 -0.14517680938E+02 -0.10177722188E+03  0.11924218921E+03  0.00000000000E+00 0. -1.
        -14    1    6    6    0    0 -0.71354424936E+01  0.33544408776E+02 -0.76707384041E+02  0.84024786022E+02  0.00000000000E+00 0.  1.
</event>
<event>
12    1  0.8407180E-002  0.2739777E+03  0.7818608E-02  0.1099062E+00
         21   -1    0    0  503  502  0.00000000000E+00  0.00000000000E+00  0.52207604326E+03  0.52207604326E+03  0.00000000000E+00 0.  1.
         21   -1    0    0  501  503 -0.00000000000E+00 -0.00000000000E+00 -0.20334019929E+03  0.20334019929E+03  0.00000000000E+00 0. -1.
          6    2    1    2  501    0 -0.88792162134E+02  0.19326209704E+03 -0.37217591170E+02  0.27623182426E+03  0.17229215139E+03 0.  0.
         24    2    3    3    0    0  0.11040193722E+01  0.57617443183E+02  0.29260859842E+02  0.10038453250E+03  0.76810597114E+02 0.  0.
         -6    2    1    2    0  502  0.88792162134E+02 -0.19326209704E+03  0.35595343514E+03  0.44918441830E+03  0.17271220990E+03 0.  0.
        -24    2    5    5    0    0 -0.11789551314E+02 -0.12192744101E+03  0.23032976605E+03  0.27309151536E+03  0.80758158971E+02 0.  0.
          5    1    3    3  501    0 -0.89896181506E+02  0.13564465385E+03 -0.66478451011E+02  0.17584729176E+03  0.47000000000E+01 0. -1.
        -11    1    4    4    0    0 -0.32088895265E+02  0.17393438273E+02  0.31460478345E+02  0.48187037593E+02  0.00000000000E+00 0.  1.
         12    1    4    4    0    0  0.33192914637E+02  0.40224004910E+02 -0.21996185034E+01  0.52197494907E+02  0.00000000000E+00 0. -1.
         -5    1    5    5    0  502  0.10058171345E+03 -0.71334656027E+02  0.12562366909E+03  0.17609290294E+03  0.47000000000E+01 0.  1.
         11    1    6    6    0    0 -0.33608208497E+01 -0.44659255586E+02  0.16679166857E+03  0.17269975371E+03  0.00000000000E+00 0. -1.
        -12    1    6    6    0    0 -0.84287304648E+01 -0.77268185425E+02  0.63538097482E+02  0.10039176165E+03  0.00000000000E+00 0.  1.
</event>
<event>
12    1  0.8407180E-002  0.1929623E+03  0.7818608E-02  0.1155902E+00
         21   -1    0    0  501  502  0.00000000000E+00  0.00000000000E+00  0.21502480679E+03  0.21502480679E+03  0.00000000000E+00 0.  1.
         21   -1    0    0  502  503 -0.00000000000E+00 -0.00000000000E+00 -0.17285029526E+03  0.17285029526E+03  0.00000000000E+00 0.  1.
         -6    2    1    2    0  503  0.50837009002E+02 -0.67582780024E+02  0.23839989224E+02  0.19442937316E+03  0.17344336950E+03 0.  0.
        -24    2    3    3    0    0  0.98053806801E+00 -0.91581404501E+02  0.52920535186E+02  0.13174468744E+03  0.78536389773E+02 0.  0.
          6    2    1    2  501    0 -0.50837009002E+02  0.67582780024E+02  0.18334522306E+02  0.19344572889E+03  0.17301231655E+03 0.  0.
         24    2    5    5    0    0 -0.60491423367E+02 -0.11466544543E+02  0.48895333615E+02  0.10801706497E+03  0.74069148312E+02 0.  0.
          5    1    5    5  501    0  0.96544143646E+01  0.79049324567E+02 -0.30560811309E+02  0.85428663920E+02  0.47000000000E+01 0. -1.
        -13    1    6    6    0    0 -0.35617803361E+02  0.26634301200E+02  0.49334594444E+01  0.44747658472E+02  0.00000000000E+00 0.  1.
         14    1    6    6    0    0 -0.24873620006E+02 -0.38100845743E+02  0.43961874171E+02  0.63269406502E+02  0.00000000000E+00 0. -1.
         -5    1    3    3    0  503  0.49856470934E+02  0.23998624477E+02 -0.29080545963E+02  0.62684685724E+02  0.47000000000E+01 0.  1.
         11    1    4    4    0    0 -0.22487984222E+01 -0.10333210440E+02  0.49225309218E+02  0.50348420034E+02  0.00000000000E+00 0. -1.
        -12    1    4    4    0    0  0.32293364902E+01 -0.81248194061E+02  0.36952259683E+01  0.81396267404E+02  0.00000000000E+00 0.  1.
</event>
<event>
12    1  0.8407180E-002  0.2037789E+03  0.7818608E-02  0.1146831E+00
         21   -1    0    0  501  502  0.00000000000E+00  0.00000000000E+00  0.36281741307E+02  0.36281741307E+02  0.00000000000E+00 0. -1.
         21   -1    0    0  502  503 -0.00000000000E+00 -0.00000000000E+00 -0.12281813404E+04  0.12281813404E+04  0.00000000000E+00 0. -1.
         -6    2    1    2    0  503  0.10638135522E+03 -0.22833458415E+02 -0.42619456862E+03  0.47240623204E+03  0.17230054609E+03 0.  0.
        -24    2    3    3    0    0  0.54462562764E+02 -0.72705412856E+02 -0.33602389319E+03  0.35692630495E+03  0.78943540430E+02 0.  0.
          6    2    1    2  501    0 -0.10638135522E+03  0.22833458415E+02 -0.76570503049E+03  0.79205684969E+03  0.17091372052E+03 0.  0.
         24    2    5    5    0    0 -0.77126325212E+02  0.46822379948E+02 -0.73002505764E+03  0.73984118538E+03  0.79294321955E+02 0.  0.
          5    1    5    5  501    0 -0.29255030007E+02 -0.23988921533E+02 -0.35679972849E+02  0.52215664312E+02  0.47000000000E+01 0. -1.
        -13    1    6    6    0    0 -0.48045164766E+02 -0.92496349172E+01 -0.45665327934E+03  0.45926692798E+03  0.00000000000E+00 0.  1.
         14    1    6    6    0    0 -0.29081160446E+02  0.56072014865E+02 -0.27337177831E+03  0.28057425740E+03  0.00000000000E+00 0. -1.
         -5    1    3    3    0  503  0.51918792455E+02  0.49871954442E+02 -0.90170675438E+02  0.11547992708E+03  0.47000000000E+01 0.  1.
         11    1    4    4    0    0  0.40664389321E+02 -0.66421816605E+02 -0.13909110489E+03  0.15941074537E+03  0.00000000000E+00 0. -1.
        -12    1    4    4    0    0  0.13798173443E+02 -0.62835962515E+01 -0.19693278829E+03  0.19751555958E+03  0.00000000000E+00 0.  1.
</event>
<event>
12    1  0.8407180E-002  0.1912608E+03  0.7818608E-02  0.1157455E+00
         21   -1    0    0  503  502  0.00000000000E+00  0.00000000000E+00  0.71804524352E+02  0.71804524352E+02  0.00000000000E+00 0. -1.
         21   -1    0    0  501  503 -0.00000000000E+00 -0.00000000000E+00 -0.10742130284E+04  0.10742130284E+04  0.00000000000E+00 0. -1.
          6    2    1    2  501    0 -0.16515191499E+02  0.80624442775E+02 -0.85522999325E+02  0.20951100325E+03  0.17264884809E+03 0.  0.
         24    2    3    3    0    0 -0.42915929448E+01 -0.16057894294E+02 -0.25042107038E+02  0.94720241450E+02  0.89825070422E+02 0.  0.
         -6    2    1    2    0  502  0.16515191499E+02 -0.80624442775E+02 -0.91688550471E+03  0.93650654949E+03  0.17202452199E+03 0.  0.
        -24    2    5    5    0    0  0.48960050641E+02  0.83982619983E+01 -0.38814406208E+03  0.39932193132E+03  0.79590040438E+02 0.  0.
          5    1    3    3  501    0 -0.12223598554E+02  0.96682337070E+02 -0.60480892287E+02  0.11479076180E+03  0.47000000000E+01 0. -1.
        -13    1    4    4    0    0 -0.63914965583E+01 -0.23724205263E+01 -0.58299023552E+02  0.58696301029E+02  0.00000000000E+00 0.  1.
         14    1    4    4    0    0  0.20999036135E+01 -0.13685473768E+02  0.33256916514E+02  0.36023940421E+02  0.00000000000E+00 0. -1.
         -5    1    5    5    0  502 -0.32444859143E+02 -0.89022704774E+02 -0.52874144262E+03  0.53718461817E+03  0.47000000000E+01 0.  1.
         13    1    6    6    0    0  0.68314542296E+02  0.68513323934E+01 -0.34825626544E+03  0.35495949609E+03  0.00000000000E+00 0. -1.
        -14    1    6    6    0    0 -0.19354491655E+02  0.15469296049E+01 -0.39887796647E+02  0.44362435233E+02  0.00000000000E+00 0.  1.
</event>
<event>
12    1  0.8407180E-002  0.1730959E+03  0.7818608E-02  0.1174710E+00
         21   -1    0    0  501  502  0.00000000000E+00  0.00000000000E+00  0.18716269098E+03  0.18716269098E+03  0.00000000000E+00 0.  1.
         21   -1    0    0  502  503 -0.00000000000E+00 -0.00000000000E+00 -0.21895783737E+03  0.21895783737E+03  0.00000000000E+00 0.  1.
         -6    2    1    2    0  503  0.85251428076E+01  0.13468949634E+02 -0.12135392856E+03  0.21122829468E+03  0.17215262366E+03 0.  0.
        -24    2    3    3    0    0 -0.41382612146E+02  0.21205517126E+02 -0.15092102359E+02  0.93481514730E+02  0.79679529980E+02 0.  0.
          6    2    1    2  501    0 -0.85251428076E+01 -0.13468949634E+02  0.89558782167E+02  0.19489223368E+03  0.17236042649E+03 0.  0.
         24    2    5    5    0    0 -0.70464659643E+02 -0.10959549992E+02  0.76719728042E+02  0.13141206242E+03  0.79358890390E+02 0.  0.
          5    1    5    5  501    0  0.61939516836E+02 -0.25093996414E+01  0.12839054125E+02  0.63480171260E+02  0.47000000000E+01 0. -1.
        -13    1    6    6    0    0 -0.59163127698E+02 -0.36403282649E+02  0.27196858046E+02  0.74599891114E+02  0.00000000000E+00 0.  1.
         14    1    6    6    0    0 -0.11301531945E+02  0.25443732657E+02  0.49522869996E+02  0.56812171306E+02  0.00000000000E+00 0. -1.
         -5    1    3    3    0  503  0.49907754954E+02 -0.77365674924E+01 -0.10626182620E+03  0.11774677995E+03  0.47000000000E+01 0.  1.
         13    1    4    4    0    0 -0.17541113373E+02 -0.13066237283E+02 -0.39477990860E+02  0.45132349567E+02  0.00000000000E+00 0. -1.
        -14    1    4    4    0    0 -0.23841498773E+02  0.34271754409E+02  0.24385888501E+02  0.48349165163E+02  0.00000000000E+00 0.  1.
</event>
<event>
12    1  0.8407180E-002  0.2397302E+03  0.7818608E-02  0.1121189E+00
         21   -1    0    0  503  502  0.00000000000E+00  0.00000000000E+00  0.21247622402E+04  0.21247622402E+04  0.00000000000E+00 0. -1.
         21   -1    0    0  501  503 -0.00000000000E+00 -0.00000000000E+00 -0.26926775871E+02  0.26926775871E+02  0.00000000000E+00 0.  1.
          6    2    1    2  501    0 -0.14604531750E+03  0.53928984222E+02  0.86214129758E+03  0.89295527602E+03  0.17275398079E+03 0.  0.
         24    2    3    3    0    0 -0.77873800617E+02  0.90220170615E+02  0.67582580682E+03  0.69121297004E+03  0.82648900686E+02 0.  0.
         -6    2    1    2    0  502  0.14604531750E+03 -0.53928984222E+02  0.12356941668E+04  0.12587337401E+04  0.18229916210E+03 0.  0.
        -24    2    5    5    0    0  0.88789987601E+02  0.20949022311E+02  0.95427770078E+03  0.96191358241E+03  0.79431016529E+02 0.  0.
          5    1    3    3  501    0 -0.68171516881E+02 -0.36291186393E+02  0.18631549076E+03  0.20174230597E+03  0.47000000000E+01 0. -1.
        -13    1    4    4    0    0 -0.83780531935E+01  0.23057275829E+02  0.36229061236E+03  0.36312025218E+03  0.00000000000E+00 0.  1.
         14    1    4    4    0    0 -0.69495747423E+02  0.67162894785E+02  0.31353519447E+03  0.32809271786E+03  0.00000000000E+00 0. -1.
         -5    1    5    5    0  502  0.57255329896E+02 -0.74878006532E+02  0.28141646600E+03  0.29682015767E+03  0.47000000000E+01 0.  1.
         13    1    6    6    0    0  0.31415101049E+02  0.72252799893E+01  0.70553283994E+03  0.70626885920E+03  0.00000000000E+00 0. -1.
        -14    1    6    6    0    0  0.57374886552E+02  0.13723742321E+02  0.24874486084E+03  0.25564472321E+03  0.00000000000E+00 0.  1.
</event>
<event>
12    1  0.8407180E-002  0.1765932E+03  0.7818608E-02  0.1172106E+00
         21   -1    0    0  501  502  0.00000000000E+00  0.00000000000E+00  0.20485567554E+03  0.20485567554E+03  0.00000000000E+00 0.  1.
         21   -1    0    0  502  503 -0.00000000000E+00 -0.00000000000E+00 -0.30398941494E+03  0.30398941494E+03  0.00000000000E+00 0.  1.
         -6    2    1    2    0  503  0.31336754088E+02  0.22495940757E+02 -0.23153484035E+03  0.29119331175E+03  0.17232847416E+03 0.  0.
        -24    2    3    3    0    0  0.20471579430E+02 -0.30135796830E+02 -0.48705927864E+02  0.10057155784E+03  0.80094438153E+02 0.  0.
          6    2    1    2  501    0 -0.31336754088E+02 -0.22495940757E+02  0.13240110095E+03  0.21765177872E+03  0.16838701179E+03 0.  0.
         24    2    5    5    0    0  0.37326272542E+02 -0.68027983146E+01  0.11574926491E+03  0.14512413165E+03  0.78889749482E+02 0.  0.
          5    1    5    5  501    0 -0.68663026630E+02 -0.15693142443E+02  0.16651836040E+02  0.72527647068E+02  0.47000000000E+01 0. -1.
        -11    1    6    6    0    0 -0.57793524441E+01  0.26395085190E+02  0.15733160427E+02  0.31267135684E+02  0.00000000000E+00 0.  1.
         12    1    6    6    0    0  0.43105624986E+02 -0.33197883505E+02  0.10001610448E+03  0.11385699597E+03  0.00000000000E+00 0. -1.
         -5    1    3    3    0  503  0.10865174658E+02  0.52631737587E+02 -0.18282891249E+03  0.19062175391E+03  0.47000000000E+01 0.  1.
         13    1    4    4    0    0 -0.29463441699E+01  0.26488549492E+02 -0.13026651251E+02  0.29665094656E+02  0.00000000000E+00 0. -1.
        -14    1    4    4    0    0  0.23417923600E+02 -0.56624346322E+02 -0.35679276613E+02  0.70906463187E+02  0.00000000000E+00 0.  1.
</event>
<event>
12    1  0.8407180E-002  0.1888399E+03  0.7818608E-02  0.1160613E+00
         21   -1    0    0  503  502  0.00000000000E+00  0.00000000000E+00  0.16821952214E+03  0.16821952214E+03  0.00000000000E+00 0. -1.
         21   -1    0    0  501  503 -0.00000000000E+00 -0.00000000000E+00 -0.71768859924E+03  0.71768859924E+03  0.00000000000E+00 0. -1.
          6    2    1    2  501    0 -0.57563608525E+02 -0.29094971747E+02 -0.64951889663E+03  0.67641355236E+03  0.17748354947E+03 0.  0.
         24    2    3    3    0    0  0.26912777679E+02  0.27510625065E+02 -0.31886622579E+03  0.33044573284E+03  0.77701868089E+02 0.  0.
         -6    2    1    2    0  502  0.57563608525E+02  0.29094971747E+02  0.10004981952E+03  0.20949456902E+03  0.17238886755E+03 0.  0.
        -24    2    5    5    0    0  0.10501809798E+02  0.36696089584E+02  0.13602135728E+03  0.14958938210E+03  0.49176036835E+02 0.  0.
          5    1    3    3  501    0 -0.84476386204E+02 -0.56605596812E+02 -0.33065267083E+03  0.34596781952E+03  0.47000000000E+01 0. -1.
        -11    1    4    4    0    0 -0.13954034208E+02  0.28710546572E+02 -0.56339584877E+02  0.64754608942E+02  0.00000000000E+00 0.  1.
         12    1    4    4    0    0  0.40866811887E+02 -0.11999215072E+01 -0.26252664092E+03  0.26569112390E+03  0.00000000000E+00 0. -1.
         -5    1    5    5    0  502  0.47061798727E+02 -0.76011178369E+01 -0.35971537762E+02  0.59905186928E+02  0.47000000000E+01 0.  1.
         11    1    6    6    0    0  0.21329275891E+02  0.34669831548E+02  0.13154521847E+03  0.13769923650E+03  0.00000000000E+00 0. -1.
        -12    1    6    6    0    0 -0.10827466094E+02  0.20262580355E+01  0.44761388104E+01  0.11890145596E+02  0.00000000000E+00 0.  1.
</event>
<event>
12    1  0.8407180E-002  0.2007282E+03  0.7818608E-02  0.1149268E+00
         21   -1    0    0  501  502  0.00000000000E+00  0.00000000000E+00  0.13932653318E+04  0.13932653318E+04  0.00000000000E+00 0. -1.
         21   -1    0    0  502  503 -0.00000000000E+00 -0.00000000000E+00 -0.29846672753E+02  0.29846672753E+02  0.00000000000E+00 0. -1.
         -6    2    1    2    0  503  0.12172731635E+02 -0.99223439578E+02  0.55097605226E+03  0.58640123764E+03  0.17406416915E+03 0.  0.
        -24    2    3    3    0    0  0.52606432119E+02 -0.34877665691E+02  0.17086456850E+03  0.19873889379E+03  0.79489363261E+02 0.  0.
          6    2    1    2  501    0 -0.12172731635E+02  0.99223439578E+02  0.81244260675E+03  0.83671076688E+03  0.17328719453E+03 0.  0.
         24    2    5    5    0    0 -0.63247584061E+02  0.80298951710E+02  0.38712279237E+03  0.40789167764E+03  0.77867745436E+02 0.  0.
          5    1    5    5  501    0  0.51074852425E+02  0.18924487868E+02  0.42531981438E+03  0.42881908924E+03  0.47000000000E+01 0. -1.
        -13    1    6    6    0    0 -0.17102638124E+02 -0.13142276930E+02  0.10362573100E+03  0.10584664283E+03  0.00000000000E+00 0.  1.
         14    1    6    6    0    0 -0.46144945936E+02  0.93441228641E+02  0.28349706137E+03  0.30204503480E+03  0.00000000000E+00 0. -1.
         -5    1    3    3    0  503 -0.40433700484E+02 -0.64345773888E+02  0.38011148376E+03  0.38766234385E+03  0.47000000000E+01 0.  1.
         11    1    4    4    0    0  0.28737078352E+02 -0.12553678393E+02  0.16181714708E+03  0.16482779984E+03  0.00000000000E+00 0. -1.
        -12    1    4    4    0    0  0.23869353767E+02 -0.22323987297E+02  0.90474214220E+01  0.33911093944E+02  0.00000000000E+00 0.  1.
</event>
<event>
12    1  0.8407180E-002  0.1825484E+03  0.7818608E-02  0.1165507E+00
         21   -1    0    0  503  502  0.00000000000E+00  0.00000000000E+00  0.92792156870E+02  0.92792156870E+02  0.00000000000E+00 0.  1.
         21   -1    0    0  501  503 -0.00000000000E+00 -0.00000000000E+00 -0.47260563243E+03  0.47260563243E+03  0.00000000000E+00 0. -1.
          6    2    1    2  501    0 -0.44527845240E+01  0.60886011006E+02 -0.50392750501E+02  0.18877870763E+03  0.17137980489E+03 0.  0.
         24    2    3    3    0    0  0.21200171554E+02  0.26581252450E+02  0.39125464601E+02  0.89428360623E+02  0.72873997062E+02 0.  0.
         -6    2    1    2    0  502  0.44527845240E+01 -0.60886011006E+02 -0.32942072506E+03  0.37661908168E+03  0.17203774282E+03 0.  0.
        -24    2    5    5    0    0  0.33806703868E+01 -0.45674585411E+02 -0.67781974722E+02  0.11449418286E+03  0.80105712201E+02 0.  0.
          5    1    3    3  501    0 -0.25652956078E+02  0.34304758557E+02 -0.89518215101E+02  0.99350347006E+02  0.47000000000E+01 0. -1.
        -11    1    4    4    0    0  0.14827913372E+02 -0.23965573178E+02  0.64725777617E+01  0.28915566320E+02  0.00000000000E+00 0.  1.
         12    1    4    4    0    0  0.63722581819E+01  0.50546825628E+02  0.32652886839E+02  0.60512794303E+02  0.00000000000E+00 0. -1.
         -5    1    5    5    0  502  0.10721141372E+01 -0.15211425595E+02 -0.26163875034E+03  0.26212489881E+03  0.47000000000E+01 0.  1.
         11    1    6    6    0    0 -0.28863593255E+02  0.12112863151E+01 -0.44407080888E+02  0.52977005041E+02  0.00000000000E+00 0. -1.
        -12    1    6    6    0    0  0.32244263642E+02 -0.46885871726E+02 -0.23374893834E+02  0.61517177821E+02  0.00000000000E+00 0.  1.
</event>
<event>
12    1  0.8407180E-002  0.2907364E+03  0.7818608E-02  0.1090215E+00
         21   -1    0    0  501  502  0.00000000000E+00  0.00000000000E+00  0.20162306281E+03  0.20162306281E+03  0.00000000000E+00 0. -1.
         21   -1    0    0  502  503 -0.00000000000E+00 -0.00000000000E+00 -0.41653333000E+03  0.41653333000E+03  0.00000000000E+00 0.  1.
         -6    2    1    2    0  503 -0.21531591257E+03  0.84228807671E+02 -0.10442644960E+03  0.30892152779E+03  0.17627306292E+03 0.  0.
        -24    2    3    3    0    0 -0.20192126447E+03  0.32020405899E+02 -0.56990689685E+02  0.23696754853E+03  0.10539533627E+03 0.  0.
          6    2    1    2  501    0  0.21531591257E+03 -0.84228807671E+02 -0.11048381760E+03  0.30923486502E+03  0.17310139671E+03 0.  0.
         24    2    5    5    0    0  0.10716826218E+03 -0.24730029907E+02 -0.12539368085E+03  0.18481455774E+03  0.79600469590E+02 0.  0.
          5    1    5    5  501    0  0.10814765040E+03 -0.59498777763E+02  0.14909863249E+02  0.12442030728E+03  0.47000000000E+01 0. -1.
        -13    1    6    6    0    0  0.10442587187E+03 -0.45970786626E+02 -0.10954273408E+03  0.15816980283E+03  0.00000000000E+00 0.  1.
         14    1    6    6    0    0  0.27423903053E+01  0.21240756718E+02 -0.15850946771E+02  0.26644754908E+02  0.00000000000E+00 0. -1.
         -5    1    3    3    0  503 -0.13394648103E+02  0.52208401772E+02 -0.47435759912E+02  0.71953979263E+02  0.47000000000E+01 0.  1.
         11    1    4    4    0    0 -0.78248188473E+02  0.10418926205E+02  0.29763694456E+02  0.84363561626E+02  0.00000000000E+00 0. -1.
        -12    1    4    4    0    0 -0.12367307600E+03  0.21601479694E+02 -0.86754384142E+02  0.15260398691E+03  0.00000000000E+00 0.  1.
</event>
<event>
12    1  0.8407180E-002  0.1718404E+03  0.7818608E-02  0.1176294E+00
         21   -1    0    0  501  502  0.00000000000E+00  0.00000000000E+00  0.76402957028E+02  0.76402957028E+02  0.00000000000E+00 0. -1.
         21   -1    0    0  502  503 -0.00000000000E+00 -0.00000000000E+00 -0.38347914802E+03  0.38347914802E+03  0.00000000000E+00 0. -1.
         -6    2    1    2    0  503 -0.40188726991E+01 -0.44787324480E+00 -0.15157293322E+03  0.22913637175E+03  0.17179281372E+03 0.  0.
        -24    2    3    3    0    0  0.39601921400E+02  0.31097210328E+02 -0.14934029263E+03  0.17505365123E+03  0.76196516571E+02 0.  0.
          6    2    1    2  501    0  0.40188726991E+01  0.44787324480E+00 -0.15550325777E+03  0.23074573330E+03  0.17042880722E+03 0.  0.
         24    2    5    5    0    0 -0.58914540360E+02 -0.24817983942E+02 -0.90538926822E+02  0.13671684245E+03  0.80045876507E+02 0.  0.
          5    1    5    5  501    0  0.62933413059E+02  0.25265857187E+02 -0.64964330948E+02  0.94028890848E+02  0.47000000000E+01 0. -1.
        -11    1    6    6    0    0 -0.56579602930E+01  0.25191825890E+02 -0.40985126161E+02  0.48439871726E+02  0.00000000000E+00 0.  1.
         12    1    6    6    0    0 -0.53256580067E+02 -0.50009809832E+02 -0.49553800661E+02  0.88276970722E+02  0.00000000000E+00 0. -1.
         -5    1    3    3    0  503 -0.43620794099E+02 -0.31545083572E+02 -0.22326405946E+01  0.54082720525E+02  0.47000000000E+01 0.  1.
         11    1    4    4    0    0 -0.14364257858E+02  0.32654647643E+02 -0.76281000479E+02  0.84210741302E+02  0.00000000000E+00 0. -1.
        -12    1    4    4    0    0  0.53966179258E+02 -0.15574373157E+01 -0.73059292149E+02  0.90842909927E+02  0.00000000000E+00 0.  1.
</event>
<event>
12    1  0.8407180E-002  0.2100582E+03  0.7818608E-02  0.1141761E+00
         21   -1    0    0  503  502  0.00000000000E+00  0.00000000000E+00  0.13191431308E+03  0.13191431308E+03  0.00000000000E+00 0. -1.
         21   -1    0    0  501  503 -0.00000000000E+00 -0.00000000000E+00 -0.62125311109E+03  0.62125311109E+03  0.00000000000E+00 0. -1.
          6    2    1    2  501    0 -0.10428703562E+03  0.57224777514E+02 -0.50176147826E+03  0.54395681751E+03  0.17312994337E+03 0.  0.
         24    2    3    3    0    0  0.13193752138E+02  0.52786194012E+02 -0.16197010612E+03  0.18437135744E+03  0.69267776006E+02 0.  0.
         -6    2    1    2    0  502  0.10428703562E+03 -0.57224777514E+02  0.12422680247E+02  0.20921060666E+03  0.17165166470E+03 0.  0.
        -24    2    5    5    0    0  0.49303995042E+02 -0.38388987110E+02  0.73447482498E+02  0.12480658874E+03  0.79231014441E+02 0.  0.
          5    1    3    3  501    0 -0.11748078775E+03  0.44385835019E+01 -0.33979137214E+03  0.35958546007E+03  0.47000000000E+01 0. -1.
        -13    1    4    4    0    0 -0.54713485539E+01 -0.33095144706E+00  0.54551015972E+01  0.77332604569E+01  0.00000000000E+00 0.  1.
         14    1    4    4    0    0  0.18665100692E+02  0.53117145459E+02 -0.16742520772E+03  0.17663809698E+03  0.00000000000E+00 0. -1.
         -5    1    5    5    0  502  0.54983040574E+02 -0.18835790404E+02 -0.61024802251E+02  0.84404017918E+02  0.47000000000E+01 0. -1.
         13    1    6    6    0    0  0.16135857708E+02  0.50457167854E+01  0.67787082896E+02  0.69863536766E+02  0.00000000000E+00 0. -1.
        -14    1    6    6    0    0  0.33168137334E+02 -0.43434703895E+02  0.56603996017E+01  0.54943051975E+02  0.00000000000E+00 0.  1.
</event>
<event>
12    1  0.8407180E-002  0.2207396E+03  0.7818608E-02  0.1133474E+00
         21   -1    0    0  501  502  0.00000000000E+00  0.00000000000E+00  0.10451562693E+03  0.10451562693E+03  0.00000000000E+00 0. -1.
         21   -1    0    0  502  503 -0.00000000000E+00 -0.00000000000E+00 -0.55049740097E+03  0.55049740097E+03  0.00000000000E+00 0. -1.
         -6    2    1    2    0  503 -0.13494625902E+03  0.30806878763E+02 -0.35268282276E+03  0.41606629736E+03  0.17194892768E+03 0.  0.
        -24    2    3    3    0    0 -0.35205043885E+02 -0.27076617013E+02 -0.20710136018E+03  0.23028454011E+03  0.90373988094E+02 0.  0.
          6    2    1    2  501    0  0.13494625902E+03 -0.30806878763E+02 -0.93298951279E+02  0.23894673053E+03  0.17097160326E+03 0.  0.
         24    2    5    5    0    0  0.13909908461E+03 -0.44756868344E+02 -0.24902721791E+02  0.16886119438E+03  0.80884020743E+02 0.  0.
          5    1    5    5  501    0 -0.41528255899E+01  0.13949989582E+02 -0.68396229487E+02  0.70085536153E+02  0.47000000000E+01 0. -1.
        -11    1    6    6    0    0  0.52542859099E+02  0.22464678659E+02 -0.13167610130E+02  0.58641280563E+02  0.00000000000E+00 0.  1.
         12    1    6    6    0    0  0.86556225509E+02 -0.67221547003E+02 -0.11735111661E+02  0.11021991382E+03  0.00000000000E+00 0. -1.
         -5    1    3    3    0  503 -0.99741215133E+02  0.57883495776E+02 -0.14558146258E+03  0.18578175725E+03  0.47000000000E+01 0.  1.
         11    1    4    4    0    0 -0.14936308096E+02  0.24179810022E+02 -0.18786170420E+02  0.34068705747E+02  0.00000000000E+00 0. -1.
        -12    1    4    4    0    0 -0.20268735789E+02 -0.51256427035E+02 -0.18831518976E+03  0.19621583437E+03  0.00000000000E+00 0.  1.
</event>
<event>
12    1  0.8407180E-002  0.1902225E+03  0.7818608E-02  0.1159085E+00
         21   -1    0    0  501  502  0.00000000000E+00  0.00000000000E+00  0.14142245972E+04  0.14142245972E+04  0.00000000000E+00 0.  1.
         21   -1    0    0  502  503 -0.00000000000E+00 -0.00000000000E+00 -0.44048631478E+02  0.44048631478E+02  0.00000000000E+00 0.  1.
         -6    2    1    2    0  503  0.17107757149E+02  0.70751682479E+02  0.20313562214E+03  0.27583178752E+03  0.17181565149E+03 0.  0.
        -24    2    3    3    0    0  0.62037584666E+02  0.41975051109E+02  0.10711892041E+03  0.16588597848E+03  0.10214268413E+03 0.  0.
          6    2    1    2  501    0 -0.17107757149E+02 -0.70751682479E+02  0.11670403436E+04  0.11824414412E+04  0.17574448008E+03 0.  0.
         24    2    5    5    0    0 -0.34424841391E+02 -0.11010186070E+03  0.10242724995E+04  0.10332668279E+04  0.72101976360E+02 0.  0.
          5    1    5    5  501    0  0.17317084242E+02  0.39350178217E+02  0.14276784410E+03  0.14917461326E+03  0.47000000000E+01 0. -1.
        -11    1    6    6    0    0 -0.39158232862E+02 -0.31609940820E+02  0.25022523493E+03  0.25523562399E+03  0.00000000000E+00 0.  1.
         12    1    6    6    0    0  0.47333914711E+01 -0.78491919876E+02  0.77404726457E+03  0.77803120392E+03  0.00000000000E+00 0. -1.
         -5    1    3    3    0  503 -0.44929827517E+02  0.28776631370E+02  0.96016701731E+02  0.10994580904E+03  0.47000000000E+01 0.  1.
         13    1    4    4    0    0  0.39431188881E+02  0.56264672462E+02  0.15485582195E+02  0.70429647732E+02  0.00000000000E+00 0. -1.
        -14    1    4    4    0    0  0.22606395785E+02 -0.14289621353E+02  0.91633338211E+02  0.95456330751E+02  0.00000000000E+00 0.  1.
</event>
<event>
12    1  0.8407180E-002  0.1976372E+03  0.7818608E-02  0.1154464E+00
         21   -1    0    0  501  502  0.00000000000E+00  0.00000000000E+00  0.21161920583E+03  0.21161920583E+03  0.00000000000E+00 0. -1.
         21   -1    0    0  502  503 -0.00000000000E+00 -0.00000000000E+00 -0.57319082697E+03  0.57319082697E+03  0.00000000000E+00 0.  1.
         -6    2    1    2    0  503 -0.51298455636E+02  0.81312481370E+02 -0.51023720178E+03  0.54717681808E+03  0.17267662551E+03 0.  0.
        -24    2    3    3    0    0 -0.29765903112E+02  0.11388652890E+03 -0.28252340030E+03  0.31609158538E+03  0.78982708106E+02 0.  0.
          6    2    1    2  501    0  0.51298455636E+02 -0.81312481370E+02  0.14866558063E+03  0.23763321471E+03  0.15850816601E+03 0.  0.
         24    2    5    5    0    0  0.60510774967E+02 -0.10610296589E+03  0.14487620050E+03  0.21050602629E+03  0.91674862276E+02 0.  0.
          5    1    5    5  501    0 -0.92123193304E+01  0.24790484519E+02  0.37893801332E+01  0.27127188426E+02  0.47000000000E+01 0. -1.
        -13    1    6    6    0    0 -0.99450001814E+01 -0.72485290427E+02  0.55470137002E+02  0.91814794319E+02  0.00000000000E+00 0.  1.
         14    1    6    6    0    0  0.70455775148E+02 -0.33617675462E+02  0.89406063499E+02  0.11869123197E+03  0.00000000000E+00 0. -1.
         -5    1    3    3    0  503 -0.21532552525E+02 -0.32574047528E+02 -0.22771380148E+03  0.23108523270E+03  0.47000000000E+01 0.  1.
         11    1    4    4    0    0 -0.16190072311E+00  0.26146540158E+02 -0.95447757827E+01  0.27834699905E+02  0.00000000000E+00 0. -1.
        -12    1    4    4    0    0 -0.29604002389E+02  0.87739988741E+02 -0.27297862452E+03  0.28825688548E+03  0.00000000000E+00 0.  1.
</event>
<event>
12    1  0.8407180E-002  0.1755587E+03  0.7818608E-02  0.1172608E+00
         21   -1    0    0  501  502  0.00000000000E+00  0.00000000000E+00  0.11369229516E+04  0.11369229516E+04  0.00000000000E+00 0.  1.
         21   -1    0    0  502  503 -0.00000000000E+00 -0.00000000000E+00 -0.45682067727E+02  0.45682067727E+02  0.00000000000E+00 0.  1.
         -6    2    1    2    0  503 -0.99236728166E+01  0.30469532923E+02  0.16429731512E+03  0.23918293626E+03  0.17084495171E+03 0.  0.
        -24    2    3    3    0    0 -0.19745498439E+00  0.79452429661E+02  0.14787624181E+03  0.18640353560E+03  0.81031892633E+02 0.  0.
          6    2    1    2  501    0  0.99236728166E+01 -0.30469532923E+02  0.92694356879E+03  0.94342208310E+03  0.17260931445E+03 0.  0.
         24    2    5    5    0    0  0.54974849612E+02 -0.33521385762E+02  0.34715612283E+03  0.36185996705E+03  0.79242316580E+02 0.  0.
          5    1    5    5  501    0 -0.45051176795E+02  0.30518528388E+01  0.57978744595E+03  0.58156211605E+03  0.47000000000E+01 0. -1.
        -11    1    6    6    0    0  0.27736725344E+02  0.18314277938E+02  0.21163710826E+03  0.21423119358E+03  0.00000000000E+00 0.  1.
         12    1    6    6    0    0  0.27238124268E+02 -0.51835663700E+02  0.13551901457E+03  0.14762877347E+03  0.00000000000E+00 0. -1.
         -5    1    3    3    0  503 -0.97262178322E+01 -0.48982896737E+02  0.16421073305E+02  0.52779400665E+02  0.47000000000E+01 0.  1.
         13    1    4    4    0    0 -0.13334595774E+02  0.31862183924E+02  0.12900618263E+03  0.13355001073E+03  0.00000000000E+00 0. -1.
        -14    1    4    4    0    0  0.13137140789E+02  0.47590245736E+02  0.18870059178E+02  0.52853524866E+02  0.00000000000E+00 0.  1.
</event>
<event>
12    1  0.8407180E-002  0.2161100E+03  0.7818608E-02  0.1136845E+00
         21   -1    0    0  501  502  0.00000000000E+00  0.00000000000E+00  0.54304991499E+03  0.54304991499E+03  0.00000000000E+00 0. -1.
         21   -1    0    0  502  503 -0.00000000000E+00 -0.00000000000E+00 -0.32522353464E+03  0.32522353464E+03  0.00000000000E+00 0. -1.
         -6    2    1    2    0  503  0.89569366117E+02 -0.92616211816E+02 -0.26345936441E+03  0.34075556867E+03  0.17350241165E+03 0.  0.
        -24    2    3    3    0    0  0.64370410711E+02 -0.13360248253E+03 -0.19826756805E+03  0.25959571374E+03  0.78017516856E+02 0.  0.
          6    2    1    2  501    0 -0.89569366117E+02  0.92616211816E+02  0.48128574476E+03  0.52751788096E+03  0.17331679834E+03 0.  0.
         24    2    5    5    0    0 -0.14700112650E+01 -0.10335376873E+02  0.17214031588E+03  0.18994787024E+03  0.79617360608E+02 0.  0.
          5    1    5    5  501    0 -0.88099354852E+02  0.10295158869E+03  0.30914542888E+03  0.33757001072E+03  0.47000000000E+01 0. -1.
        -11    1    6    6    0    0  0.35883853958E+02  0.54546768386E-01  0.48240055433E+02  0.60122848389E+02  0.00000000000E+00 0.  1.
         12    1    6    6    0    0 -0.37353865223E+02 -0.10389923642E+02  0.12390026045E+03  0.12982502185E+03  0.00000000000E+00 0. -1.
         -5    1    3    3    0  503  0.25198955406E+02  0.40986270713E+02 -0.65191796357E+02  0.81159854933E+02  0.47000000000E+01 0.  1.
         11    1    4    4    0    0  0.72815955018E+02 -0.72909557019E+02 -0.98728755756E+02  0.14270716178E+03  0.00000000000E+00 0. -1.
        -12    1    4    4    0    0 -0.84455443063E+01 -0.60692925510E+02 -0.99538812296E+02  0.11688855196E+03  0.00000000000E+00 0.  1.
</event>
<event>
12    1  0.8407180E-002  0.1745928E+03  0.7818608E-02  0.1174196E+00
         21   -1    0    0  503  502  0.00000000000E+00  0.00000000000E+00  0.13345518865E+03  0.13345518865E+03  0.00000000000E+00 0. -1.
         21   -1    0    0  501  503 -0.00000000000E+00 -0.00000000000E+00 -0.50113997372E+03  0.50113997372E+03  0.00000000000E+00 0. -1.
          6    2    1    2  501    0  0.27757601962E+02 -0.12105112960E+02 -0.42118727787E+03  0.45594010049E+03  0.17194660209E+03 0.  0.
         24    2    3    3    0    0  0.27517152558E+02 -0.62104288068E+02 -0.37023851114E+03  0.38440100517E+03  0.77932287065E+02 0.  0.
         -6    2    1    2    0  502 -0.27757601962E+02  0.12105112960E+02  0.53502492803E+02  0.17865506188E+03  0.16774413901E+03 0.  0.
        -24    2    5    5    0    0  0.34551589342E+02 -0.14194285105E+02 -0.67382203309E+01  0.87962574991E+02  0.79351880445E+02 0.  0.
          5    1    3    3  501    0  0.24044940413E+00  0.49999175109E+02 -0.50948766734E+02  0.71539095320E+02  0.47000000000E+01 0. -1.
        -11    1    4    4    0    0 -0.21282219182E+02 -0.33818561715E+02 -0.88944872280E+02  0.97508042103E+02  0.00000000000E+00 0.  1.
         12    1    4    4    0    0  0.48799371740E+02 -0.28285726353E+02 -0.28129363886E+03  0.28689296307E+03  0.00000000000E+00 0. -1.
         -5    1    5    5    0  502 -0.62309191304E+02  0.26299398065E+02  0.60240713134E+02  0.90692486891E+02  0.47000000000E+01 0.  1.
         13    1    6    6    0    0  0.23947982571E+02  0.14327022812E+02  0.29523596656E+02  0.40625265677E+02  0.00000000000E+00 0. -1.
        -14    1    6    6    0    0  0.10603606771E+02 -0.28521307918E+02 -0.36261816987E+02  0.47337309314E+02  0.00000000000E+00 0.  1.
</event>
<event>
12    1  0.8407180E-002  0.1760171E+03  0.7818608E-02  0.1171833E+00
         21   -1    0    0  503  502  0.00000000000E+00  0.00000000000E+00  0.53203315102E+03  0.53203315102E+03  0.00000000000E+00 0. -1.
         21   -1    0    0  501  503 -0.00000000000E+00 -0.00000000000E+00 -0.74410000172E+02  0.74410000172E+02  0.00000000000E+00 0. -1.
          6    2    1    2  501    0  0.20666743452E+01 -0.34508080489E+02  0.86987582034E+02  0.19633861667E+03  0.17258891681E+03 0.  0.
         24    2    3    3    0    0  0.59881413514E+02 -0.41776839748E+02  0.84833226279E+02  0.13783981176E+03  0.80449048488E+02 0.  0.
         -6    2    1    2    0  502 -0.20666743452E+01  0.34508080489E+02  0.37063556882E+03  0.41010453453E+03  0.17210440321E+03 0.  0.
        -24    2    5    5    0    0  0.56940556999E+02  0.10826475867E+02  0.29735685273E+03  0.31297301555E+03  0.78559346883E+02 0.  0.
          5    1    3    3  501    0 -0.57814739169E+02  0.72687592586E+01  0.21543557549E+01  0.58498804903E+02  0.47000000000E+01 0. -1.
        -13    1    4    4    0    0  0.27189101660E+02  0.19511692815E+02  0.49912217834E+02  0.60093118531E+02  0.00000000000E+00 0.  1.
         14    1    4    4    0    0  0.32692311854E+02 -0.61288532563E+02  0.34921008445E+02  0.77746693234E+02  0.00000000000E+00 0. -1.
         -5    1    5    5    0  502 -0.59007231345E+02  0.23681604622E+02  0.73278716084E+02  0.97131518980E+02  0.47000000000E+01 0.  1.
         13    1    6    6    0    0 -0.14995535879E+01 -0.21259282610E+02  0.14648716990E+03  0.14802937784E+03  0.00000000000E+00 0. -1.
        -14    1    6    6    0    0  0.58440110587E+02  0.32085758477E+02  0.15086968283E+03  0.16494363771E+03  0.00000000000E+00 0.  1.
</event>
<event>
12    1  0.8407180E-002  0.2612443E+03  0.7818608E-02  0.1106428E+00
         21   -1    0    0  501  502  0.00000000000E+00  0.00000000000E+00  0.10240950837E+03  0.10240950837E+03  0.00000000000E+00 0. -1.
         21   -1    0    0  502  503 -0.00000000000E+00 -0.00000000000E+00 -0.70349104278E+03  0.70349104278E+03  0.00000000000E+00 0.  1.
         -6    2    1    2    0  503  0.16855712940E+03 -0.10135445487E+03 -0.39378218763E+03  0.47256001936E+03  0.17194280796E+03 0.  0.
        -24    2    3    3    0    0  0.16795428287E+03 -0.10735970691E+03 -0.25566636965E+03  0.33423252515E+03  0.81310150042E+02 0.  0.
          6    2    1    2  501    0 -0.16855712940E+03  0.10135445487E+03 -0.20729934678E+03  0.33334053180E+03  0.17163525154E+03 0.  0.
         24    2    5    5    0    0 -0.37326759872E+02  0.70938327198E+02 -0.11145766249E+03  0.16794927098E+03  0.96739928806E+02 0.  0.
          5    1    5    5  501    0 -0.13123036953E+03  0.30416127669E+02 -0.95841684283E+02  0.16539126082E+03  0.47000000000E+01 0. -1.
        -11    1    6    6    0    0  0.30178962115E+02  0.34542416655E+02 -0.24492711661E+02  0.51998473316E+02  0.00000000000E+00 0.  1.
         12    1    6    6    0    0 -0.67505721987E+02  0.36395910542E+02 -0.86964950833E+02  0.11595079766E+03  0.00000000000E+00 0. -1.
         -5    1    3    3    0  503  0.60284653000E+00  0.60052520400E+01 -0.13811581798E+03  0.13832749421E+03  0.47000000000E+01 0.  1.
         13    1    4    4    0    0  0.20850514864E+01 -0.33211839371E+02 -0.33277591038E+02  0.47061361853E+02  0.00000000000E+00 0. -1.
        -14    1    4    4    0    0  0.16586923138E+03 -0.74147867535E+02 -0.22238877861E+03  0.28717116330E+03  0.00000000000E+00 0.  1.
</event>
<event>
12    1  0.8407180E-002  0.1896160E+03  0.7818608E-02  0.1159201E+00
         21   -1    0    0  501  502  0.00000000000E+00  0.00000000000E+00  0.20493801127E+03  0.20493801127E+03  0.00000000000E+00 0.  1.
         21   -1    0    0  502  503 -0.00000000000E+00 -0.00000000000E+00 -0.20930243706E+03  0.20930243706E+03  0.00000000000E+00 0.  1.
         -6    2    1    2    0  503  0.75832330392E+02  0.62111952362E+01 -0.87426404276E+02  0.20722953579E+03  0.17178935666E+03 0.  0.
        -24    2    3    3    0    0  0.82443179311E+02  0.36694642959E+02 -0.82542560039E+01  0.12200475671E+03  0.81692430983E+02 0.  0.
          6    2    1    2  501    0 -0.75832330392E+02 -0.62111952362E+01  0.83061978485E+02  0.20701091254E+03  0.17368104203E+03 0.  0.
         24    2    5    5    0    0 -0.17455919664E+02 -0.11613242986E+02 -0.23444400017E+02  0.85344622587E+02  0.79337810459E+02 0.  0.
          5    1    5    5  501    0 -0.58376410729E+02  0.54020477497E+01  0.10650637850E+03  0.12166628995E+03  0.47000000000E+01 0. -1.
        -13    1    6    6    0    0 -0.36562676753E+02  0.63912741445E+01 -0.39793492063E+02  0.54416906630E+02  0.00000000000E+00 0.  1.
         14    1    6    6    0    0  0.19106757090E+02 -0.18004517130E+02  0.16349092047E+02  0.30927715957E+02  0.00000000000E+00 0. -1.
         -5    1    3    3    0  503 -0.66108489188E+01 -0.30483447723E+02 -0.79172148272E+02  0.85224779088E+02  0.47000000000E+01 0.  1.
         11    1    4    4    0    0  0.23361645308E+02  0.32311935578E+02  0.31367917131E+02  0.50732375042E+02  0.00000000000E+00 0. -1.
        -12    1    4    4    0    0  0.59081534003E+02  0.43827073806E+01 -0.39622173134E+02  0.71272381664E+02  0.00000000000E+00 0.  1.
</event>
<event>
12    1  0.8407180E-002  0.1884942E+03  0.7818608E-02  0.1160323E+00
         21   -1    0    0  501  502  0.00000000000E+00  0.00000000000E+00  0.24787928496E+03  0.24787928496E+03  0.00000000000E+00 0.  1.
         21   -1    0    0  502  503 -0.00000000000E+00 -0.00000000000E+00 -0.14850151285E+03  0.14850151285E+03  0.00000000000E+00 0.  1.
         -6    2    1    2    0  503  0.58162285595E+02 -0.41092041383E+02  0.91852750344E+02  0.20773641301E+03  0.17218037696E+03 0.  0.
        -24    2    3    3    0    0 -0.20662438941E+02  0.20546773414E+01  0.83092596856E+02  0.11732730492E+03  0.80188270630E+02 0.  0.
          6    2    1    2  501    0 -0.58162285595E+02  0.41092041383E+02  0.75250217668E+01  0.18864438481E+03  0.17452412624E+03 0.  0.
         24    2    5    5    0    0 -0.25669769264E+02  0.59761339303E+02  0.63664862120E+02  0.12098288928E+03  0.79707528511E+02 0.  0.
          5    1    5    5  501    0 -0.32492516331E+02 -0.18669297920E+02 -0.56139840353E+02  0.67661495529E+02  0.47000000000E+01 0. -1.
        -11    1    6    6    0    0  0.19484943761E+02  0.43575931791E+02  0.95700931966E+01  0.48683791436E+02  0.00000000000E+00 0.  1.
         12    1    6    6    0    0 -0.45154713025E+02  0.16185407512E+02  0.54094768924E+02  0.72299097848E+02  0.00000000000E+00 0. -1.
         -5    1    3    3    0  503  0.78824724536E+02 -0.43146718724E+02  0.87601534884E+01  0.90409108081E+02  0.47000000000E+01 0.  1.
         13    1    4    4    0    0  0.24667117457E+02  0.16857156976E+02  0.53293331471E+02  0.61096723351E+02  0.00000000000E+00 0. -1.
        -14    1    4    4    0    0 -0.45329556398E+02 -0.14802479634E+02  0.29799265385E+02  0.56230581573E+02  0.00000000000E+00 0.  1.
</event>
<event>
12    1  0.8407180E-002  0.2171238E+03  0.7818608E-02  0.1139158E+00
         21   -1    0    0  501  502  0.00000000000E+00  0.00000000000E+00  0.16348013778E+03  0.16348013778E+03  0.00000000000E+00 0.  1.
         21   -1    0    0  502  503 -0.00000000000E+00 -0.00000000000E+00 -0.77101040281E+03  0.77101040281E+03  0.00000000000E+00 0. -1.
         -6    2    1    2    0  503  0.86972728694E+02  0.10060653891E+03 -0.68511997525E+03  0.71870170155E+03  0.17162990449E+03 0.  0.
        -24    2    3    3    0    0  0.62590170710E+02  0.17451450751E+01 -0.47078993778E+03  0.48136746616E+03  0.78427654324E+02 0.  0.
          6    2    1    2  501    0 -0.86972728694E+02 -0.10060653891E+03  0.77589710218E+02  0.21578883903E+03  0.15119103383E+03 0.  0.
         24    2    5    5    0    0 -0.59780750193E+02 -0.67109489324E+02 -0.28852517216E+01  0.12435708566E+03  0.85900747524E+02 0.  0.
          5    1    5    5  501    0 -0.27191978501E+02 -0.33497049590E+02  0.80474961940E+02  0.91431753375E+02  0.47000000000E+01 0. -1.
        -11    1    6    6    0    0 -0.18849569727E+02 -0.77059941601E+02 -0.14535287961E+02  0.80652436259E+02  0.00000000000E+00 0.  1.
         12    1    6    6    0    0 -0.40931180466E+02  0.99504522764E+01  0.11650036239E+02  0.43704649400E+02  0.00000000000E+00 0. -1.
         -5    1    3    3    0  503  0.24382557984E+02  0.98861393839E+02 -0.21433003747E+03  0.23733423539E+03  0.47000000000E+01 0.  1.
         13    1    4    4    0    0  0.80250753665E+02 -0.12516565550E+01 -0.33932971585E+03  0.34869242344E+03  0.00000000000E+00 0. -1.
        -14    1    4    4    0    0 -0.17660582955E+02  0.29968016300E+01 -0.13146022193E+03  0.13267504272E+03  0.00000000000E+00 0.  1.
</event>
<event>
12    1  0.8407180E-002  0.2080259E+03  0.7818608E-02  0.1143204E+00
         21   -1    0    0  501  502  0.00000000000E+00  0.00000000000E+00  0.15776619207E+03  0.15776619207E+03  0.00000000000E+00 0.  1.
         21   -1    0    0  502  503 -0.00000000000E+00 -0.00000000000E+00 -0.77999865372E+03  0.77999865372E+03  0.00000000000E+00 0. -1.
         -6    2    1    2    0  503  0.84996546960E+02 -0.81919308054E+02 -0.68873197547E+03  0.71936851927E+03  0.17089220712E+03 0.  0.
        -24    2    3    3    0    0  0.25356616573E+02 -0.99283177947E+02 -0.57789177968E+03  0.59222268066E+03  0.79175040476E+02 0.  0.
          6    2    1    2  501    0 -0.84996546960E+02  0.81919308054E+02  0.66499513816E+02  0.21839632653E+03  0.17128801498E+03 0.  0.
         24    2    5    5    0    0 -0.12509371545E+03  0.59549785426E+02  0.54295204129E+02  0.17065521595E+03  0.83550098448E+02 0.  0.
          5    1    5    5  501    0  0.40097168494E+02  0.22369522627E+02  0.12204309687E+02  0.47741110573E+02  0.47000000000E+01 0. -1.
        -11    1    6    6    0    0 -0.43014830194E+02 -0.17128490464E+02  0.31618099370E+02  0.56065720453E+02  0.00000000000E+00 0.  1.
         12    1    6    6    0    0 -0.82078885260E+02  0.76678275890E+02  0.22677104760E+02  0.11458949550E+03  0.00000000000E+00 0. -1.
         -5    1    3    3    0  503  0.59639930387E+02  0.17363869893E+02 -0.11084019579E+03  0.12714583861E+03  0.47000000000E+01 0.  1.
         13    1    4    4    0    0  0.17613636292E+01 -0.75613241678E+02 -0.51921759006E+03  0.52469740856E+03  0.00000000000E+00 0. -1.
        -14    1    4    4    0    0  0.23595252944E+02 -0.23669936269E+02 -0.58674189620E+02  0.67525272099E+02  0.00000000000E+00 0.  1.
</event>
<event>
12    1  0.8407180E-002  0.1833783E+03  0.7818608E-02  0.1165373E+00
         21   -1    0    0  503  502  0.00000000000E+00  0.00000000000E+00  0.10493996116E+03  0.10493996116E+03  0.00000000000E+00 0. -1.
         21   -1    0    0  501  503 -0.00000000000E+00 -0.00000000000E+00 -0.44770366438E+03  0.44770366438E+03  0.00000000000E+00 0. -1.
          6    2    1    2  501    0 -0.43903249681E+02  0.18620938351E+02 -0.32315061016E+03  0.37155605744E+03  0.17706877843E+03 0.  0.
         24    2    3    3    0    0 -0.66383210181E+01  0.35684265836E+02 -0.31878599197E+03  0.33007145855E+03  0.77493386414E+02 0.  0.
         -6    2    1    2    0  502  0.43903249681E+02 -0.18620938351E+02 -0.19613093068E+02  0.18108756811E+03  0.17359089615E+03 0.  0.
        -24    2    5    5    0    0  0.90281304553E+02  0.16260222454E+02 -0.14605584496E+02  0.12265141068E+03  0.80093299703E+02 0.  0.
          5    1    3    3  501    0 -0.37264928663E+02 -0.17063327485E+02 -0.43646181896E+01  0.41484598890E+02  0.47000000000E+01 0. -1.
        -13    1    4    4    0    0  0.76688025540E+01 -0.23282439271E+02 -0.10644964160E+03  0.10923556521E+03  0.00000000000E+00 0.  1.
         14    1    4    4    0    0 -0.14307123572E+02  0.58966705107E+02 -0.21233635037E+03  0.22083589333E+03  0.00000000000E+00 0. -1.
         -5    1    5    5    0  502 -0.46378054872E+02 -0.34881160805E+02 -0.50075085720E+01  0.58436157428E+02  0.47000000000E+01 0.  1.
         13    1    6    6    0    0  0.76914250181E+02 -0.19695693750E+02 -0.24399687855E+02  0.83060622443E+02  0.00000000000E+00 0. -1.
        -14    1    6    6    0    0  0.13367054373E+02  0.35955916204E+02  0.97941033591E+01  0.39590788238E+02  0.00000000000E+00 0.  1.
</event>
<event>
12    1  0.8407180E-002  0.1928304E+03  0.7818608E-02  0.1156159E+00
         21   -1    0    0  501  502  0.00000000000E+00  0.00000000000E+00  0.16831877247E+03  0.16831877247E+03  0.00000000000E+00 0.  1.
         21   -1    0    0  502  503 -0.00000000000E+00 -0.00000000000E+00 -0.45284345049E+03  0.45284345049E+03  0.00000000000E+00 0.  1.
         -6    2    1    2    0  503 -0.84220040104E+02 -0.28122609130E+02 -0.36527341238E+03  0.41304749473E+03  0.17117146613E+03 0.  0.
        -24    2    3    3    0    0  0.19906023036E+02  0.10014437966E+02 -0.16953539100E+03  0.18803164108E+03  0.78211958948E+02 0.  0.
          6    2    1    2  501    0  0.84220040104E+02  0.28122609130E+02  0.80748734357E+02  0.20811472823E+03  0.17002201535E+03 0.  0.
         24    2    5    5    0    0 -0.11187995225E+02  0.29083895377E+02  0.66712439507E+01  0.87229733867E+02  0.81200226398E+02 0.  0.
          5    1    5    5  501    0  0.95408035329E+02 -0.96128624743E+00  0.74077490406E+02  0.12088499436E+03  0.47000000000E+01 0. -1.
        -13    1    6    6    0    0 -0.43091684738E+02  0.16659368292E+02  0.20191195409E+02  0.50419363517E+02  0.00000000000E+00 0.  1.
         14    1    6    6    0    0  0.31903689513E+02  0.12424527085E+02 -0.13519951458E+02  0.36810370349E+02  0.00000000000E+00 0. -1.
         -5    1    3    3    0  503 -0.10412606314E+03 -0.38137047096E+02 -0.19573802137E+03  0.22501585366E+03  0.47000000000E+01 0.  1.
         13    1    4    4    0    0 -0.75131654905E+01  0.28336106468E+02 -0.21465286171E+02  0.36333745966E+02  0.00000000000E+00 0. -1.
        -14    1    4    4    0    0  0.27419188526E+02 -0.18321668502E+02 -0.14807010483E+03  0.15169789511E+03  0.00000000000E+00 0.  1.
</event>
<event>
12    1  0.8407180E-002  0.2071747E+03  0.7818608E-02  0.1143958E+00
         21   -1    0    0  501  502  0.00000000000E+00  0.00000000000E+00  0.12346124807E+04  0.12346124807E+04  0.00000000000E+00 0.  1.
         21   -1    0    0  502  503 -0.00000000000E+00 -0.00000000000E+00 -0.60737866865E+03  0.60737866865E+03  0.00000000000E+00 0. -1.
         -6    2    1    2    0  503  0.85416829419E+02  0.75708632334E+02 -0.58069106680E+03  0.61654153021E+03  0.17289740210E+03 0.  0.
        -24    2    3    3    0    0  0.12323305901E+03  0.65929434663E+02 -0.51779256183E+03  0.54235250235E+03  0.80647520292E+02 0.  0.
          6    2    1    2  501    0 -0.85416829419E+02 -0.75708632334E+02  0.12079248788E+04  0.12254496191E+04  0.17209423096E+03 0.  0.
         24    2    5    5    0    0 -0.12677213918E+03 -0.65293780755E+02  0.92271976903E+03  0.93703537634E+03  0.79303664952E+02 0.  0.
          5    1    5    5  501    0  0.41355309758E+02 -0.10414851579E+02  0.28520510978E+03  0.28841424275E+03  0.47000000000E+01 0. -1.
        -11    1    6    6    0    0 -0.11443733900E+02  0.27582558072E+01  0.29294306768E+03  0.29317948074E+03  0.00000000000E+00 0.  1.
         12    1    6    6    0    0 -0.11532840528E+03 -0.68052036562E+02  0.62977670135E+03  0.64385589560E+03  0.00000000000E+00 0. -1.
         -5    1    3    3    0  503 -0.37816229589E+02  0.97791976708E+01 -0.62898504967E+02  0.74189027858E+02  0.47000000000E+01 0.  1.
         13    1    4    4    0    0  0.95267248922E+02  0.72403967141E+02 -0.48114421438E+03  0.49580030073E+03  0.00000000000E+00 0. -1.
        -14    1    4    4    0    0  0.27965810086E+02 -0.64745324777E+01 -0.36648347457E+02  0.46552201623E+02  0.00000000000E+00 0.  1.
</event>
<event>
12    1  0.8407180E-002  0.5510845E+03  0.7818608E-02  0.1001300E+00
         21   -1    0    0  503  502  0.00000000000E+00  0.00000000000E+00  0.38105294164E+03  0.38105294164E+03  0.00000000000E+00 0.  1.
         21   -1    0    0  501  503 -0.00000000000E+00 -0.00000000000E+00 -0.80340142258E+03  0.80340142258E+03  0.00000000000E+00 0.  1.
          6    2    1    2  501    0 -0.51656675262E+03  0.75307851281E+02 -0.26944761898E+03  0.61255158546E+03  0.17350776091E+03 0.  0.
         24    2    3    3    0    0 -0.37653583880E+03  0.10947972979E+03 -0.23521231676E+03  0.46432702601E+03  0.80682736650E+02 0.  0.
         -6    2    1    2    0  502  0.51656675262E+03 -0.75307851281E+02 -0.15290086196E+03  0.57190277876E+03  0.17658321661E+03 0.  0.
        -24    2    5    5    0    0  0.18500320870E+03 -0.23125792710E+02 -0.11608310082E+03  0.23421210902E+03  0.81357459379E+02 0.  0.
          5    1    3    3  501    0 -0.14003091382E+03 -0.34171878505E+02 -0.34235302225E+02  0.14822455945E+03  0.47000000000E+01 0. -1.
        -13    1    4    4    0    0 -0.32036820109E+03  0.69402022084E+02 -0.16944290325E+03  0.36900314687E+03  0.00000000000E+00 0.  1.
         14    1    4    4    0    0 -0.56167637708E+02  0.40077707702E+02 -0.65769413512E+02  0.95323879139E+02  0.00000000000E+00 0. -1.
         -5    1    5    5    0  502  0.33156354392E+03 -0.52182058570E+02 -0.36817761134E+02  0.33769066974E+03  0.47000000000E+01 0.  1.
         13    1    6    6    0    0  0.55720589673E+02  0.20548558486E+02 -0.75764781855E+01  0.59870112669E+02  0.00000000000E+00 0. -1.
        -14    1    6    6    0    0  0.12928261902E+03 -0.43674351196E+02 -0.10850662264E+03  0.17434199635E+03  0.00000000000E+00 0.  1.
</event>
<event>
12    1  0.8407180E-002  0.2340753E+03  0.7818608E-02  0.1123820E+00
         21   -1    0    0  503  502  0.00000000000E+00  0.00000000000E+00  0.12726686937E+03  0.12726686937E+03  0.00000000000E+00 0.  1.
         21   -1    0    0  501  503 -0.00000000000E+00 -0.00000000000E+00 -0.43840685112E+03  0.43840685112E+03  0.00000000000E+00 0.  1.
          6    2    1    2  501    0  0.95304293433E+02 -0.12686790315E+03 -0.19388713522E+03  0.30387323554E+03  0.17195449653E+03 0.  0.
         24    2    3    3    0    0  0.83824083672E+02 -0.15728322836E+03 -0.18656892665E+03  0.27022010195E+03  0.80289776303E+02 0.  0.
         -6    2    1    2    0  502 -0.95304293433E+02  0.12686790315E+03 -0.11725284652E+03  0.26180048495E+03  0.17208396412E+03 0.  0.
        -24    2    5    5    0    0 -0.11399883935E+03  0.12281566561E+03 -0.49045439589E+02  0.19080578771E+03  0.76954339621E+02 0.  0.
          5    1    3    3  501    0  0.11480209761E+02  0.30415325209E+02 -0.73182085694E+01  0.33653133590E+02  0.47000000000E+01 0. -1.
        -13    1    4    4    0    0  0.62178536151E+02 -0.14753876549E+03 -0.12159366959E+03  0.20104446813E+03  0.00000000000E+00 0.  1.
         14    1    4    4    0    0  0.21645547521E+02 -0.97444628660E+01 -0.64975257062E+02  0.69175633820E+02  0.00000000000E+00 0. -1.
         -5    1    5    5    0  502  0.18694545915E+02  0.40522375391E+01 -0.68207406933E+02  0.70994697243E+02  0.47000000000E+01 0.  1.
         11    1    6    6    0    0 -0.40672147332E+02  0.22500327459E+02  0.17723303571E+02  0.49745389674E+02  0.00000000000E+00 0. -1.
        -12    1    6    6    0    0 -0.73326692016E+02  0.10031533815E+03 -0.66768743160E+02  0.14106039804E+03  0.00000000000E+00 0.  1.
</event>
<event>
12    1  0.8407180E-002  0.2428513E+03  0.7818608E-02  0.1117931E+00
         21   -1    0    0  501  502  0.00000000000E+00  0.00000000000E+00  0.68954509559E+03  0.68954509559E+03  0.00000000000E+00 0. -1.
         21   -1    0    0  502  503 -0.00000000000E+00 -0.00000000000E+00 -0.15854500005E+03  0.15854500005E+03  0.00000000000E+00 0.  1.
         -6    2    1    2    0  503 -0.40815515537E+02  0.16539654394E+03 -0.22408094590E+02  0.24374138164E+03  0.17287514386E+03 0.  0.
        -24    2    3    3    0    0 -0.37007637554E+02  0.15766839803E+03  0.36609046566E+02  0.18391382006E+03  0.79089708208E+02 0.  0.
          6    2    1    2  501    0  0.40815515537E+02 -0.16539654394E+03  0.55340819014E+03  0.60434871400E+03  0.17307460863E+03 0.  0.
         24    2    5    5    0    0 -0.33741468350E+02 -0.11025483608E+03  0.40668836059E+03  0.43071648723E+03  0.82623569076E+02 0.  0.
          5    1    5    5  501    0  0.74556983887E+02 -0.55141707859E+02  0.14671982955E+03  0.17363222677E+03  0.47000000000E+01 0. -1.
        -13    1    6    6    0    0 -0.41816209643E+02 -0.53479141224E+02  0.11582451721E+03  0.13425324101E+03  0.00000000000E+00 0.  1.
         14    1    6    6    0    0  0.80747412934E+01 -0.56775694859E+02  0.29086384338E+03  0.29646324622E+03  0.00000000000E+00 0. -1.
         -5    1    3    3    0  503 -0.38078779827E+01  0.77281459109E+01 -0.59017141156E+02  0.59827561576E+02  0.47000000000E+01 0.  1.
         13    1    4    4    0    0 -0.19812950881E+02  0.23161047693E+02  0.37480403814E+02  0.48309086339E+02  0.00000000000E+00 0. -1.
        -14    1    4    4    0    0 -0.17194686673E+02  0.13450735034E+03 -0.87135724788E+00  0.13560473372E+03  0.00000000000E+00 0.  1.
</event>
<event>
12    1  0.8407180E-002  0.2447202E+03  0.7818608E-02  0.1116902E+00
         21   -1    0    0  501  502  0.00000000000E+00  0.00000000000E+00  0.60630289758E+02  0.60630289758E+02  0.00000000000E+00 0. -1.
         21   -1    0    0  502  503 -0.00000000000E+00 -0.00000000000E+00 -0.98247388011E+03  0.98247388011E+03  0.00000000000E+00 0. -1.
         -6    2    1    2    0  503  0.92868233876E+02  0.14576148648E+03 -0.46017295864E+03  0.52119776589E+03  0.17325426259E+03 0.  0.
        -24    2    3    3    0    0  0.22211564093E+02  0.22828832781E+02 -0.27019062025E+03  0.28408981320E+03  0.81789617360E+02 0.  0.
          6    2    1    2  501    0 -0.92868233876E+02 -0.14576148648E+03 -0.46167063171E+03  0.52190640397E+03  0.17139312273E+03 0.  0.
         24    2    5    5    0    0 -0.13390058369E+02 -0.17397012088E+02 -0.10037291554E+03  0.13030412055E+03  0.80140451500E+02 0.  0.
          5    1    5    5  501    0 -0.79478175507E+02 -0.12836447439E+03 -0.36129771618E+03  0.39160228342E+03  0.47000000000E+01 0. -1.
        -11    1    6    6    0    0 -0.26855864074E+02  0.66412683651E+01 -0.15458112061E+01  0.27708002687E+02  0.00000000000E+00 0.  1.
         12    1    6    6    0    0  0.13465805704E+02 -0.24038280453E+02 -0.98827104330E+02  0.10259611786E+03  0.00000000000E+00 0. -1.
         -5    1    3    3    0  503  0.70656669783E+02  0.12293265370E+03 -0.18998233839E+03  0.23710795270E+03  0.47000000000E+01 0.  1.
         11    1    4    4    0    0  0.36214344773E+02  0.65114357446E+01 -0.25529344805E+03  0.25793142922E+03  0.00000000000E+00 0. -1.
        -12    1    4    4    0    0 -0.14002780680E+02  0.16317397037E+02 -0.14897172197E+02  0.26158383978E+02  0.00000000000E+00 0.  1.
</event>
<event>
12    1  0.8407180E-002  0.1887404E+03  0.7818608E-02  0.1159898E+00
         21   -1    0    0  503  502  0.00000000000E+00  0.00000000000E+00  0.76640288667E+02  0.76640288667E+02  0.00000000000E+00 0. -1.
         21   -1    0    0  501  503 -0.00000000000E+00 -0.00000000000E+00 -0.57232604075E+03  0.57232604075E+03  0.00000000000E+00 0. -1.
          6    2    1    2  501    0 -0.46227203079E+01  0.77486226128E+02 -0.10444454534E+03  0.21457870941E+03  0.17061616189E+03 0.  0.
         24    2    3    3    0    0  0.38465081118E+01  0.35047055321E+02  0.14519007008E+02  0.87901056144E+02  0.79200393909E+02 0.  0.
         -6    2    1    2    0  502  0.46227203079E+01 -0.77486226128E+02 -0.39124120674E+03  0.43438762000E+03  0.17203905888E+03 0.  0.
        -24    2    5    5    0    0  0.59977915126E+02 -0.17543358158E+02 -0.26696445635E+03  0.28564574392E+03  0.80114607582E+02 0.  0.
          5    1    3    3  501    0 -0.84692284198E+01  0.42439170807E+02 -0.11896355235E+03  0.12667765326E+03  0.47000000000E+01 0. -1.
        -11    1    4    4    0    0  0.40032256884E+02  0.68000924448E+01  0.39705402179E+01  0.40799363207E+02  0.00000000000E+00 0.  1.
         12    1    4    4    0    0 -0.36185748772E+02  0.28246962876E+02  0.10548466790E+02  0.47101692937E+02  0.00000000000E+00 0. -1.
         -5    1    5    5    0  502 -0.55355194818E+02 -0.59942867970E+02 -0.12427675039E+03  0.14874187609E+03  0.47000000000E+01 0.  1.
         11    1    6    6    0    0  0.33679195959E+02  0.31370704269E+02 -0.12511413033E+03  0.13331149588E+03  0.00000000000E+00 0. -1.
        -12    1    6    6    0    0  0.26298719168E+02 -0.48914062427E+02 -0.14185032602E+03  0.15233424803E+03  0.00000000000E+00 0.  1.
</event>
<event>
12    1  0.8407180E-002  0.2055239E+03  0.7818608E-02  0.1145188E+00
         21   -1    0    0  503  502  0.00000000000E+00  0.00000000000E+00  0.32971896242E+02  0.32971896242E+02  0.00000000000E+00 0.  1.
         21   -1    0    0  501  503 -0.00000000000E+00 -0.00000000000E+00 -0.17255279655E+04  0.17255279655E+04  0.00000000000E+00 0.  1.
          6    2    1    2  501    0 -0.11264368200E+03  0.80790555706E+01 -0.12927182574E+04  0.13089330267E+04  0.17155554495E+03 0.  0.
         24    2    3    3    0    0 -0.11499228673E+03  0.47840776061E+02 -0.11825430561E+04  0.11916846777E+04  0.78691330956E+02 0.  0.
         -6    2    1    2    0  502  0.11264368200E+03 -0.80790555706E+01 -0.39983781185E+03  0.44956683508E+03  0.17171544249E+03 0.  0.
        -24    2    5    5    0    0  0.88354250291E+02  0.43087818296E+01 -0.12485430470E+03  0.17319488605E+03  0.81134653548E+02 0.  0.
          5    1    3    3  501    0  0.23486047237E+01 -0.39761720491E+02 -0.11017520131E+03  0.11724834901E+03  0.47000000000E+01 0. -1.
        -13    1    4    4    0    0 -0.92903430081E+02  0.22210069214E+02 -0.54969366846E+03  0.55793141482E+03  0.00000000000E+00 0.  1.
         14    1    4    4    0    0 -0.22088856646E+02  0.25630706847E+02 -0.63284938764E+03  0.63375326284E+03  0.00000000000E+00 0. -1.
         -5    1    5    5    0  502  0.24289431712E+02 -0.12387837400E+02 -0.27498350715E+03  0.27637194903E+03  0.47000000000E+01 0.  1.
         11    1    6    6    0    0 -0.14165457564E+02 -0.68798376845E+01 -0.91976381887E+01  0.18237020119E+02  0.00000000000E+00 0. -1.
        -12    1    6    6    0    0  0.10251970786E+03  0.11188619514E+02 -0.11565666651E+03  0.15495786593E+03  0.00000000000E+00 0.  1.
</event>
<event>
12    1  0.8407180E-002  0.1758481E+03  0.7818608E-02  0.1172003E+00
         21   -1    0    0  501  502  0.00000000000E+00  0.00000000000E+00  0.25873335867E+02  0.25873335867E+02  0.00000000000E+00 0. -1.
         21   -1    0    0  502  503 -0.00000000000E+00 -0.00000000000E+00 -0.15087726844E+04  0.15087726844E+04  0.00000000000E+00 0. -1.
         -6    2    1    2    0  503  0.31065383850E+02  0.11813844133E+02 -0.10923074524E+04  0.11062950017E+04  0.17218720962E+03 0.  0.
        -24    2    3    3    0    0 -0.21603509035E+02  0.13356531893E+02 -0.94199922100E+03  0.94694931898E+03  0.93302582016E+02 0.  0.
          6    2    1    2  501    0 -0.31065383850E+02 -0.11813844133E+02 -0.39059189609E+03  0.42835101856E+03  0.17267872139E+03 0.  0.
         24    2    5    5    0    0 -0.73150536849E+02 -0.44434251412E+02 -0.31245090335E+03  0.33367601753E+03  0.79929430921E+02 0.  0.
          5    1    5    5  501    0  0.42085153000E+02  0.32620407279E+02 -0.78140992739E+02  0.94675001032E+02  0.47000000000E+01 0. -1.
        -11    1    6    6    0    0 -0.38293534112E+02  0.19966336720E+02 -0.98875857350E+02  0.10789571133E+03  0.00000000000E+00 0.  1.
         12    1    6    6    0    0 -0.34857002737E+02 -0.64400588132E+02 -0.21357504600E+03  0.22578030619E+03  0.00000000000E+00 0. -1.
         -5    1    3    3    0  503  0.52668892885E+02 -0.15426877595E+01 -0.15030823141E+03  0.15934568269E+03  0.47000000000E+01 0.  1.
         13    1    4    4    0    0 -0.42014457112E+02 -0.20479116511E+02 -0.28896519853E+03  0.29272084788E+03  0.00000000000E+00 0. -1.
        -14    1    4    4    0    0  0.20410948077E+02  0.33835648404E+02 -0.65303402247E+03  0.65422847110E+03  0.00000000000E+00 0.  1.
</event>
<event>
12    1  0.8407180E-002  0.1834323E+03  0.7818608E-02  0.1164957E+00
         21   -1    0    0  501  502  0.00000000000E+00  0.00000000000E+00  0.72654724742E+03  0.72654724742E+03  0.00000000000E+00 0.  1.
         21   -1    0    0  502  503 -0.00000000000E+00 -0.00000000000E+00 -0.10903383017E+03  0.10903383017E+03  0.00000000000E+00 0.  1.
         -6    2    1    2    0  503 -0.59996401475E+02 -0.13435754383E+01 -0.86290945963E+01  0.18363518737E+03  0.17333795713E+03 0.  0.
        -24    2    3    3    0    0 -0.18208012638E+02 -0.40145082429E+02 -0.57445117982E+02  0.10842268491E+03  0.80699303939E+02 0.  0.
          6    2    1    2  501    0  0.59996401475E+02  0.13435754383E+01  0.62614251185E+03  0.65194589022E+03  0.17139902348E+03 0.  0.
         24    2    5    5    0    0  0.76828980723E+02  0.41111678620E+02  0.28905875460E+03  0.31207475706E+03  0.79011568691E+02 0.  0.
          5    1    5    5  501    0 -0.16832579248E+02 -0.39768103182E+02  0.33708375725E+03  0.33987113316E+03  0.47000000000E+01 0. -1.
        -13    1    6    6    0    0  0.41688787135E+02 -0.16065868213E+02  0.16597546295E+03  0.17188345295E+03  0.00000000000E+00 0.  1.
         14    1    6    6    0    0  0.35140193587E+02  0.57177546833E+02  0.12308329164E+03  0.14019130411E+03  0.00000000000E+00 0. -1.
         -5    1    3    3    0  503 -0.41788388836E+02  0.38801506991E+02  0.48816023386E+02  0.75212502455E+02  0.47000000000E+01 0.  1.
         13    1    4    4    0    0  0.22912700832E+02  0.84197069514E+01 -0.31133411404E+02  0.39562262703E+02  0.00000000000E+00 0. -1.
        -14    1    4    4    0    0 -0.41120713470E+02 -0.48564789381E+02 -0.26311706578E+02  0.68860422210E+02  0.00000000000E+00 0.  1.
</event>
<event>
12    1  0.8407180E-002  0.4426213E+03  0.7818608E-02  0.1030029E+00
         21   -1    0    0  501  502  0.00000000000E+00  0.00000000000E+00  0.68378032915E+03  0.68378032915E+03  0.00000000000E+00 0. -1.
         21   -1    0    0  502  503 -0.00000000000E+00 -0.00000000000E+00 -0.42080450021E+03  0.42080450021E+03  0.00000000000E+00 0.  1.
         -6    2    1    2    0  503  0.32257899882E+03  0.24599648370E+03 -0.18121601858E+03  0.47828113234E+03  0.17703704608E+03 0.  0.
        -24    2    3    3    0    0  0.23358288995E+03  0.20629973724E+03 -0.20100830371E+03  0.37873233212E+03  0.76897939970E+02 0.  0.
          6    2    1    2  501    0 -0.32257899882E+03 -0.24599648370E+03  0.44419184752E+03  0.62630369702E+03  0.17429412791E+03 0.  0.
         24    2    5    5    0    0 -0.25588003279E+03 -0.11006259662E+03  0.28229928783E+03  0.40458751671E+03  0.80061254142E+02 0.  0.
          5    1    5    5  501    0 -0.66698966023E+02 -0.13593388708E+03  0.16189255969E+03  0.22171618031E+03  0.47000000000E+01 0. -1.
        -11    1    6    6    0    0 -0.17912421199E+03 -0.53163339756E+02  0.22767391916E+03  0.29452883981E+03  0.00000000000E+00 0.  1.
         12    1    6    6    0    0 -0.76755820805E+02 -0.56899256865E+02  0.54625368665E+02  0.11005867690E+03  0.00000000000E+00 0. -1.
         -5    1    3    3    0  503  0.88996108864E+02  0.39696746466E+02  0.19792285131E+02  0.99548800211E+02  0.47000000000E+01 0.  1.
         13    1    4    4    0    0  0.41673600876E+02  0.51374447869E+02 -0.80599982505E+02  0.10427070578E+03  0.00000000000E+00 0. -1.
        -14    1    4    4    0    0  0.19190928908E+03  0.15492528937E+03 -0.12040832121E+03  0.27446162635E+03  0.00000000000E+00 0.  1.
</event>
<event>
12    1  0.8407180E-002  0.1732455E+03  0.7818608E-02  0.1174575E+00
         21   -1    0    0  503  502  0.00000000000E+00  0.00000000000E+00  0.34576248746E+03  0.34576248746E+03  0.00000000000E+00 0.  1.
         21   -1    0    0  501  503 -0.00000000000E+00 -0.00000000000E+00 -0.11602422994E+03  0.11602422994E+03  0.00000000000E+00 0.  1.
          6    2    1    2  501    0 -0.16632233360E+02  0.11466128280E+02 -0.12042933948E+01  0.17324966052E+03  0.17206362563E+03 0.  0.
         24    2    3    3    0    0 -0.19671834681E+02  0.61626046211E+02 -0.39291369295E+02  0.11002014294E+03  0.79849041951E+02 0.  0.
         -6    2    1    2    0  502  0.16632233360E+02 -0.11466128280E+02  0.23094255092E+03  0.28853705687E+03  0.17178785778E+03 0.  0.
        -24    2    5    5    0    0  0.33339374566E+01 -0.46005025817E+02  0.51743777455E+02  0.10549588520E+03  0.79526006749E+02 0.  0.
          5    1    3    3  501    0  0.30396013208E+01 -0.50159917930E+02  0.38087075901E+02  0.63229517582E+02  0.47000000000E+01 0. -1.
        -11    1    4    4    0    0  0.29830309944E+02  0.11116016720E+02 -0.89894316823E+01  0.33079043230E+02  0.00000000000E+00 0.  1.
         12    1    4    4    0    0 -0.49502144625E+02  0.50510029490E+02 -0.30301937613E+02  0.76941099711E+02  0.00000000000E+00 0. -1.
         -5    1    5    5    0  502  0.13298295903E+02  0.34538897537E+02  0.17919877346E+03  0.18304117167E+03  0.47000000000E+01 0.  1.
         11    1    6    6    0    0  0.28558196605E+02 -0.57489727176E+02  0.34968795074E+02  0.73098946320E+02  0.00000000000E+00 0. -1.
        -12    1    6    6    0    0 -0.25224259149E+02  0.11484701359E+02  0.16774982381E+02  0.32396938880E+02  0.00000000000E+00 0.  1.
</event>
<event>
12    1  0.8407180E-002  0.1750158E+03  0.7818608E-02  0.1174840E+00
         21   -1    0    0  503  502  0.00000000000E+00  0.00000000000E+00  0.92664342896E+03  0.92664342896E+03  0.00000000000E+00 0.  1.
         21   -1    0    0  501  503 -0.00000000000E+00 -0.00000000000E+00 -0.37698298434E+02  0.37698298434E+02  0.00000000000E+00 0.  1.
          6    2    1    2  501    0  0.16681648910E+02  0.28321797873E+02  0.63071823656E+03  0.65239353263E+03  0.16349747960E+03 0.  0.
         24    2    3    3    0    0  0.19778689375E+02  0.17482385865E+02  0.63396238558E+03  0.63975632506E+03  0.81749732370E+02 0.  0.
         -6    2    1    2    0  502 -0.16681648910E+02 -0.28321797873E+02  0.25822689396E+03  0.31194819476E+03  0.17190155848E+03 0.  0.
        -24    2    5    5    0    0  0.85790943853E+01  0.47670485155E+02  0.12553573568E+03  0.15689347630E+03  0.80686219134E+02 0.  0.
          5    1    3    3  501    0 -0.30970404654E+01  0.10839412008E+02 -0.32441490220E+01  0.12637207571E+02  0.47000000000E+01 0. -1.
        -11    1    4    4    0    0 -0.31879042320E+02  0.79831000157E+01  0.27904416259E+03  0.28097268177E+03  0.00000000000E+00 0.  1.
         12    1    4    4    0    0  0.51657731695E+02  0.94992858491E+01  0.35491822299E+03  0.35878364328E+03  0.00000000000E+00 0. -1.
         -5    1    5    5    0  502 -0.25260743295E+02 -0.75992283028E+02  0.13269115828E+03  0.15505471846E+03  0.47000000000E+01 0.  1.
         11    1    6    6    0    0  0.42641322043E+02  0.13766914939E+02  0.47941594500E+02  0.65621694399E+02  0.00000000000E+00 0. -1.
        -12    1    6    6    0    0 -0.34062227658E+02  0.33903570216E+02  0.77594141181E+02  0.91271781905E+02  0.00000000000E+00 0.  1.
</event>
<event>
12    1  0.8407180E-002  0.1756789E+03  0.7818608E-02  0.1172115E+00
         21   -1    0    0  503  502  0.00000000000E+00  0.00000000000E+00  0.13602307924E+04  0.13602307924E+04  0.00000000000E+00 0.  1.
         21   -1    0    0  501  503 -0.00000000000E+00 -0.00000000000E+00 -0.24664497824E+02  0.24664497824E+02  0.00000000000E+00 0.  1.
          6    2    1    2  501    0 -0.41731909421E+01 -0.36338400176E+02  0.86578581837E+03  0.88342976198E+03  0.17182888645E+03 0.  0.
         24    2    3    3    0    0  0.50950132061E+02 -0.26654290571E+02  0.72674450523E+03  0.73347330337E+03  0.80741214534E+02 0.  0.
         -6    2    1    2    0  502  0.41731909421E+01  0.36338400176E+02  0.46978047620E+03  0.50146552823E+03  0.17156947671E+03 0.  0.
        -24    2    5    5    0    0  0.44464135340E+02  0.39190816391E+02  0.43931584451E+03  0.45065529046E+03  0.81109803100E+02 0.  0.
          5    1    3    3  501    0 -0.55123323003E+02 -0.96841096046E+01  0.13904131315E+03  0.14995645861E+03  0.47000000000E+01 0. -1.
        -11    1    4    4    0    0  0.30779991599E+02 -0.24745249377E+02  0.11882488554E+03  0.12521616778E+03  0.00000000000E+00 0.  1.
         12    1    4    4    0    0  0.20170140462E+02 -0.19090411945E+01  0.60791961969E+03  0.60825713560E+03  0.00000000000E+00 0. -1.
         -5    1    5    5    0  502 -0.40290944398E+02 -0.28524162150E+01  0.30464631684E+02  0.50810237771E+02  0.47000000000E+01 0.  1.
         11    1    6    6    0    0  0.13963528041E+02 -0.94422502878E+01  0.29294701078E+03  0.29343157180E+03  0.00000000000E+00 0. -1.
        -12    1    6    6    0    0  0.30500607299E+02  0.48633066678E+02  0.14636883374E+03  0.15722371866E+03  0.00000000000E+00 0.  1.
</event>
<event>
12    1  0.8407180E-002  0.1860778E+03  0.7818608E-02  0.1163081E+00
         21   -1    0    0  501  502  0.00000000000E+00  0.00000000000E+00  0.61356360485E+02  0.61356360485E+02  0.00000000000E+00 0. -1.
         21   -1    0    0  502  503 -0.00000000000E+00 -0.00000000000E+00 -0.59467716358E+03  0.59467716358E+03  0.00000000000E+00 0. -1.
         -6    2    1    2    0  503 -0.59129082877E+02  0.13859063708E+02 -0.35254143716E+03  0.39659930538E+03  0.17122272637E+03 0.  0.
        -24    2    3    3    0    0 -0.26554556314E+02  0.73853948569E+02 -0.19769595550E+03  0.22730754781E+03  0.80159093627E+02 0.  0.
          6    2    1    2  501    0  0.59129082877E+02 -0.13859063708E+02 -0.18077936593E+03  0.25943421868E+03  0.17588806835E+03 0.  0.
         24    2    5    5    0    0  0.99797123213E+02 -0.81734459957E+01 -0.80570119497E+02  0.15103588463E+03  0.79334880538E+02 0.  0.
          5    1    5    5  501    0 -0.40668040336E+02 -0.56856177125E+01 -0.10020924643E+03  0.10839833405E+03  0.47000000000E+01 0. -1.
        -13    1    6    6    0    0  0.46396594981E+02  0.33768061122E+02 -0.51744646116E+02  0.77268585981E+02  0.00000000000E+00 0.  1.
         14    1    6    6    0    0  0.53400528232E+02 -0.41941507118E+02 -0.28825473381E+02  0.73767298652E+02  0.00000000000E+00 0. -1.
         -5    1    3    3    0  503 -0.32574526563E+02 -0.59994884861E+02 -0.15484548166E+03  0.16929175757E+03  0.47000000000E+01 0.  1.
         13    1    4    4    0    0  0.26553373545E+02  0.34639329613E+02 -0.10305285622E+03  0.11191450298E+03  0.00000000000E+00 0. -1.
        -14    1    4    4    0    0 -0.53107929859E+02  0.39214618957E+02 -0.94643099279E+02  0.11539304483E+03  0.00000000000E+00 0.  1.
</event>
<event>
12    1  0.8407180E-002  0.2553275E+03  0.7818608E-02  0.1110090E+00
         21   -1    0    0  501  502  0.00000000000E+00  0.00000000000E+00  0.77841809970E+03  0.77841809970E+03  0.00000000000E+00 0. -1.
         21   -1    0    0  502  503 -0.00000000000E+00 -0.00000000000E+00 -0.14526740506E+03  0.14526740506E+03  0.00000000000E+00 0. -1.
         -6    2    1    2    0  503  0.15247142652E+03 -0.10818126259E+03  0.15723929626E+02  0.25581117277E+03  0.17390052522E+03 0.  0.
        -24    2    3    3    0    0  0.12057807746E+03 -0.84835933645E+02 -0.53363599627E+02  0.17607807552E+03  0.80122447010E+02 0.  0.
          6    2    1    2  501    0 -0.15247142652E+03  0.10818126259E+03  0.61742676501E+03  0.66787433199E+03  0.17288606567E+03 0.  0.
         24    2    5    5    0    0 -0.73980349699E+02  0.14444918419E+02  0.43222376168E+03  0.44590678075E+03  0.79584729398E+02 0.  0.
          5    1    5    5  501    0 -0.78491076826E+02  0.93736344168E+02  0.18520300333E+03  0.22196755124E+03  0.47000000000E+01 0. -1.
        -11    1    6    6    0    0 -0.64593072070E+01  0.15185115022E+02  0.12282082490E+02  0.20570851176E+02  0.00000000000E+00 0.  1.
         12    1    6    6    0    0 -0.67521042492E+02 -0.74019660366E+00  0.41994167919E+03  0.42533592958E+03  0.00000000000E+00 0. -1.
         -5    1    3    3    0  503  0.31893349069E+02 -0.23345328942E+02  0.69087529253E+02  0.79733097247E+02  0.47000000000E+01 0.  1.
         13    1    4    4    0    0  0.87278721258E+02 -0.61346814969E+02  0.27638448083E+01  0.10671759803E+03  0.00000000000E+00 0. -1.
        -14    1    4    4    0    0  0.33299356198E+02 -0.23489118676E+02 -0.56127444435E+02  0.69360477494E+02  0.00000000000E+00 0.  1.
</event>
<event>
12    1  0.8407180E-002  0.2348831E+03  0.7818608E-02  0.1123296E+00
         21   -1    0    0  501  502  0.00000000000E+00  0.00000000000E+00  0.18106298284E+03  0.18106298284E+03  0.00000000000E+00 0. -1.
         21   -1    0    0  502  503 -0.00000000000E+00 -0.00000000000E+00 -0.31019777335E+03  0.31019777335E+03  0.00000000000E+00 0. -1.
         -6    2    1    2    0  503  0.33800268482E+02 -0.15546694079E+03 -0.30867040381E+02  0.23690259133E+03  0.17279362190E+03 0.  0.
        -24    2    3    3    0    0  0.47874070186E+02 -0.18167155070E+03 -0.31903261164E+02  0.20677092645E+03  0.80249106054E+02 0.  0.
          6    2    1    2  501    0 -0.33800268482E+02  0.15546694079E+03 -0.98267750130E+02  0.25435816485E+03  0.17242127909E+03 0.  0.
         24    2    5    5    0    0  0.77722191315E+01  0.75273937313E+01 -0.38452524182E+02  0.89390493580E+02  0.79968710631E+02 0.  0.
          5    1    5    5  501    0 -0.41572487614E+02  0.14793954706E+03 -0.59815225948E+02  0.16496767127E+03  0.47000000000E+01 0. -1.
        -11    1    6    6    0    0  0.17603727661E+02 -0.62528066809E+01  0.20688361236E+02  0.27874667882E+02  0.00000000000E+00 0.  1.
         12    1    6    6    0    0 -0.98315085293E+01  0.13780200412E+02 -0.59140885417E+02  0.61515825698E+02  0.00000000000E+00 0. -1.
         -5    1    3    3    0  503 -0.14073801704E+02  0.26204609908E+02  0.10362207829E+01  0.30131664879E+02  0.47000000000E+01 0.  1.
         11    1    4    4    0    0  0.17034014250E+02 -0.40463156509E+02 -0.43456625964E+02  0.61772995850E+02  0.00000000000E+00 0. -1.
        -12    1    4    4    0    0  0.30840055936E+02 -0.14120839419E+03  0.11553364800E+02  0.14499793060E+03  0.00000000000E+00 0.  1.
</event>
<event>
12    1  0.8407180E-002  0.1744744E+03  0.7818608E-02  0.1173308E+00
         21   -1    0    0  501  502  0.00000000000E+00  0.00000000000E+00  0.92668028108E+02  0.92668028108E+02  0.00000000000E+00 0.  1.
         21   -1    0    0  502  503 -0.00000000000E+00 -0.00000000000E+00 -0.10376856889E+04  0.10376856889E+04  0.00000000000E+00 0.  1.
         -6    2    1    2    0  503 -0.20332462879E+02 -0.18568018495E+02 -0.93977590856E+03  0.95580058969E+03  0.17209831077E+03 0.  0.
        -24    2    3    3    0    0  0.21518531736E+01 -0.35209593551E+02 -0.25307108698E+03  0.26851019366E+03  0.82513047951E+02 0.  0.
          6    2    1    2  501    0  0.20332462879E+02  0.18568018495E+02 -0.52417522278E+01  0.17455312732E+03  0.17228795063E+03 0.  0.
         24    2    5    5    0    0  0.62965266932E+02  0.13425711241E+01 -0.46662754542E+02  0.11248814967E+03  0.80682983443E+02 0.  0.
          5    1    5    5  501    0 -0.42632804053E+02  0.17225447371E+02  0.41421002314E+02  0.62064977654E+02  0.47000000000E+01 0. -1.
        -13    1    6    6    0    0  0.27810829371E+02 -0.34941660154E+02 -0.14369122134E+01  0.44681389430E+02  0.00000000000E+00 0.  1.
         14    1    6    6    0    0  0.35154437561E+02  0.36284231279E+02 -0.45225842328E+02  0.67806760238E+02  0.00000000000E+00 0. -1.
         -5    1    3    3    0  503 -0.22484316053E+02  0.16641575056E+02 -0.68670482158E+03  0.68729039602E+03  0.47000000000E+01 0.  1.
         13    1    4    4    0    0 -0.11838122193E+01  0.23489142115E+02 -0.13007891291E+03  0.13218799035E+03  0.00000000000E+00 0. -1.
        -14    1    4    4    0    0  0.33356653929E+01 -0.58698735666E+02 -0.12299217408E+03  0.13632220332E+03  0.00000000000E+00 0.  1.
</event>
<event>
12    1  0.8407180E-002  0.2211706E+03  0.7818608E-02  0.1133170E+00
         21   -1    0    0  501  502  0.00000000000E+00  0.00000000000E+00  0.56519019893E+02  0.56519019893E+02  0.00000000000E+00 0.  1.
         21   -1    0    0  502  503 -0.00000000000E+00 -0.00000000000E+00 -0.96015171932E+03  0.96015171932E+03  0.00000000000E+00 0.  1.
         -6    2    1    2    0  503 -0.57842066734E+02  0.12440728894E+03 -0.29021459914E+03  0.36488485947E+03  0.17347498058E+03 0.  0.
        -24    2    3    3    0    0  0.22840496105E+02  0.15866039596E+02 -0.15381215523E+03  0.17274273638E+03  0.73542194714E+02 0.  0.
          6    2    1    2  501    0  0.57842066734E+02 -0.12440728894E+03 -0.61341810029E+03  0.65178587975E+03  0.17239544383E+03 0.  0.
         24    2    5    5    0    0  0.84109961748E+01 -0.45963837586E+01 -0.14328156425E+03  0.16408870296E+03  0.79395366256E+02 0.  0.
          5    1    5    5  501    0  0.49431070559E+02 -0.11981090518E+03 -0.47013653603E+03  0.48769717679E+03  0.47000000000E+01 0. -1.
        -13    1    6    6    0    0  0.23065235512E+02 -0.33877050883E+02 -0.11006205313E+03  0.11744494542E+03  0.00000000000E+00 0.  1.
         14    1    6    6    0    0 -0.14654239337E+02  0.29280667125E+02 -0.33219511125E+02  0.46643757538E+02  0.00000000000E+00 0. -1.
         -5    1    3    3    0  503 -0.80682562839E+02  0.10854124935E+03 -0.13640244392E+03  0.19214212308E+03  0.47000000000E+01 0.  1.
         13    1    4    4    0    0  0.39480657681E+02 -0.10147795442E+02 -0.50419251475E+02  0.64836725724E+02  0.00000000000E+00 0. -1.
        -14    1    4    4    0    0 -0.16640161576E+02  0.26013835038E+02 -0.10339290375E+03  0.10790601066E+03  0.00000000000E+00 0.  1.
</event>
<event>
12    1  0.8407180E-002  0.2523423E+03  0.7818608E-02  0.1112159E+00
         21   -1    0    0  503  502  0.00000000000E+00  0.00000000000E+00  0.43551318806E+03  0.43551318806E+03  0.00000000000E+00 0. -1.
         21   -1    0    0  501  503 -0.00000000000E+00 -0.00000000000E+00 -0.16535979482E+03  0.16535979482E+03  0.00000000000E+00 0. -1.
          6    2    1    2  501    0 -0.15155628085E+03 -0.10111556701E+03  0.30169075457E+02  0.25413936026E+03  0.17459374892E+03 0.  0.
         24    2    3    3    0    0 -0.98236543265E+02 -0.10249435241E+03 -0.38038151080E+02  0.16742597480E+03  0.80181328200E+02 0.  0.
         -6    2    1    2    0  502  0.15155628085E+03  0.10111556701E+03  0.23998431779E+03  0.34673362262E+03  0.17157525496E+03 0.  0.
        -24    2    5    5    0    0  0.11041714614E+03  0.12084822039E+03  0.11991682221E+03  0.21820308341E+03  0.80226571837E+02 0.  0.
          5    1    3    3  501    0 -0.53319737582E+02  0.13787854050E+01  0.68207226537E+02  0.86713385454E+02  0.47000000000E+01 0. -1.
        -13    1    4    4    0    0 -0.47410611275E+02 -0.31225856943E+01  0.50528706701E+01  0.47781252651E+02  0.00000000000E+00 0.  1.
         14    1    4    4    0    0 -0.50825931990E+02 -0.99371766716E+02 -0.43091021750E+02  0.11964472215E+03  0.00000000000E+00 0. -1.
         -5    1    5    5    0  502  0.41139134707E+02 -0.19732653387E+02  0.12006749558E+03  0.12853053921E+03  0.47000000000E+01 0.  1.
         13    1    6    6    0    0  0.85497144501E+02  0.37255595103E+02  0.77243320874E+02  0.12109612588E+03  0.00000000000E+00 0. -1.
        -14    1    6    6    0    0  0.24920001639E+02  0.83592625289E+02  0.42673501331E+02  0.97106957528E+02  0.00000000000E+00 0.  1.
</event>
<event>
12    1  0.8407180E-002  0.1972099E+03  0.7818608E-02  0.1152201E+00
         21   -1    0    0  503  502  0.00000000000E+00  0.00000000000E+00  0.93909371925E+03  0.93909371925E+03  0.00000000000E+00 0. -1.
         21   -1    0    0  501  503 -0.00000000000E+00 -0.00000000000E+00 -0.55364419452E+02  0.55364419452E+02  0.00000000000E+00 0. -1.
          6    2    1    2  501    0 -0.89352067184E+02 -0.30201290408E+02  0.19185348307E+03  0.27513544631E+03  0.17319308589E+03 0.  0.
         24    2    3    3    0    0 -0.10331344532E+03 -0.48588476169E+02  0.78986915425E+02  0.15983600672E+03  0.79209268623E+02 0.  0.
         -6    2    1    2    0  502  0.89352067184E+02  0.30201290408E+02  0.69187581673E+03  0.71932269238E+03  0.17273413141E+03 0.  0.
        -24    2    5    5    0    0  0.62575534438E+02  0.45888291351E+02  0.67467341112E+03  0.68353054991E+03  0.77513664513E+02 0.  0.
          5    1    3    3  501    0  0.13961378135E+02  0.18387185761E+02  0.11286656764E+03  0.11529943959E+03  0.47000000000E+01 0. -1.
        -13    1    4    4    0    0 -0.64820693817E+01  0.22053593067E+01 -0.14460871716E+02  0.15999926373E+02  0.00000000000E+00 0.  1.
         14    1    4    4    0    0 -0.96831375938E+02 -0.50793835476E+02  0.93447787141E+02  0.14383608035E+03  0.00000000000E+00 0. -1.
         -5    1    5    5    0  502  0.26776532746E+02 -0.15687000943E+02  0.17202405604E+02  0.35792142476E+02  0.47000000000E+01 0.  1.
         13    1    6    6    0    0  0.78637813137E+02  0.24575317561E+02  0.53856801715E+03  0.54483333322E+03  0.00000000000E+00 0. -1.
        -14    1    6    6    0    0 -0.16062278699E+02  0.21312973790E+02  0.13610539398E+03  0.13869721669E+03  0.00000000000E+00 0.  1.
</event>
<event>
12    1  0.8407180E-002  0.2129187E+03  0.7818608E-02  0.1142623E+00
         21   -1    0    0  501  502  0.00000000000E+00  0.00000000000E+00  0.26494160845E+03  0.26494160845E+03  0.00000000000E+00 0. -1.
         21   -1    0    0  502  503 -0.00000000000E+00 -0.00000000000E+00 -0.16087858671E+03  0.16087858671E+03  0.00000000000E+00 0. -1.
         -6    2    1    2    0  503  0.95623228319E+02 -0.30475236837E+02  0.26217167150E+02  0.21452672663E+03  0.18778134819E+03 0.  0.
        -24    2    3    3    0    0  0.10474747916E+03 -0.80480458089E+02 -0.63336126449E+01  0.15398403614E+03  0.78878578922E+02 0.  0.
          6    2    1    2  501    0 -0.95623228319E+02  0.30475236837E+02  0.77845854593E+02  0.21129346853E+03  0.16885618411E+03 0.  0.
         24    2    5    5    0    0 -0.28754345566E+02  0.53821901833E+02 -0.10486077802E+02  0.97974738716E+02  0.75930771713E+02 0.  0.
          5    1    5    5  501    0 -0.66868882753E+02 -0.23346664996E+02  0.88331932395E+02  0.11331872982E+03  0.47000000000E+01 0. -1.
        -11    1    6    6    0    0  0.99554427193E+01  0.22921244838E-01  0.22011571455E+02  0.24158241721E+02  0.00000000000E+00 0.  1.
         12    1    6    6    0    0 -0.38709788286E+02  0.53798980588E+02 -0.32497649257E+02  0.73816496995E+02  0.00000000000E+00 0. -1.
         -5    1    3    3    0  503 -0.91242508420E+01  0.50005221252E+02  0.32550779795E+02  0.60542690485E+02  0.47000000000E+01 0.  1.
         13    1    4    4    0    0  0.87482657173E+02 -0.42991463271E+02  0.26759311886E+02  0.10108185788E+03  0.00000000000E+00 0. -1.
        -14    1    4    4    0    0  0.17264821988E+02 -0.37488994818E+02 -0.33092924530E+02  0.52902178261E+02  0.00000000000E+00 0.  1.
</event>
<event>
12    1  0.8407180E-002  0.1941601E+03  0.7818608E-02  0.1154853E+00
         21   -1    0    0  501  502  0.00000000000E+00  0.00000000000E+00  0.25675828470E+03  0.25675828470E+03  0.00000000000E+00 0.  1.
         21   -1    0    0  502  503 -0.00000000000E+00 -0.00000000000E+00 -0.24249477276E+03  0.24249477276E+03  0.00000000000E+00 0.  1.
         -6    2    1    2    0  503 -0.57111504612E+02 -0.68826223973E+02 -0.14991587725E+03  0.24530169692E+03  0.17233507824E+03 0.  0.
        -24    2    3    3    0    0  0.41929649037E+01 -0.69273518115E+02 -0.27735891677E+02  0.10852276239E+03  0.78686142385E+02 0.  0.
          6    2    1    2  501    0  0.57111504612E+02  0.68826223973E+02  0.16417938919E+03  0.25395136054E+03  0.17186520479E+03 0.  0.
         24    2    5    5    0    0  0.45038372153E+02  0.10358207725E+03  0.16700007478E+03  0.21675221899E+03  0.79591442796E+02 0.  0.
          5    1    5    5  501    0  0.12073132458E+02 -0.34755853282E+02 -0.28206855896E+01  0.37199141548E+02  0.47000000000E+01 0. -1.
        -13    1    6    6    0    0  0.88197477572E+00 -0.92878501316E+01  0.40504414144E+02  0.41565004568E+02  0.00000000000E+00 0.  1.
         14    1    6    6    0    0  0.44156397378E+02  0.11286992739E+03  0.12649566064E+03  0.17518721442E+03  0.00000000000E+00 0. -1.
         -5    1    3    3    0  503 -0.61304469515E+02  0.44729414184E+00 -0.12217998558E+03  0.13677893453E+03  0.47000000000E+01 0.  1.
         11    1    4    4    0    0 -0.33190498367E+02 -0.34872724182E+02  0.45048565287E+01  0.48352971016E+02  0.00000000000E+00 0. -1.
        -12    1    4    4    0    0  0.37383463271E+02 -0.34400793933E+02 -0.32240748205E+02  0.60169791376E+02  0.00000000000E+00 0.  1.
</event>
<event>
12    1  0.8407180E-002  0.2274079E+03  0.7818608E-02  0.1129381E+00
         21   -1    0    0  503  502  0.00000000000E+00  0.00000000000E+00  0.43886119978E+03  0.43886119978E+03  0.00000000000E+00 0.  1.
         21   -1    0    0  501  503 -0.00000000000E+00 -0.00000000000E+00 -0.11526177277E+03  0.11526177277E+03  0.00000000000E+00 0. -1.
          6    2    1    2  501    0 -0.93788169162E+01 -0.14128782206E+03  0.16012729691E+03  0.27405600491E+03  0.17151015055E+03 0.  0.
         24    2    3    3    0    0  0.39896487654E+02 -0.22500232752E+02  0.85320892829E+02  0.12520495484E+03  0.79363944984E+02 0.  0.
         -6    2    1    2    0  502  0.93788169162E+01  0.14128782206E+03  0.16347213010E+03  0.28006696765E+03  0.17794425582E+03 0.  0.
        -24    2    5    5    0    0 -0.48223732282E+02  0.11669581171E+03  0.63567334124E+02  0.16205900645E+03  0.79239351200E+02 0.  0.
          5    1    3    3  501    0 -0.49275304570E+02 -0.11878758930E+03  0.74806404081E+02  0.14885105006E+03  0.47000000000E+01 0. -1.
        -13    1    4    4    0    0  0.24066780414E+02 -0.51493813214E+02  0.65320372578E+02  0.86588531530E+02  0.00000000000E+00 0.  1.
         14    1    4    4    0    0  0.15829707240E+02  0.28993580462E+02  0.20000520251E+02  0.38616423315E+02  0.00000000000E+00 0. -1.
         -5    1    5    5    0  502  0.57602549198E+02  0.24592010346E+02  0.99904795977E+02  0.11800796120E+03  0.47000000000E+01 0.  1.
         13    1    6    6    0    0 -0.21647937647E+02  0.10480346332E+03  0.18797083466E+02  0.10865417376E+03  0.00000000000E+00 0. -1.
        -14    1    6    6    0    0 -0.26575794635E+02  0.11892348386E+02  0.44770250658E+02  0.53404832690E+02  0.00000000000E+00 0.  1.
</event>
<event>
12    1  0.8407180E-002  0.2684381E+03  0.7818608E-02  0.1102616E+00
         21   -1    0    0  503  502  0.00000000000E+00  0.00000000000E+00  0.13798761398E+03  0.13798761398E+03  0.00000000000E+00 0.  1.
         21   -1    0    0  501  503 -0.00000000000E+00 -0.00000000000E+00 -0.58509154479E+03  0.58509154479E+03  0.00000000000E+00 0. -1.
          6    2    1    2  501    0 -0.16748061286E+03 -0.11793263517E+03 -0.34636763643E+03  0.43636183280E+03  0.16876980604E+03 0.  0.
         24    2    3    3    0    0 -0.96420940436E+02 -0.15476099294E+00 -0.20236120283E+03  0.23716080968E+03  0.77447863311E+02 0.  0.
         -6    2    1    2    0  502  0.16748061286E+03  0.11793263517E+03 -0.10073629438E+03  0.28671732597E+03  0.17349686418E+03 0.  0.
        -24    2    5    5    0    0  0.66024464037E+02  0.20095706067E+02  0.13255084200E+02  0.10538465042E+03  0.78531267868E+02 0.  0.
          5    1    3    3  501    0 -0.71059672427E+02 -0.11777787418E+03 -0.14400643361E+03  0.19920102312E+03  0.47000000000E+01 0. -1.
        -13    1    4    4    0    0 -0.22738508124E+02 -0.10852195396E+02 -0.42900309332E+01  0.25558056695E+02  0.00000000000E+00 0.  1.
         14    1    4    4    0    0 -0.73682432312E+02  0.10697434403E+02 -0.19807117189E+03  0.21160275298E+03  0.00000000000E+00 0. -1.
         -5    1    5    5    0  502  0.10145614883E+03  0.97836929107E+02 -0.11399137858E+03  0.18133267555E+03  0.47000000000E+01 0.  1.
         13    1    6    6    0    0  0.36682608065E+02 -0.26346373358E+02 -0.91076997636E+01  0.46072717725E+02  0.00000000000E+00 0. -1.
        -14    1    6    6    0    0  0.29341855973E+02  0.46442079425E+02  0.22362783964E+02  0.59311932694E+02  0.00000000000E+00 0.  1.
</event>
<event>
12    1  0.8407180E-002  0.1754655E+03  0.7818608E-02  0.1172669E+00
         21   -1    0    0  503  502  0.00000000000E+00  0.00000000000E+00  0.36320187677E+03  0.36320187677E+03  0.00000000000E+00 0.  1.
         21   -1    0    0  501  503 -0.00000000000E+00 -0.00000000000E+00 -0.86233420196E+02  0.86233420196E+02  0.00000000000E+00 0.  1.
          6    2    1    2  501    0  0.20847256927E+02 -0.11662278860E+02  0.10289028583E+03  0.20340733919E+03  0.17383186662E+03 0.  0.
         24    2    3    3    0    0  0.84533189480E+01  0.56100878055E+02  0.90150096242E+02  0.13319439477E+03  0.79968367663E+02 0.  0.
         -6    2    1    2    0  502 -0.20847256927E+02  0.11662278860E+02  0.17407817075E+03  0.24602795778E+03  0.17220897075E+03 0.  0.
        -24    2    5    5    0    0 -0.32980528132E+02 -0.12113529254E+02  0.19381580158E+03  0.21249932237E+03  0.79730447368E+02 0.  0.
          5    1    3    3  501    0  0.12393937979E+02 -0.67763156915E+02  0.12740189586E+02  0.70212944422E+02  0.47000000000E+01 0. -1.
        -11    1    4    4    0    0  0.26482747096E+02 -0.36099110587E+01  0.56077621221E+02  0.62121388856E+02  0.00000000000E+00 0.  1.
         12    1    4    4    0    0 -0.18029428148E+02  0.59710789114E+02  0.34072475021E+02  0.71073005917E+02  0.00000000000E+00 0. -1.
         -5    1    5    5    0  502  0.12133271205E+02  0.23775808114E+02 -0.19737630829E+02  0.33528635408E+02  0.47000000000E+01 0.  1.
         11    1    6    6    0    0 -0.11768612429E+02  0.18049402767E+02  0.16307273413E+03  0.16449011458E+03  0.00000000000E+00 0. -1.
        -12    1    6    6    0    0 -0.21211915703E+02 -0.30162932021E+02  0.30743067452E+02  0.48009207787E+02  0.00000000000E+00 0.  1.
</event>
<event>
12    1  0.8407180E-002  0.1748672E+03  0.7818608E-02  0.1173548E+00
         21   -1    0    0  501  502  0.00000000000E+00  0.00000000000E+00  0.72567894844E+03  0.72567894844E+03  0.00000000000E+00 0. -1.
         21   -1    0    0  502  503 -0.00000000000E+00 -0.00000000000E+00 -0.45829361944E+02  0.45829361944E+02  0.00000000000E+00 0. -1.
         -6    2    1    2    0  503  0.17365991770E+02  0.12885913437E+02  0.22363295737E+03  0.28388419532E+03  0.17352496158E+03 0.  0.
        -24    2    3    3    0    0  0.19616680584E+02 -0.83063006454E+01  0.24171282945E+03  0.25554434154E+03  0.80149920672E+02 0.  0.
          6    2    1    2  501    0 -0.17365991770E+02 -0.12885913437E+02  0.45621662913E+03  0.48762411507E+03  0.17080995425E+03 0.  0.
         24    2    5    5    0    0 -0.38398538892E+02 -0.60450463940E+02  0.18027785626E+03  0.20678777327E+03  0.71640570472E+02 0.  0.
          5    1    5    5  501    0  0.21032547122E+02  0.47564550503E+02  0.27593877287E+03  0.28083634180E+03  0.47000000000E+01 0. -1.
        -11    1    6    6    0    0 -0.45714591379E+01  0.45907582942E+01 -0.45728743446E+01  0.79299735269E+01  0.00000000000E+00 0.  1.
         12    1    6    6    0    0 -0.33827079754E+02 -0.65041222235E+02  0.18485073060E+03  0.19885779974E+03  0.00000000000E+00 0. -1.
         -5    1    3    3    0  503 -0.22506888146E+01  0.21192214082E+02 -0.18079872079E+02  0.28339853779E+02  0.47000000000E+01 0.  1.
         11    1    4    4    0    0 -0.12143397803E+02  0.25624613221E+02  0.43284103744E+02  0.51745497871E+02  0.00000000000E+00 0. -1.
        -12    1    4    4    0    0  0.31760078387E+02 -0.33930913867E+02  0.19842872570E+03  0.20379884367E+03  0.00000000000E+00 0.  1.
</event>
<event>
12    1  0.8407180E-002  0.2910797E+03  0.7818608E-02  0.1089950E+00
         21   -1    0    0  503  502  0.00000000000E+00  0.00000000000E+00  0.28117303977E+02  0.28117303977E+02  0.00000000000E+00 0. -1.
         21   -1    0    0  501  503 -0.00000000000E+00 -0.00000000000E+00 -0.30960345203E+04  0.30960345203E+04  0.00000000000E+00 0.  1.
          6    2    1    2  501    0  0.69837492758E+02 -0.22275992549E+03 -0.12626258367E+04  0.12957435626E+04  0.17386234986E+03 0.  0.
         24    2    3    3    0    0  0.89901484082E+02 -0.22386463935E+03 -0.12372207058E+04  0.12630129222E+04  0.79302669182E+02 0.  0.
         -6    2    1    2    0  502 -0.69837492758E+02  0.22275992549E+03 -0.18052913797E+04  0.18284082618E+04  0.17175723058E+03 0.  0.
        -24    2    5    5    0    0 -0.51401796448E+02  0.19498642552E+03 -0.10332044504E+04  0.10555877402E+04  0.78052482689E+02 0.  0.
          5    1    3    3  501    0 -0.20063991324E+02  0.11047138616E+01 -0.25405130896E+02  0.32730640330E+02  0.47000000000E+01 0. -1.
        -13    1    4    4    0    0  0.14300416732E+02 -0.76445622477E+02 -0.58190418953E+03  0.58707829198E+03  0.00000000000E+00 0.  1.
         14    1    4    4    0    0  0.75601067351E+02 -0.14741901688E+03 -0.65531651624E+03  0.67593463026E+03  0.00000000000E+00 0. -1.
         -5    1    5    5    0  502 -0.18435696311E+02  0.27773499977E+02 -0.77208692927E+03  0.77282052157E+03  0.47000000000E+01 0.  1.
         11    1    6    6    0    0  0.85513660928E+01  0.13430823319E+02 -0.26724920988E+02  0.31108427780E+02  0.00000000000E+00 0. -1.
        -12    1    6    6    0    0 -0.59953162540E+02  0.18155560220E+03 -0.10064795294E+04  0.10244793124E+04  0.00000000000E+00 0.  1.
</event>
<event>
12    1  0.8407180E-002  0.2034129E+03  0.7818608E-02  0.1147054E+00
         21   -1    0    0  501  502  0.00000000000E+00  0.00000000000E+00  0.10562504025E+03  0.10562504025E+03  0.00000000000E+00 0. -1.
         21   -1    0    0  502  503 -0.00000000000E+00 -0.00000000000E+00 -0.55461196735E+03  0.55461196735E+03  0.00000000000E+00 0. -1.
         -6    2    1    2    0  503  0.70196876857E+02 -0.81523637968E+02 -0.40452879656E+03  0.45279172670E+03  0.17263573053E+03 0.  0.
        -24    2    3    3    0    0  0.41741421554E+02 -0.37507270523E+02 -0.38414841246E+03  0.39635943457E+03  0.79885273720E+02 0.  0.
          6    2    1    2  501    0 -0.70196876857E+02  0.81523637968E+02 -0.44458130545E+02  0.20744528090E+03  0.17170705906E+03 0.  0.
         24    2    5    5    0    0 -0.83040710916E+02  0.64756205793E+02 -0.88122938680E+02  0.15871319369E+03  0.79593339360E+02 0.  0.
          5    1    5    5  501    0  0.12843834059E+02  0.16767432175E+02  0.43664808135E+02  0.48732087217E+02  0.47000000000E+01 0. -1.
        -13    1    6    6    0    0 -0.78481051342E+02  0.13829953565E+02 -0.63848470871E+02  0.10211351658E+03  0.00000000000E+00 0.  1.
         14    1    6    6    0    0 -0.45596595738E+01  0.50926252227E+02 -0.24274467808E+02  0.56599677108E+02  0.00000000000E+00 0. -1.
         -5    1    3    3    0  503  0.28455455304E+02 -0.44016367445E+02 -0.20380384097E+02  0.56432292134E+02  0.47000000000E+01 0.  1.
         11    1    4    4    0    0  0.32945159875E+01 -0.53786192363E+02 -0.17598728091E+03  0.18405252339E+03  0.00000000000E+00 0. -1.
        -12    1    4    4    0    0  0.38446905566E+02  0.16278921840E+02 -0.20816113155E+03  0.21230691117E+03  0.00000000000E+00 0.  1.
</event>
<event>
12    1  0.8407180E-002  0.1794206E+03  0.7818608E-02  0.1168540E+00
         21   -1    0    0  501  502  0.00000000000E+00  0.00000000000E+00  0.18744652683E+03  0.18744652683E+03  0.00000000000E+00 0.  1.
         21   -1    0    0  502  503 -0.00000000000E+00 -0.00000000000E+00 -0.24160721643E+03  0.24160721643E+03  0.00000000000E+00 0.  1.
         -6    2    1    2    0  503  0.18862493449E+02 -0.45339049036E+02 -0.14304846802E+03  0.22946591941E+03  0.17256975674E+03 0.  0.
        -24    2    3    3    0    0 -0.96723989207E+01  0.20761469045E+02 -0.13315709890E+03  0.15664114508E+03  0.79253021688E+02 0.  0.
          6    2    1    2  501    0 -0.18862493449E+02  0.45339049036E+02  0.88887778419E+02  0.19958782386E+03  0.17182211514E+03 0.  0.
         24    2    5    5    0    0  0.36076708862E+02  0.45794302443E+01  0.64121358822E+00  0.87832695655E+02  0.79947927850E+02 0.  0.
          5    1    5    5  501    0 -0.54939202311E+02  0.40759618792E+02  0.88246564831E+02  0.11175512820E+03  0.47000000000E+01 0. -1.
        -13    1    6    6    0    0 -0.14994259730E+02  0.24550907551E+02 -0.12621473661E+02  0.31414590301E+02  0.00000000000E+00 0.  1.
         14    1    6    6    0    0  0.51070968591E+02 -0.19971477307E+02  0.13262687249E+02  0.56418105354E+02  0.00000000000E+00 0. -1.
         -5    1    3    3    0  503  0.28534892370E+02 -0.66100518081E+02 -0.98913691169E+01  0.72824774330E+02  0.47000000000E+01 0.  1.
         11    1    4    4    0    0 -0.34038022555E+02 -0.10050299429E+02 -0.30751859627E+02  0.46960327603E+02  0.00000000000E+00 0. -1.
        -12    1    4    4    0    0  0.24365623635E+02  0.30811768475E+02 -0.10240523928E+03  0.10968081748E+03  0.00000000000E+00 0.  1.
</event>
<event>
12    1  0.8407180E-002  0.2014037E+03  0.7818608E-02  0.1148991E+00
         21   -1    0    0  501  502  0.00000000000E+00  0.00000000000E+00  0.17291857840E+04  0.17291857840E+04  0.00000000000E+00 0.  1.
         21   -1    0    0  502  503 -0.00000000000E+00 -0.00000000000E+00 -0.35041344739E+02  0.35041344739E+02  0.00000000000E+00 0.  1.
         -6    2    1    2    0  503 -0.98695495251E+02 -0.34004073393E+02  0.33186039193E+03  0.38713552259E+03  0.16983967537E+03 0.  0.
        -24    2    3    3    0    0 -0.68178428415E+02  0.36847103250E+02  0.25416811477E+03  0.27754829464E+03  0.80159953668E+02 0.  0.
          6    2    1    2  501    0  0.98695495251E+02  0.34004073393E+02  0.13622840474E+04  0.13770916062E+04  0.17223933441E+03 0.  0.
         24    2    5    5    0    0  0.50259661167E+02  0.52527690968E+02  0.12306538597E+04  0.12355368439E+04  0.82202057616E+02 0.  0.
          5    1    5    5  501    0  0.48435834084E+02 -0.18523617575E+02  0.13163018766E+03  0.14155476231E+03  0.47000000000E+01 0. -1.
        -13    1    6    6    0    0  0.20267018482E+02  0.15922647695E+02  0.83043213915E+02  0.86950894907E+02  0.00000000000E+00 0.  1.
         14    1    6    6    0    0  0.29992642685E+02  0.36605043273E+02  0.11476106458E+04  0.11485859490E+04  0.00000000000E+00 0. -1.
         -5    1    3    3    0  503 -0.30517066836E+02 -0.70851176643E+02  0.77692277154E+02  0.10958722795E+03  0.47000000000E+01 0.  1.
         13    1    4    4    0    0 -0.66543650910E+02  0.37752734346E+02  0.11355975199E+03  0.13692751257E+03  0.00000000000E+00 0. -1.
        -14    1    4    4    0    0 -0.16347775050E+01 -0.90563109605E+00  0.14060836279E+03  0.14062078207E+03  0.00000000000E+00 0.  1.
</event>
<event>
12    1  0.8407180E-002  0.1918704E+03  0.7818608E-02  0.1156916E+00
         21   -1    0    0  503  502  0.00000000000E+00  0.00000000000E+00  0.12298392166E+04  0.12298392166E+04  0.00000000000E+00 0. -1.
         21   -1    0    0  501  503 -0.00000000000E+00 -0.00000000000E+00 -0.54144151652E+02  0.54144151652E+02  0.00000000000E+00 0. -1.
          6    2    1    2  501    0 -0.29750950629E+02  0.76970945179E+02  0.15725119226E+03  0.24762330881E+03  0.17256801595E+03 0.  0.
         24    2    3    3    0    0 -0.48853367753E+02  0.52479384852E+02  0.17972267935E+03  0.20899952599E+03  0.78992550363E+02 0.  0.
         -6    2    1    2    0  502  0.29750950629E+02 -0.76970945179E+02  0.10184438726E+04  0.10363600594E+04  0.17321837530E+03 0.  0.
        -24    2    5    5    0    0  0.86868557714E+02 -0.42008268148E+02  0.63289089649E+03  0.64500600328E+03  0.78555817713E+02 0.  0.
          5    1    3    3  501    0  0.19102417124E+02  0.24491560327E+02 -0.22471487091E+02  0.38623782820E+02  0.47000000000E+01 0. -1.
        -11    1    4    4    0    0  0.11419744291E+02 -0.53884692228E+01  0.69758399000E+02  0.70892033342E+02  0.00000000000E+00 0.  1.
         12    1    4    4    0    0 -0.60273112044E+02  0.57867854074E+02  0.10996428035E+03  0.13810749264E+03  0.00000000000E+00 0. -1.
         -5    1    5    5    0  502 -0.57117607085E+02 -0.34962677030E+02  0.38555297615E+03  0.39135405612E+03  0.47000000000E+01 0.  1.
         11    1    6    6    0    0 -0.36562354528E+01 -0.31989584326E+02  0.20663570255E+03  0.20912918288E+03  0.00000000000E+00 0. -1.
        -12    1    6    6    0    0  0.90524793167E+02 -0.10018683822E+02  0.42625519393E+03  0.43587682039E+03  0.00000000000E+00 0.  1.
</event>
<event>
12    1  0.8407180E-002  0.1820521E+03  0.7818608E-02  0.1168160E+00
         21   -1    0    0  501  502  0.00000000000E+00  0.00000000000E+00  0.71695958700E+03  0.71695958700E+03  0.00000000000E+00 0.  1.
         21   -1    0    0  502  503 -0.00000000000E+00 -0.00000000000E+00 -0.48955093805E+02  0.48955093805E+02  0.00000000000E+00 0. -1.
         -6    2    1    2    0  503  0.95913537595E+01 -0.84239934313E+01  0.44964212533E+03  0.48161713002E+03  0.17208736537E+03 0.  0.
        -24    2    3    3    0    0 -0.42216865083E+02 -0.46119580090E+02  0.20385261596E+03  0.22757063484E+03  0.79518711279E+02 0.  0.
          6    2    1    2  501    0 -0.95913537595E+01  0.84239934313E+01  0.21836236786E+03  0.28429755079E+03  0.18160400864E+03 0.  0.
         24    2    5    5    0    0  0.15374085344E+02 -0.18807113036E+02  0.23051639978E+03  0.24512336540E+03  0.79734457389E+02 0.  0.
          5    1    5    5  501    0 -0.24965439103E+02  0.27231106467E+02 -0.12154031919E+02  0.39174185389E+02  0.47000000000E+01 0. -1.
        -11    1    6    6    0    0  0.24661215568E+02  0.26080823353E+02  0.77900578070E+02  0.85772285522E+02  0.00000000000E+00 0.  1.
         12    1    6    6    0    0 -0.92871302242E+01 -0.44887936389E+02  0.15261582171E+03  0.15935107988E+03  0.00000000000E+00 0. -1.
         -5    1    3    3    0  503  0.51808218843E+02  0.37695586659E+02  0.24578950937E+03  0.25404649517E+03  0.47000000000E+01 0.  1.
         13    1    4    4    0    0 -0.47057814949E+02  0.48043367587E+01  0.72054980357E+02  0.86194198144E+02  0.00000000000E+00 0. -1.
        -14    1    4    4    0    0  0.48409498658E+01 -0.50923916849E+02  0.13179763560E+03  0.14137643670E+03  0.00000000000E+00 0.  1.
</event>
<event>
12    1  0.8407180E-002  0.2197625E+03  0.7818608E-02  0.1134340E+00
         21   -1    0    0  501  502  0.00000000000E+00  0.00000000000E+00  0.80254801475E+02  0.80254801475E+02  0.00000000000E+00 0.  1.
         21   -1    0    0  502  503 -0.00000000000E+00 -0.00000000000E+00 -0.59795439550E+03  0.59795439550E+03  0.00000000000E+00 0. -1.
         -6    2    1    2    0  503 -0.18476643893E+02 -0.13194039632E+03 -0.26686270004E+03  0.34570398332E+03  0.17477382201E+03 0.  0.
        -24    2    3    3    0    0 -0.53660171497E+02 -0.41104777009E+02 -0.20714439987E+03  0.23134771666E+03  0.77742825434E+02 0.  0.
          6    2    1    2  501    0  0.18476643893E+02  0.13194039632E+03 -0.25083689399E+03  0.33250521366E+03  0.17288989321E+03 0.  0.
         24    2    5    5    0    0  0.95398514272E+01  0.16176918848E+03 -0.17741544410E+03  0.25261514917E+03  0.77960853487E+02 0.  0.
          5    1    5    5  501    0  0.89367924658E+01 -0.29828792162E+02 -0.73421449883E+02  0.79890064491E+02  0.47000000000E+01 0. -1.
        -11    1    6    6    0    0  0.25618415716E+02  0.22405214254E+02 -0.12875410206E+02  0.36387814410E+02  0.00000000000E+00 0.  1.
         12    1    6    6    0    0 -0.16078564289E+02  0.13936397422E+03 -0.16454003390E+03  0.21622733476E+03  0.00000000000E+00 0. -1.
         -5    1    3    3    0  503  0.35183527604E+02 -0.90835619306E+02 -0.59718300166E+02  0.11435626666E+03  0.47000000000E+01 0.  1.
         13    1    4    4    0    0  0.13409525368E+02 -0.36284392495E+01 -0.91239652575E+02  0.92291143367E+02  0.00000000000E+00 0. -1.
        -14    1    4    4    0    0 -0.67069696865E+02 -0.37476337760E+02 -0.11590474730E+03  0.13905657329E+03  0.00000000000E+00 0.  1.
</event>
<event>
12    1  0.8407180E-002  0.2033979E+03  0.7818608E-02  0.1147488E+00
         21   -1    0    0  503  502  0.00000000000E+00  0.00000000000E+00  0.15835650576E+04  0.15835650576E+04  0.00000000000E+00 0. -1.
         21   -1    0    0  501  503 -0.00000000000E+00 -0.00000000000E+00 -0.45064161402E+02  0.45064161402E+02  0.00000000000E+00 0.  1.
          6    2    1    2  501    0 -0.76863950178E+02  0.68717600679E+02  0.23329596710E+03  0.30767100883E+03  0.17205890249E+03 0.  0.
         24    2    3    3    0    0  0.19813562799E-01 -0.18741582317E+02  0.10208719101E+03  0.13217726324E+03  0.81840008848E+02 0.  0.
         -6    2    1    2    0  502  0.76863950178E+02 -0.68717600679E+02  0.13052049291E+04  0.13209582102E+04  0.17532971972E+03 0.  0.
        -24    2    5    5    0    0 -0.14837017552E+02 -0.73798762643E+02  0.48500895106E+03  0.49562287344E+03  0.68861858858E+02 0.  0.
          5    1    3    3  501    0 -0.76883763740E+02  0.87459182997E+02  0.13120877609E+03  0.17549374559E+03  0.47000000000E+01 0. -1.
        -13    1    4    4    0    0 -0.10176237803E+02  0.23788056006E+02  0.78147134941E+02  0.82318905021E+02  0.00000000000E+00 0.  1.
         14    1    4    4    0    0  0.10196051366E+02 -0.42529638324E+02  0.23940056068E+02  0.49858358215E+02  0.00000000000E+00 0. -1.
         -5    1    5    5    0  502  0.91700967730E+02  0.50811619633E+01  0.82019597806E+03  0.82533533677E+03  0.47000000000E+01 0.  1.
         11    1    6    6    0    0  0.35806027672E+01 -0.41615674459E+02  0.40820289795E+03  0.41033436485E+03  0.00000000000E+00 0. -1.
        -12    1    6    6    0    0 -0.18417620320E+02 -0.32183088184E+02  0.76806053112E+02  0.85288508593E+02  0.00000000000E+00 0.  1.
</event>
<event>
12    1  0.8407180E-002  0.1805153E+03  0.7818608E-02  0.1167467E+00
         21   -1    0    0  501  502  0.00000000000E+00  0.00000000000E+00  0.14338444123E+04  0.14338444123E+04  0.00000000000E+00 0. -1.
         21   -1    0    0  502  503 -0.00000000000E+00 -0.00000000000E+00 -0.88620925242E+02  0.88620925242E+02  0.00000000000E+00 0. -1.
         -6    2    1    2    0  503  0.49084633393E+02  0.20760810209E+02  0.15465693399E+02  0.18051095680E+03  0.17176933771E+03 0.  0.
        -24    2    3    3    0    0  0.71011816602E+02 -0.21641153331E+02  0.51848489121E+02  0.12030692288E+03  0.79211566420E+02 0.  0.
          6    2    1    2  501    0 -0.49084633393E+02 -0.20760810209E+02  0.13297577936E+04  0.13419543807E+04  0.17246871518E+03 0.  0.
         24    2    5    5    0    0 -0.51103962334E+02  0.18451442970E+02  0.39684534384E+03  0.40820419600E+03  0.78691600476E+02 0.  0.
          5    1    5    5  501    0  0.20193289415E+01 -0.39212253179E+02  0.93291244977E+03  0.93375018470E+03  0.47000000000E+01 0. -1.
        -11    1    6    6    0    0 -0.62600054224E+02 -0.11356769922E+02  0.27072198434E+03  0.27809734953E+03  0.00000000000E+00 0.  1.
         12    1    6    6    0    0  0.11496091890E+02  0.29808212892E+02  0.12612335950E+03  0.13010684647E+03  0.00000000000E+00 0. -1.
         -5    1    3    3    0  503 -0.21927183209E+02  0.42401963539E+02 -0.36382795722E+02  0.60204033918E+02  0.47000000000E+01 0.  1.
         13    1    4    4    0    0  0.27227372020E+02 -0.35716879483E+02 -0.71747759548E+01  0.45480794597E+02  0.00000000000E+00 0. -1.
        -14    1    4    4    0    0  0.43784444581E+02  0.14075726153E+02  0.59023265075E+02  0.74826128285E+02  0.00000000000E+00 0.  1.
</event>
<event>
12    1  0.8407180E-002  0.1822994E+03  0.7818608E-02  0.1167412E+00
         21   -1    0    0  503  502  0.00000000000E+00  0.00000000000E+00  0.50970620985E+02  0.50970620985E+02  0.00000000000E+00 0. -1.
         21   -1    0    0  501  503 -0.00000000000E+00 -0.00000000000E+00 -0.66768612900E+03  0.66768612900E+03  0.00000000000E+00 0. -1.
          6    2    1    2  501    0 -0.38338197568E+02  0.35682322882E+01 -0.22418280949E+03  0.28894810429E+03  0.17818677064E+03 0.  0.
         24    2    3    3    0    0 -0.83640156314E+02 -0.10987690658E+02 -0.91153243923E+02  0.14758651944E+03  0.79727421554E+02 0.  0.
         -6    2    1    2    0  502  0.38338197568E+02 -0.35682322882E+01 -0.39253269853E+03  0.42970864569E+03  0.17054339944E+03 0.  0.
        -24    2    5    5    0    0 -0.10815869649E+02  0.41170350484E+02 -0.13015246249E+03  0.15900005444E+03  0.80804535918E+02 0.  0.
          5    1    3    3  501    0  0.45301958746E+02  0.14555922947E+02 -0.13302956556E+03  0.14136158486E+03  0.47000000000E+01 0. -1.
        -13    1    4    4    0    0 -0.11470161564E+02  0.30357582837E+02 -0.19922001537E+02  0.38079306550E+02  0.00000000000E+00 0.  1.
         14    1    4    4    0    0 -0.72169994750E+02 -0.41345273496E+02 -0.71231242385E+02  0.10950721289E+03  0.00000000000E+00 0. -1.
         -5    1    5    5    0  502  0.49154067217E+02 -0.44738582772E+02 -0.26238023604E+03  0.27070859126E+03  0.47000000000E+01 0.  1.
         13    1    6    6    0    0 -0.19588827172E+02  0.35205277655E+02 -0.13928946238E+03  0.14499892432E+03  0.00000000000E+00 0. -1.
        -14    1    6    6    0    0  0.87729575230E+01  0.59650728288E+01  0.91369998914E+01  0.14001130118E+02  0.00000000000E+00 0.  1.
</event>
<event>
12    1  0.8407180E-002  0.2436834E+03  0.7818608E-02  0.1117464E+00
         21   -1    0    0  501  502  0.00000000000E+00  0.00000000000E+00  0.10535695221E+04  0.10535695221E+04  0.00000000000E+00 0.  1.
         21   -1    0    0  502  503 -0.00000000000E+00 -0.00000000000E+00 -0.59398166671E+02  0.59398166671E+02  0.00000000000E+00 0. -1.
         -6    2    1    2    0  503 -0.12227813913E+03 -0.12215103090E+03  0.36777394244E+03  0.44084023586E+03  0.17090823023E+03 0.  0.
        -24    2    3    3    0    0 -0.12995787741E+03 -0.12024620564E+03  0.37829953972E+03  0.42685864306E+03  0.88031582559E+02 0.  0.
          6    2    1    2  501    0  0.12227813913E+03  0.12215103090E+03  0.62639741302E+03  0.67212745293E+03  0.17178118725E+03 0.  0.
         24    2    5    5    0    0  0.27060356656E+02  0.20096903546E+02  0.36955797799E+03  0.37977482956E+03  0.80744496003E+02 0.  0.
          5    1    5    5  501    0  0.95217782479E+02  0.10205412735E+03  0.25683943502E+03  0.29235262337E+03  0.47000000000E+01 0. -1.
        -11    1    6    6    0    0  0.98842625692E+01  0.46696527258E+02  0.13711844228E+03  0.14518860671E+03  0.00000000000E+00 0.  1.
         12    1    6    6    0    0  0.17176094086E+02 -0.26599623712E+02  0.23243953571E+03  0.23458622285E+03  0.00000000000E+00 0. -1.
         -5    1    3    3    0  503  0.76797382782E+01 -0.19048252587E+01 -0.10525597281E+02  0.13981592807E+02  0.47000000000E+01 0.  1.
         13    1    4    4    0    0 -0.28763542266E+01  0.12654036495E+02  0.16305382650E+02  0.20838991257E+02  0.00000000000E+00 0. -1.
        -14    1    4    4    0    0 -0.12708152319E+03 -0.13290024214E+03  0.36199415707E+03  0.40601965180E+03  0.00000000000E+00 0.  1.
</event>
<event>
12    1  0.8407180E-002  0.1818585E+03  0.7818608E-02  0.1167468E+00
         21   -1    0    0  501  502  0.00000000000E+00  0.00000000000E+00  0.60195847296E+03  0.60195847296E+03  0.00000000000E+00 0. -1.
         21   -1    0    0  502  503 -0.00000000000E+00 -0.00000000000E+00 -0.61565470112E+02  0.61565470112E+02  0.00000000000E+00 0. -1.
         -6    2    1    2    0  503 -0.15205572325E+02 -0.33391586441E+02  0.15146199477E+03  0.23667114698E+03  0.17811874825E+03 0.  0.
        -24    2    3    3    0    0 -0.26507785843E+02  0.47140861968E+02  0.88683480788E+02  0.13382929220E+03  0.84383624642E+02 0.  0.
          6    2    1    2  501    0  0.15205572325E+02  0.33391586441E+02  0.38893100808E+03  0.42685279609E+03  0.17201678119E+03 0.  0.
         24    2    5    5    0    0 -0.52095868862E+01 -0.22206854326E+02  0.99765206700E+02  0.13164623108E+03  0.82809114921E+02 0.  0.
          5    1    5    5  501    0  0.20415159211E+02  0.55598440768E+02  0.28916580138E+03  0.29520656501E+03  0.47000000000E+01 0. -1.
        -13    1    6    6    0    0 -0.32610748718E+02 -0.41935737049E+01  0.92347331351E+02  0.98025897598E+02  0.00000000000E+00 0.  1.
         14    1    6    6    0    0  0.27401161831E+02 -0.18013280622E+02  0.74178753498E+01  0.33620333478E+02  0.00000000000E+00 0. -1.
         -5    1    3    3    0  503  0.11302213518E+02 -0.80532448410E+02  0.62778513978E+02  0.10284185478E+03  0.47000000000E+01 0.  1.
         11    1    4    4    0    0  0.11354830060E+01  0.54758221588E+02  0.18164226414E+02  0.57703477142E+02  0.00000000000E+00 0. -1.
        -12    1    4    4    0    0 -0.27643268849E+02 -0.76173596192E+01  0.70519254374E+02  0.76125815054E+02  0.00000000000E+00 0.  1.
</event>
<event>
12    1  0.8407180E-002  0.2325234E+03  0.7818608E-02  0.1126696E+00
         21   -1    0    0  501  502  0.00000000000E+00  0.00000000000E+00  0.11036366398E+03  0.11036366398E+03  0.00000000000E+00 0.  1.
         21   -1    0    0  502  503 -0.00000000000E+00 -0.00000000000E+00 -0.46979061944E+03  0.46979061944E+03  0.00000000000E+00 0.  1.
         -6    2    1    2    0  503  0.99836592431E+02 -0.94928693394E+02 -0.19047098685E+03  0.29272909368E+03  0.17444862692E+03 0.  0.
        -24    2    3    3    0    0  0.95948609762E+02 -0.24680430543E+02 -0.50869857739E+02  0.13633056398E+03  0.78632187307E+02 0.  0.
          6    2    1    2  501    0 -0.99836592431E+02  0.94928693394E+02 -0.16895596860E+03  0.28742518974E+03  0.18731876136E+03 0.  0.
         24    2    5    5    0    0 -0.21239677106E+02  0.77552563595E+02 -0.17402726339E+03  0.20663402057E+03  0.77114240269E+02 0.  0.
          5    1    5    5  501    0 -0.78596915325E+02  0.17376129800E+02  0.50712947864E+01  0.80791169172E+02  0.47000000000E+01 0. -1.
        -11    1    6    6    0    0 -0.99490855007E+01  0.16428925520E+02  0.26065169942E+01  0.19382668209E+02  0.00000000000E+00 0.  1.
         12    1    6    6    0    0 -0.11290591606E+02  0.61123638074E+02 -0.17663378038E+03  0.18725135236E+03  0.00000000000E+00 0. -1.
         -5    1    3    3    0  503  0.38879826694E+01 -0.70248262851E+02 -0.13960112911E+03  0.15639852970E+03  0.47000000000E+01 0.  1.
         11    1    4    4    0    0  0.10025666896E+03 -0.11964933752E+02 -0.62348340884E+02  0.11866707598E+03  0.00000000000E+00 0. -1.
        -12    1    4    4    0    0 -0.43080592027E+01 -0.12715496792E+02  0.11478483145E+02  0.17663487993E+02  0.00000000000E+00 0.  1.
</event>
<event>
12    1  0.8407180E-002  0.2033200E+03  0.7818608E-02  0.1146996E+00
         21   -1    0    0  503  502  0.00000000000E+00  0.00000000000E+00  0.15168538579E+04  0.15168538579E+04  0.00000000000E+00 0. -1.
         21   -1    0    0  501  503 -0.00000000000E+00 -0.00000000000E+00 -0.11464731812E+03  0.11464731812E+03  0.00000000000E+00 0. -1.
          6    2    1    2  501    0  0.10668646806E+03  0.15666897979E+01 -0.11139497549E+02  0.20362495540E+03  0.17307390638E+03 0.  0.
         24    2    3    3    0    0 -0.10802480339E+02 -0.49042141328E+01 -0.26827400733E+02  0.84823752118E+02  0.79590292094E+02 0.  0.
         -6    2    1    2    0  502 -0.10668646806E+03 -0.15666897979E+01  0.14133460374E+04  0.14278762207E+04  0.17291334008E+03 0.  0.
        -24    2    5    5    0    0 -0.12924734548E+03 -0.75994049721E+01  0.81454106724E+03  0.82859759673E+03  0.79587686329E+02 0.  0.
          5    1    3    3  501    0  0.11748894840E+03  0.64709039307E+01  0.15687903184E+02  0.11880120328E+03  0.47000000000E+01 0. -1.
        -11    1    4    4    0    0 -0.17022728021E+02 -0.37840885929E+02  0.62424512975E+00  0.41498139707E+02  0.00000000000E+00 0.  1.
         12    1    4    4    0    0  0.62202476823E+01  0.32936671796E+02 -0.27451645862E+02  0.43325612411E+02  0.00000000000E+00 0. -1.
         -5    1    5    5    0  502  0.22560877418E+02  0.60327151742E+01  0.59880497014E+03  0.59927862393E+03  0.47000000000E+01 0.  1.
         13    1    6    6    0    0 -0.40144726062E+02 -0.24615413607E+02  0.46862467496E+03  0.47098471695E+03  0.00000000000E+00 0. -1.
        -14    1    6    6    0    0 -0.89102619418E+02  0.17016008635E+02  0.34591639228E+03  0.35761287978E+03  0.00000000000E+00 0.  1.
</event>
<event>
12    1  0.8407180E-002  0.2272068E+03  0.7818608E-02  0.1128692E+00
         21   -1    0    0  503  502  0.00000000000E+00  0.00000000000E+00  0.75884916454E+03  0.75884916454E+03  0.00000000000E+00 0.  1.
         21   -1    0    0  501  503 -0.00000000000E+00 -0.00000000000E+00 -0.89903103501E+02  0.89903103501E+02  0.00000000000E+00 0.  1.
          6    2    1    2  501    0 -0.30724371050E+02  0.14346332557E+03  0.12435438974E+03  0.25866496687E+03  0.17296773711E+03 0.  0.
         24    2    3    3    0    0 -0.57654346341E+01  0.79957997727E+02  0.14829281301E+03  0.18620109118E+03  0.79079493737E+02 0.  0.
         -6    2    1    2    0  502  0.30724371050E+02 -0.14346332557E+03  0.54459167130E+03  0.59008730117E+03  0.17348550889E+03 0.  0.
        -24    2    5    5    0    0  0.77637313429E+01 -0.16404227895E+03  0.49581724242E+03  0.53219326684E+03  0.10210186375E+03 0.  0.
          5    1    3    3  501    0 -0.24958936416E+02  0.63505327840E+02 -0.23938423273E+02  0.72463875689E+02  0.47000000000E+01 0. -1.
        -11    1    4    4    0    0 -0.32703961484E+02  0.79040426173E+02  0.10912818455E+03  0.13865748711E+03  0.00000000000E+00 0.  1.
         12    1    4    4    0    0  0.26938526850E+02  0.91757155370E+00  0.39164628461E+02  0.47543604080E+02  0.00000000000E+00 0. -1.
         -5    1    5    5    0  502  0.22960639707E+02  0.20578953387E+02  0.48774428880E+02  0.57894034328E+02  0.47000000000E+01 0.  1.
         13    1    6    6    0    0  0.13270259123E+02  0.10524143639E+02  0.26699246256E+02  0.31618145536E+02  0.00000000000E+00 0. -1.
        -14    1    6    6    0    0 -0.55065277798E+01 -0.17456642259E+03  0.46911799617E+03  0.50057512131E+03  0.00000000000E+00 0.  1.
</event>
<event>
12    1  0.8407180E-002  0.2081864E+03  0.7818608E-02  0.1143285E+00
         21   -1    0    0  503  502  0.00000000000E+00  0.00000000000E+00  0.28868397678E+03  0.28868397678E+03  0.00000000000E+00 0. -1.
         21   -1    0    0  501  503 -0.00000000000E+00 -0.00000000000E+00 -0.24497617751E+03  0.24497617751E+03  0.00000000000E+00 0. -1.
          6    2    1    2  501    0 -0.11321853394E+03 -0.32603333490E+02 -0.14507446381E+03  0.25262575115E+03  0.16997575212E+03 0.  0.
         24    2    3    3    0    0  0.41164259683E+01 -0.68381018616E+01 -0.28664472369E+02  0.85279654432E+02  0.79920353377E+02 0.  0.
         -6    2    1    2    0  502  0.11321853394E+03  0.32603333490E+02  0.18878226308E+03  0.28103440314E+03  0.17163967814E+03 0.  0.
        -24    2    5    5    0    0 -0.98684939742E+01  0.11438123444E+02  0.51736109629E+02  0.95556316207E+02  0.78906062417E+02 0.  0.
          5    1    3    3  501    0 -0.11733495991E+03 -0.25765231629E+02 -0.11640999144E+03  0.16734609671E+03  0.47000000000E+01 0. -1.
        -13    1    4    4    0    0 -0.13010528572E+01  0.53485146086E+01  0.27248105149E+02  0.27798535596E+02  0.00000000000E+00 0.  1.
         14    1    4    4    0    0  0.54174788255E+01 -0.12186616470E+02 -0.55912577519E+02  0.57481118836E+02  0.00000000000E+00 0. -1.
         -5    1    5    5    0  502  0.12308702792E+03  0.21165210046E+02  0.13704615345E+03  0.18547808694E+03  0.47000000000E+01 0.  1.
         13    1    6    6    0    0 -0.23700435326E+02  0.23921810316E+02  0.64644413323E+02  0.72889394410E+02  0.00000000000E+00 0. -1.
        -14    1    6    6    0    0  0.13831941352E+02 -0.12483686872E+02 -0.12908303695E+02  0.22666921797E+02  0.00000000000E+00 0.  1.
</event>
<event>
12    1  0.8407180E-002  0.1827977E+03  0.7818608E-02  0.1165137E+00
         21   -1    0    0  503  502  0.00000000000E+00  0.00000000000E+00  0.10498174957E+03  0.10498174957E+03  0.00000000000E+00 0. -1.
         21   -1    0    0  501  503 -0.00000000000E+00 -0.00000000000E+00 -0.40713579683E+03  0.40713579683E+03  0.00000000000E+00 0. -1.
          6    2    1    2  501    0  0.24022166696E+00  0.54490231892E+02 -0.27078274138E+03  0.32670827805E+03  0.17448714232E+03 0.  0.
         24    2    3    3    0    0 -0.12968117026E+02  0.51686964617E+01 -0.40209532421E+02  0.90502501743E+02  0.79868697509E+02 0.  0.
         -6    2    1    2    0  502 -0.24022166696E+00 -0.54490231892E+02 -0.31371305874E+02  0.18540926836E+03  0.17442246095E+03 0.  0.
        -24    2    5    5    0    0  0.46269237872E+02 -0.55984800834E+02  0.25992763087E+02  0.11139514828E+03  0.80362398109E+02 0.  0.
          5    1    3    3  501    0  0.13208338693E+02  0.49321535430E+02 -0.23057320896E+03  0.23620577630E+03  0.47000000000E+01 0. -1.
        -11    1    4    4    0    0 -0.45251312477E+02 -0.80215837904E+01 -0.26354083784E+02  0.52977021618E+02  0.00000000000E+00 0.  1.
         12    1    4    4    0    0  0.32283195451E+02  0.13190280252E+02 -0.13855448637E+02  0.37525480125E+02  0.00000000000E+00 0. -1.
         -5    1    5    5    0  502 -0.46509459539E+02  0.14945689421E+01 -0.57364068961E+02  0.74014120077E+02  0.47000000000E+01 0.  1.
         13    1    6    6    0    0 -0.80804943503E+01 -0.50951897690E+02  0.23680202575E+02  0.56763916894E+02  0.00000000000E+00 0. -1.
        -14    1    6    6    0    0  0.54349732222E+02 -0.50329031444E+01  0.23125605125E+01  0.54631231386E+02  0.00000000000E+00 0.  1.
</event>
<event>
12    1  0.8407180E-002  0.1834599E+03  0.7818608E-02  0.1164545E+00
         21   -1    0    0  501  502  0.00000000000E+00  0.00000000000E+00  0.46670219072E+02  0.46670219072E+02  0.00000000000E+00 0. -1.
         21   -1    0    0  502  503 -0.00000000000E+00 -0.00000000000E+00 -0.11022688199E+04  0.11022688199E+04  0.00000000000E+00 0.  1.
         -6    2    1    2    0  503 -0.46197179735E+02  0.47813506536E+02 -0.86574883482E+03  0.88493056358E+03  0.17076517951E+03 0.  0.
        -24    2    3    3    0    0 -0.11258586020E+02 -0.31059520953E+02 -0.31193576438E+03  0.32441948716E+03  0.82780631473E+02 0.  0.
          6    2    1    2  501    0  0.46197179735E+02 -0.47813506536E+02 -0.18984976605E+03  0.26400847544E+03  0.17098897804E+03 0.  0.
         24    2    5    5    0    0 -0.13059128422E+02 -0.53446137526E+02 -0.44046005854E+02  0.10645257083E+03  0.79781380999E+02 0.  0.
          5    1    5    5  501    0  0.59256308157E+02  0.56326309905E+01 -0.14580376020E+03  0.15755590461E+03  0.47000000000E+01 0. -1.
        -13    1    6    6    0    0  0.19400579399E+01 -0.53357058997E+01 -0.54658787792E+02  0.54952858571E+02  0.00000000000E+00 0.  1.
         14    1    6    6    0    0 -0.14999186362E+02 -0.48110431626E+02  0.10612781938E+02  0.51499712264E+02  0.00000000000E+00 0. -1.
         -5    1    3    3    0  503 -0.34938593715E+02  0.78873027488E+02 -0.55381307044E+03  0.56051107642E+03  0.47000000000E+01 0.  1.
         11    1    4    4    0    0 -0.11463702000E+02  0.23065922460E+02 -0.43273154912E+02  0.50358903666E+02  0.00000000000E+00 0. -1.
        -12    1    4    4    0    0  0.20511597961E+00 -0.54125443412E+02 -0.26866260947E+03  0.27406058350E+03  0.00000000000E+00 0.  1.
</event>
<event>
12    1  0.8407180E-002  0.1728874E+03  0.7818608E-02  0.1175187E+00
         21   -1    0    0  501  502  0.00000000000E+00  0.00000000000E+00  0.22699745638E+03  0.22699745638E+03  0.00000000000E+00 0.  1.
         21   -1    0    0  502  503 -0.00000000000E+00 -0.00000000000E+00 -0.15461075003E+03  0.15461075003E+03  0.00000000000E+00 0.  1.
         -6    2    1    2    0  503 -0.12598734591E+02 -0.15296961070E+02 -0.38899615344E+02  0.17600008932E+03  0.17049963706E+03 0.  0.
        -24    2    3    3    0    0 -0.23600982232E+02 -0.49852838002E+02 -0.77126909777E+02  0.12309853809E+03  0.78500815590E+02 0.  0.
          6    2    1    2  501    0  0.12598734591E+02  0.15296961070E+02  0.11128632170E+03  0.20560811708E+03  0.17174785962E+03 0.  0.
         24    2    5    5    0    0  0.66652706652E+02 -0.75211092817E+00  0.35697855018E+02  0.11118825211E+03  0.81518964532E+02 0.  0.
          5    1    5    5  501    0 -0.54053972062E+02  0.16049071998E+02  0.75588466680E+02  0.94419864979E+02  0.47000000000E+01 0. -1.
        -13    1    6    6    0    0 -0.65877685130E+01  0.26341535832E+02  0.76060895871E+01  0.28198010617E+02  0.00000000000E+00 0.  1.
         14    1    6    6    0    0  0.73240475165E+02 -0.27093646760E+02  0.28091765430E+02  0.82990241488E+02  0.00000000000E+00 0. -1.
         -5    1    3    3    0  503  0.11002247641E+02  0.34555876932E+02  0.38227294433E+02  0.52901551238E+02  0.47000000000E+01 0.  1.
         13    1    4    4    0    0 -0.27057205215E+02  0.15002633452E+02 -0.26856689960E+02  0.40968929204E+02  0.00000000000E+00 0. -1.
        -14    1    4    4    0    0  0.34562229827E+01 -0.64855471454E+02 -0.50270219817E+02  0.82129608883E+02  0.00000000000E+00 0.  1.
</event>
<event>
12    1  0.8407180E-002  0.2918675E+03  0.7818608E-02  0.1089426E+00
         21   -1    0    0  501  502  0.00000000000E+00  0.00000000000E+00  0.10721771869E+03  0.10721771869E+03  0.00000000000E+00 0. -1.
         21   -1    0    0  502  503 -0.00000000000E+00 -0.00000000000E+00 -0.79372799538E+03  0.79372799538E+03  0.00000000000E+00 0.  1.
         -6    2    1    2    0  503  0.69548780200E+01 -0.23556608801E+03 -0.35080952174E+03  0.45634849155E+03  0.17218267349E+03 0.  0.
        -24    2    3    3    0    0  0.60816591461E+02 -0.14820801255E+03 -0.16166495943E+03  0.24110380991E+03  0.79568934050E+02 0.  0.
          6    2    1    2  501    0 -0.69548780200E+01  0.23556608801E+03 -0.33570075495E+03  0.44459722252E+03  0.17155739927E+03 0.  0.
         24    2    5    5    0    0 -0.57754828069E+02  0.14610540889E+03 -0.27476776112E+03  0.32493616883E+03  0.73510411419E+02 0.  0.
          5    1    5    5  501    0  0.50799950049E+02  0.89460679115E+02 -0.60932993832E+02  0.11966105369E+03  0.47000000000E+01 0. -1.
        -13    1    6    6    0    0 -0.60181749448E+02  0.52637128690E+02 -0.12617586673E+03  0.14937489625E+03  0.00000000000E+00 0.  1.
         14    1    6    6    0    0  0.24269213784E+01  0.93468280202E+02 -0.14859189439E+03  0.17556127258E+03  0.00000000000E+00 0. -1.
         -5    1    3    3    0  503 -0.53861713441E+02 -0.87358075457E+02 -0.18914456231E+03  0.21524468164E+03  0.47000000000E+01 0.  1.
         13    1    4    4    0    0  0.54532506282E+02 -0.36095405446E+02 -0.73168160790E+02  0.98133848845E+02  0.00000000000E+00 0. -1.
        -14    1    4    4    0    0  0.62840851795E+01 -0.11211260710E+03 -0.88496798637E+02  0.14296996107E+03  0.00000000000E+00 0.  1.
</event>
<event>
12    1  0.8407180E-002  0.1988349E+03  0.7818608E-02  0.1151028E+00
         21   -1    0    0  501  502  0.00000000000E+00  0.00000000000E+00  0.38077514819E+03  0.38077514819E+03  0.00000000000E+00 0.  1.
         21   -1    0    0  502  503 -0.00000000000E+00 -0.00000000000E+00 -0.18182291740E+03  0.18182291740E+03  0.00000000000E+00 0.  1.
         -6    2    1    2    0  503  0.13046455973E+02 -0.99562934946E+02 -0.85831496844E+02  0.21526958859E+03  0.16997341526E+03 0.  0.
        -24    2    3    3    0    0  0.29855042560E+02 -0.10531373222E+03 -0.77745170397E+01  0.13507867671E+03  0.78762300791E+02 0.  0.
          6    2    1    2  501    0 -0.13046455973E+02  0.99562934946E+02  0.28478372763E+03  0.34732847700E+03  0.17161675728E+03 0.  0.
         24    2    5    5    0    0  0.10721989635E+02  0.82664287509E+02  0.29464575860E+03  0.31618601488E+03  0.78798016833E+02 0.  0.
          5    1    5    5  501    0 -0.23768445608E+02  0.16898647438E+02 -0.98620309634E+01  0.31142462115E+02  0.47000000000E+01 0. -1.
        -13    1    6    6    0    0  0.29184457930E+02  0.80153840060E+02  0.17047960263E+03  0.19062965555E+03  0.00000000000E+00 0.  1.
         14    1    6    6    0    0 -0.18462468295E+02  0.25104474483E+01  0.12416615596E+03  0.12555635933E+03  0.00000000000E+00 0. -1.
         -5    1    3    3    0  503 -0.16808586587E+02  0.57507972778E+01 -0.78056979804E+02  0.80190911883E+02  0.47000000000E+01 0.  1.
         11    1    4    4    0    0  0.78213985344E+01  0.30284463733E+01 -0.22059040011E+02  0.23599724758E+02  0.00000000000E+00 0. -1.
        -12    1    4    4    0    0  0.22033644025E+02 -0.10834217860E+03  0.14284522971E+02  0.11147895195E+03  0.00000000000E+00 0.  1.
</event>
<event>
12    1  0.8407180E-002  0.1813133E+03  0.7818608E-02  0.1166762E+00
         21   -1    0    0  503  502  0.00000000000E+00  0.00000000000E+00  0.65573159374E+02  0.65573159374E+02  0.00000000000E+00 0.  1.
         21   -1    0    0  501  503 -0.00000000000E+00 -0.00000000000E+00 -0.10725120081E+04  0.10725120081E+04  0.00000000000E+00 0.  1.
          6    2    1    2  501    0  0.22507936803E+02 -0.48257493622E+02 -0.91906642956E+03  0.93660046208E+03  0.17234248085E+03 0.  0.
         24    2    3    3    0    0  0.77431799634E+02 -0.45725295409E+02 -0.58687979212E+03  0.59986155012E+03  0.85554092072E+02 0.  0.
         -6    2    1    2    0  502 -0.22507936803E+02  0.48257493622E+02 -0.87872419117E+02  0.20148470535E+03  0.17331800697E+03 0.  0.
        -24    2    5    5    0    0  0.28364857401E+02  0.67551088383E+02 -0.96419020378E+02  0.14620886631E+03  0.81931010116E+02 0.  0.
          5    1    3    3  501    0 -0.54923862831E+02 -0.25321982138E+01 -0.33218663744E+03  0.33673891196E+03  0.47000000000E+01 0. -1.
        -13    1    4    4    0    0  0.59280601357E+01 -0.49410649502E+02 -0.18108162596E+03  0.18779539250E+03  0.00000000000E+00 0.  1.
         14    1    4    4    0    0  0.71503739498E+02  0.36853540935E+01 -0.40579816616E+03  0.41206615762E+03  0.00000000000E+00 0. -1.
         -5    1    5    5    0  502 -0.50872794204E+02 -0.19293594761E+02  0.85466012609E+01  0.55275839044E+02  0.47000000000E+01 0.  1.
         11    1    6    6    0    0 -0.21089318725E+02  0.48495221410E+02 -0.67774767264E+02  0.85964905290E+02  0.00000000000E+00 0. -1.
        -12    1    6    6    0    0  0.49454176126E+02  0.19055866973E+02 -0.28644253114E+02  0.60243961016E+02  0.00000000000E+00 0.  1.
</event>
<event>
12    1  0.8407180E-002  0.2151587E+03  0.7818608E-02  0.1137697E+00
         21   -1    0    0  501  502  0.00000000000E+00  0.00000000000E+00  0.17096840088E+03  0.17096840088E+03  0.00000000000E+00 0. -1.
         21   -1    0    0  502  503 -0.00000000000E+00 -0.00000000000E+00 -0.50937190859E+03  0.50937190859E+03  0.00000000000E+00 0.  1.
         -6    2    1    2    0  503  0.11990269160E+03  0.44972319505E+02  0.64266412651E+02  0.22379203843E+03  0.17191142979E+03 0.  0.
        -24    2    3    3    0    0  0.11370953191E+03  0.88639196063E+02  0.70445684382E+02  0.17901006957E+03  0.79342585249E+02 0.  0.
          6    2    1    2  501    0 -0.11990269160E+03 -0.44972319505E+02 -0.40266992036E+03  0.45654827105E+03  0.17289908633E+03 0.  0.
         24    2    5    5    0    0 -0.11698621784E+03 -0.54267898745E+02 -0.41391471709E+03  0.44094541663E+03  0.80477869178E+02 0.  0.
          5    1    5    5  501    0 -0.29164737614E+01  0.92955792399E+01  0.11244796723E+02  0.15602854417E+02  0.47000000000E+01 0. -1.
        -13    1    6    6    0    0 -0.42184641369E+02 -0.42973436393E+02 -0.28654317321E+03  0.29280240832E+03  0.00000000000E+00 0.  1.
         14    1    6    6    0    0 -0.74801576474E+02 -0.11294462352E+02 -0.12737154388E+03  0.14814300831E+03  0.00000000000E+00 0. -1.
         -5    1    3    3    0  503  0.61931596896E+01 -0.43666876557E+02 -0.61792717309E+01  0.44781968853E+02  0.47000000000E+01 0.  1.
         13    1    4    4    0    0  0.36965308018E+02 -0.76936429429E+00  0.45397102437E+02  0.58548465633E+02  0.00000000000E+00 0. -1.
        -14    1    4    4    0    0  0.76744223897E+02  0.89408560357E+02  0.25048581945E+02  0.12046160394E+03  0.00000000000E+00 0.  1.
</event>
<event>
12    1  0.8407180E-002  0.1756243E+03  0.7818608E-02  0.1172123E+00
         21   -1    0    0  501  502  0.00000000000E+00  0.00000000000E+00  0.17349029172E+03  0.17349029172E+03  0.00000000000E+00 0.  1.
         21   -1    0    0  502  503 -0.00000000000E+00 -0.00000000000E+00 -0.28016080445E+03  0.28016080445E+03  0.00000000000E+00 0.  1.
         -6    2    1    2    0  503  0.53644467297E+01  0.37345820173E+02 -0.19050147340E+03  0.25910365662E+03  0.17152377659E+03 0.  0.
        -24    2    3    3    0    0 -0.55278411648E+02  0.42965145183E+02 -0.76982796447E+02  0.13019394751E+03  0.78245808353E+02 0.  0.
          6    2    1    2  501    0 -0.53644467297E+01 -0.37345820173E+02  0.83830960668E+02  0.19454743954E+03  0.17145725034E+03 0.  0.
         24    2    5    5    0    0 -0.74028917342E+01 -0.77736488602E+02  0.10064100758E+03  0.15049940858E+03  0.80147957622E+02 0.  0.
          5    1    5    5  501    0  0.20384450044E+01  0.40390668429E+02 -0.16810046912E+02  0.44048030959E+02  0.47000000000E+01 0. -1.
        -13    1    6    6    0    0  0.35514750810E+02 -0.35333282650E+02  0.57884663070E+02  0.76553070524E+02  0.00000000000E+00 0.  1.
         14    1    6    6    0    0 -0.42917642544E+02 -0.42403205953E+02  0.42756344509E+02  0.73946338059E+02  0.00000000000E+00 0. -1.
         -5    1    3    3    0  503  0.60642858378E+02 -0.56193250097E+01 -0.11351867696E+03  0.12890970911E+03  0.47000000000E+01 0.  1.
         13    1    4    4    0    0  0.15881227802E+02  0.12844825709E+02  0.94883294519E+00  0.20447572666E+02  0.00000000000E+00 0. -1.
        -14    1    4    4    0    0 -0.71159639450E+02  0.30120319474E+02 -0.77931629393E+02  0.10974637485E+03  0.00000000000E+00 0.  1.
</event>
<event>
12    1  0.8407180E-002  0.1831804E+03  0.7818608E-02  0.1166851E+00
         21   -1    0    0  501  502  0.00000000000E+00  0.00000000000E+00  0.47908770206E+03  0.47908770206E+03  0.00000000000E+00 0. -1.
         21   -1    0    0  502  503 -0.00000000000E+00 -0.00000000000E+00 -0.17663184646E+03  0.17663184646E+03  0.00000000000E+00 0. -1.
         -6    2    1    2    0  503  0.18601142517E+02  0.16082923038E+02 -0.10591949139E+03  0.21159868546E+03  0.18152245622E+03 0.  0.
        -24    2    3    3    0    0 -0.69598865244E+01  0.46158233699E+02 -0.13420080635E+03  0.16281535538E+03  0.79498182143E+02 0.  0.
          6    2    1    2  501    0 -0.18601142517E+02 -0.16082923038E+02  0.40837534699E+03  0.44412086306E+03  0.17282434452E+03 0.  0.
         24    2    5    5    0    0 -0.71882830667E+02 -0.38438807866E+02  0.30101651037E+03  0.32210965997E+03  0.80616439003E+02 0.  0.
          5    1    5    5  501    0  0.53281688150E+02  0.22355884828E+02  0.10735883663E+03  0.12201120309E+03  0.47000000000E+01 0. -1.
        -11    1    6    6    0    0 -0.70209029282E+02  0.43352789177E+00  0.14209350906E+03  0.15849309467E+03  0.00000000000E+00 0.  1.
         12    1    6    6    0    0 -0.16738013856E+01 -0.38872335757E+02  0.15892300130E+03  0.16361656530E+03  0.00000000000E+00 0. -1.
         -5    1    3    3    0  503  0.25561029041E+02 -0.30075310661E+02  0.28281314961E+02  0.48783330072E+02  0.47000000000E+01 0.  1.
         11    1    4    4    0    0  0.28917571264E+02  0.44466690484E+02 -0.10011676505E+03  0.11329995205E+03  0.00000000000E+00 0. -1.
        -12    1    4    4    0    0 -0.35877457788E+02  0.16915432155E+01 -0.34084041304E+02  0.49515403335E+02  0.00000000000E+00 0.  1.
</event>
<event>
12    1  0.8407180E-002  0.2244702E+03  0.7818608E-02  0.1130612E+00
         21   -1    0    0  503  502  0.00000000000E+00  0.00000000000E+00  0.19432907648E+04  0.19432907648E+04  0.00000000000E+00 0. -1.
         21   -1    0    0  501  503 -0.00000000000E+00 -0.00000000000E+00 -0.37856664950E+02  0.37856664950E+02  0.00000000000E+00 0.  1.
          6    2    1    2  501    0 -0.25660663542E+02 -0.14136892630E+03  0.39626175488E+03  0.45537286217E+03  0.17232940040E+03 0.  0.
         24    2    3    3    0    0 -0.47688282531E+02 -0.42755915999E+02  0.10232918367E+03  0.14452211307E+03  0.79455262199E+02 0.  0.
         -6    2    1    2    0  502  0.25660663542E+02  0.14136892630E+03  0.15091723450E+04  0.15257745676E+04  0.17246223148E+03 0.  0.
        -24    2    5    5    0    0 -0.42693276539E+02  0.57138702077E+02  0.96430308224E+03  0.97019235471E+03  0.79405437956E+02 0.  0.
          5    1    3    3  501    0  0.22027618989E+02 -0.98613010297E+02  0.29393257121E+03  0.31085074910E+03  0.47000000000E+01 0. -1.
        -13    1    4    4    0    0 -0.56660611802E+02 -0.59243001709E+02  0.91503029088E+02  0.12285341881E+03  0.00000000000E+00 0.  1.
         14    1    4    4    0    0  0.89723292716E+01  0.16487085710E+02  0.10826154586E+02  0.21668694259E+02  0.00000000000E+00 0. -1.
         -5    1    5    5    0  502  0.68353940081E+02  0.84230224219E+02  0.54486926272E+03  0.55558221286E+03  0.47000000000E+01 0.  1.
         13    1    6    6    0    0 -0.57980076447E+02  0.66953210900E+02  0.80238992241E+03  0.80726328376E+03  0.00000000000E+00 0. -1.
        -14    1    6    6    0    0  0.15286799908E+02 -0.98145088228E+01  0.16191315983E+03  0.16292907095E+03  0.00000000000E+00 0.  1.
</event>
<event>
12    1  0.8407180E-002  0.1840380E+03  0.7818608E-02  0.1163959E+00
         21   -1    0    0  503  502  0.00000000000E+00  0.00000000000E+00  0.77907280953E+03  0.77907280953E+03  0.00000000000E+00 0.  1.
         21   -1    0    0  501  503 -0.00000000000E+00 -0.00000000000E+00 -0.74374274493E+02  0.74374274493E+02  0.00000000000E+00 0.  1.
          6    2    1    2  501    0 -0.34399531385E+02  0.57312406227E+02  0.77248167093E+02  0.19956334899E+03  0.17143573511E+03 0.  0.
         24    2    3    3    0    0  0.18943623298E+02  0.92457472928E+02  0.68276498252E+02  0.13488531016E+03  0.68008245959E+02 0.  0.
         -6    2    1    2    0  502  0.34399531385E+02 -0.57312406227E+02  0.62745036795E+03  0.65388373504E+03  0.17146992461E+03 0.  0.
        -24    2    5    5    0    0  0.86805279064E+02 -0.22471978615E+02  0.38787201815E+03  0.40613367252E+03  0.80372328549E+02 0.  0.
          5    1    3    3  501    0 -0.53343154683E+02 -0.35145066701E+02  0.89716688409E+01  0.64678038829E+02  0.47000000000E+01 0. -1.
        -11    1    4    4    0    0 -0.12375101963E+02 -0.16085841500E+01 -0.29332252361E+01  0.12819301925E+02  0.00000000000E+00 0.  1.
         12    1    4    4    0    0  0.31318725261E+02  0.94066057078E+02  0.71209723488E+02  0.12206600823E+03  0.00000000000E+00 0. -1.
         -5    1    5    5    0  502 -0.52405747679E+02 -0.34840427612E+02  0.23957834980E+03  0.24775006252E+03  0.47000000000E+01 0.  1.
         11    1    6    6    0    0  0.44561432649E+02  0.11781353723E+02  0.71144027929E+02  0.84770244102E+02  0.00000000000E+00 0. -1.
        -12    1    6    6    0    0  0.42243846416E+02 -0.34253332338E+02  0.31672799022E+03  0.32136342842E+03  0.00000000000E+00 0.  1.
</event>
<event>
12    1  0.8407180E-002  0.2242513E+03  0.7818608E-02  0.1131207E+00
         21   -1    0    0  501  502  0.00000000000E+00  0.00000000000E+00  0.44562412261E+03  0.44562412261E+03  0.00000000000E+00 0.  1.
         21   -1    0    0  502  503 -0.00000000000E+00 -0.00000000000E+00 -0.11955170689E+03  0.11955170689E+03  0.00000000000E+00 0. -1.
         -6    2    1    2    0  503  0.43940209710E+02 -0.13680031341E+03  0.89326837857E+02  0.23908214270E+03  0.16892578021E+03 0.  0.
        -24    2    3    3    0    0  0.96960943943E+02 -0.72664893748E+02  0.68167849395E+02  0.15309177634E+03  0.64098555826E+02 0.  0.
          6    2    1    2  501    0 -0.43940209710E+02  0.13680031341E+03  0.23674557786E+03  0.32609368679E+03  0.17217304130E+03 0.  0.
         24    2    5    5    0    0 -0.43480860099E+02  0.16384690247E+03  0.22959323337E+03  0.29772160520E+03  0.84786253316E+02 0.  0.
          5    1    5    5  501    0 -0.45934961102E+00 -0.27046589064E+02  0.71523444914E+01  0.28372081590E+02  0.47000000000E+01 0. -1.
        -13    1    6    6    0    0 -0.67263890697E+02  0.11405202118E+03  0.18052280772E+03  0.22387670409E+03  0.00000000000E+00 0.  1.
         14    1    6    6    0    0  0.23783030598E+02  0.49794881286E+02  0.49070425656E+02  0.73844901116E+02  0.00000000000E+00 0. -1.
         -5    1    3    3    0  503 -0.53020734234E+02 -0.64135419658E+02  0.21158988463E+02  0.85990366357E+02  0.47000000000E+01 0.  1.
         13    1    4    4    0    0  0.22417720511E+02 -0.48803289932E+02  0.78483839085E+01  0.54276260290E+02  0.00000000000E+00 0. -1.
        -14    1    4    4    0    0  0.74543223432E+02 -0.23861603817E+02  0.60319465486E+02  0.98815516053E+02  0.00000000000E+00 0.  1.
</event>
<event>
12    1  0.8407180E-002  0.2397274E+03  0.7818608E-02  0.1120543E+00
         21   -1    0    0  503  502  0.00000000000E+00  0.00000000000E+00  0.16072012038E+03  0.16072012038E+03  0.00000000000E+00 0. -1.
         21   -1    0    0  501  503 -0.00000000000E+00 -0.00000000000E+00 -0.62737895894E+03  0.62737895894E+03  0.00000000000E+00 0.  1.
          6    2    1    2  501    0 -0.32531022585E+01 -0.16617921164E+03 -0.49320116008E+03  0.54690676295E+03  0.16802830118E+03 0.  0.
         24    2    3    3    0    0 -0.32674256993E+02 -0.14056191252E+03 -0.47650794040E+03  0.50421479715E+03  0.79671111968E+02 0.  0.
         -6    2    1    2    0  502  0.32531022585E+01  0.16617921164E+03  0.26542321517E+02  0.24119231637E+03  0.17275162977E+03 0.  0.
        -24    2    5    5    0    0  0.66806923664E+02  0.10056659600E+03  0.37899437541E+02  0.14902302848E+03  0.78706355329E+02 0.  0.
          5    1    3    3  501    0  0.29421154735E+02 -0.25617299124E+02 -0.16693219683E+02  0.42691965798E+02  0.47000000000E+01 0. -1.
        -11    1    4    4    0    0  0.27313676327E+01 -0.39911274212E+02 -0.25761384158E+03  0.26070147976E+03  0.00000000000E+00 0.  1.
         12    1    4    4    0    0 -0.35405624626E+02 -0.10065063831E+03 -0.21889409882E+03  0.24351331739E+03  0.00000000000E+00 0. -1.
         -5    1    5    5    0  502 -0.63553821405E+02  0.65612615639E+02 -0.11357116024E+02  0.92169287892E+02  0.47000000000E+01 0.  1.
         11    1    6    6    0    0  0.14631069368E+02  0.89544179972E+02  0.26012290799E+02  0.94386797966E+02  0.00000000000E+00 0. -1.
        -12    1    6    6    0    0  0.52175854296E+02  0.11022416031E+02  0.11887146743E+02  0.54636230510E+02  0.00000000000E+00 0.  1.
</event>
<event>
12    1  0.8407180E-002  0.2150622E+03  0.7818608E-02  0.1138414E+00
         21   -1    0    0  503  502  0.00000000000E+00  0.00000000000E+00  0.79146716275E+02  0.79146716275E+02  0.00000000000E+00 0.  1.
         21   -1    0    0  501  503 -0.00000000000E+00 -0.00000000000E+00 -0.10399864173E+04  0.10399864173E+04  0.00000000000E+00 0.  1.
          6    2    1    2  501    0  0.33346092661E+02 -0.11588760614E+03 -0.85270836954E+03  0.87841722247E+03  0.17309926081E+03 0.  0.
         24    2    3    3    0    0  0.18089956225E+02 -0.29967970918E+02 -0.67076210105E+03  0.67657206391E+03  0.81256603822E+02 0.  0.
         -6    2    1    2    0  502 -0.33346092661E+02  0.11588760614E+03 -0.10813133147E+03  0.24071591109E+03  0.17807264207E+03 0.  0.
        -24    2    5    5    0    0 -0.18167432994E+02 -0.10923695606E+02 -0.20616104022E+02  0.85820775615E+02  0.80565495312E+02 0.  0.
          5    1    3    3  501    0  0.15256136436E+02 -0.85919635218E+02 -0.18194626850E+03  0.20184515856E+03  0.47000000000E+01 0. -1.
        -11    1    4    4    0    0  0.15970444621E+01 -0.45152710391E+02 -0.61220905019E+03  0.61387396014E+03  0.00000000000E+00 0.  1.
         12    1    4    4    0    0  0.16492911763E+02  0.15184739473E+02 -0.58553050856E+02  0.62698103765E+02  0.00000000000E+00 0. -1.
         -5    1    5    5    0  502 -0.15178659667E+02  0.12681130174E+03 -0.87515227446E+02  0.15489513547E+03  0.47000000000E+01 0.  1.
         11    1    6    6    0    0 -0.12120402931E+02 -0.69992820252E+01 -0.51880893067E+02  0.53735660241E+02  0.00000000000E+00 0. -1.
        -12    1    6    6    0    0 -0.60470300628E+01 -0.39244135812E+01  0.31264789045E+02  0.32085115374E+02  0.00000000000E+00 0.  1.
</event>
<event>
12    1  0.8407180E-002  0.1979439E+03  0.7818608E-02  0.1151953E+00
         21   -1    0    0  503  502  0.00000000000E+00  0.00000000000E+00  0.32063944778E+03  0.32063944778E+03  0.00000000000E+00 0. -1.
         21   -1    0    0  501  503 -0.00000000000E+00 -0.00000000000E+00 -0.15465972468E+03  0.15465972468E+03  0.00000000000E+00 0. -1.
          6    2    1    2  501    0 -0.65901458889E+02  0.72699300545E+02 -0.27748163671E+02  0.19987933106E+03  0.17191159302E+03 0.  0.
         24    2    3    3    0    0 -0.91915852606E+02  0.96387136482E+02 -0.38066004199E+00  0.15505821431E+03  0.79397108784E+02 0.  0.
         -6    2    1    2    0  502  0.65901458889E+02 -0.72699300545E+02  0.19372788677E+03  0.27541984140E+03  0.16940308245E+03 0.  0.
        -24    2    5    5    0    0  0.47771955789E+02 -0.11657551583E+03  0.15213150364E+03  0.21212568496E+03  0.77338872301E+02 0.  0.
          5    1    3    3  501    0  0.26014393716E+02 -0.23687835937E+02 -0.27367503629E+02  0.44821116750E+02  0.47000000000E+01 0. -1.
        -13    1    4    4    0    0  0.21702168636E+01  0.19388382102E+01  0.19986459604E+02  0.20197215213E+02  0.00000000000E+00 0.  1.
         14    1    4    4    0    0 -0.94086069469E+02  0.94448298272E+02 -0.20367119646E+02  0.13486099910E+03  0.00000000000E+00 0. -1.
         -5    1    5    5    0  502  0.18129503100E+02  0.43876215287E+02  0.41596383130E+02  0.63294156445E+02  0.47000000000E+01 0.  1.
         11    1    6    6    0    0  0.25328435821E+02 -0.70131876778E+02  0.14078190896E+03  0.15930962210E+03  0.00000000000E+00 0. -1.
        -12    1    6    6    0    0  0.22443519968E+02 -0.46443639053E+02  0.11349594678E+02  0.52816062864E+02  0.00000000000E+00 0.  1.
</event>
<event>
12    1  0.8407180E-002  0.2648423E+03  0.7818608E-02  0.1104401E+00
         21   -1    0    0  501  502  0.00000000000E+00  0.00000000000E+00  0.78730246910E+03  0.78730246910E+03  0.00000000000E+00 0. -1.
         21   -1    0    0  502  503 -0.00000000000E+00 -0.00000000000E+00 -0.25268851185E+03  0.25268851185E+03  0.00000000000E+00 0.  1.
         -6    2    1    2    0  503 -0.11898469940E+03  0.16113998098E+03 -0.15164554809E+03  0.30440038217E+03  0.17187137124E+03 0.  0.
        -24    2    3    3    0    0 -0.38692547219E+02  0.74329724148E+01 -0.63216019736E+02  0.10968380438E+03  0.80510306809E+02 0.  0.
          6    2    1    2  501    0  0.11898469940E+03 -0.16113998098E+03  0.68625950534E+03  0.73559059878E+03  0.17325694268E+03 0.  0.
         24    2    5    5    0    0  0.69493659433E+02 -0.96693629396E+02  0.60021962131E+03  0.61715223121E+03  0.80213814384E+02 0.  0.
          5    1    5    5  501    0  0.49491039963E+02 -0.64446351582E+02  0.86039884034E+02  0.11843836757E+03  0.47000000000E+01 0. -1.
        -11    1    6    6    0    0  0.35786864540E+02 -0.54318140891E+01  0.78554384752E+02  0.86492749070E+02  0.00000000000E+00 0.  1.
         12    1    6    6    0    0  0.33706794893E+02 -0.91261815306E+02  0.52166523655E+03  0.53065948214E+03  0.00000000000E+00 0. -1.
         -5    1    3    3    0  503 -0.80292152177E+02  0.15370700856E+03 -0.88429528354E+02  0.19471657779E+03  0.47000000000E+01 0.  1.
         13    1    4    4    0    0 -0.50386774226E+02  0.18948851025E+02 -0.72904261040E+02  0.90625146896E+02  0.00000000000E+00 0. -1.
        -14    1    4    4    0    0  0.11694227007E+02 -0.11515878610E+02  0.96882413043E+01  0.19058657482E+02  0.00000000000E+00 0.  1.
</event>
<event>
12    1  0.8407180E-002  0.1887098E+03  0.7818608E-02  0.1159772E+00
         21   -1    0    0  503  502  0.00000000000E+00  0.00000000000E+00  0.17396648585E+03  0.17396648585E+03  0.00000000000E+00 0.  1.
         21   -1    0    0  501  503 -0.00000000000E+00 -0.00000000000E+00 -0.27705511692E+03  0.27705511692E+03  0.00000000000E+00 0.  1.
          6    2    1    2  501    0 -0.32014912543E+02  0.69757828214E+02 -0.16725850786E+03  0.25169981915E+03  0.17171569901E+03 0.  0.
         24    2    3    3    0    0 -0.14796491773E+02  0.11367774153E+03 -0.13155003008E+03  0.19234817061E+03  0.80937279629E+02 0.  0.
         -6    2    1    2    0  502  0.32014912543E+02 -0.69757828214E+02  0.64169876785E+02  0.19932178362E+03  0.17239573984E+03 0.  0.
        -24    2    5    5    0    0  0.72560229122E+02 -0.61559565997E+02  0.10047713351E+01  0.12367090955E+03  0.78986817181E+02 0.  0.
          5    1    3    3  501    0 -0.17218420770E+02 -0.43919913316E+02 -0.35708477773E+02  0.59351648540E+02  0.47000000000E+01 0. -1.
        -11    1    4    4    0    0 -0.25447120005E+01  0.84848596569E+02 -0.36738143071E+02  0.92495681278E+02  0.00000000000E+00 0.  1.
         12    1    4    4    0    0 -0.12251779773E+02  0.28829144961E+02 -0.94811887012E+02  0.99852489330E+02  0.00000000000E+00 0. -1.
         -5    1    5    5    0  502 -0.40545316579E+02 -0.81982622169E+01  0.63165105450E+02  0.75650874062E+02  0.47000000000E+01 0.  1.
         13    1    6    6    0    0  0.74402978400E+02 -0.77538604709E+02 -0.96249184758E+00  0.10746611003E+03  0.00000000000E+00 0. -1.
        -14    1    6    6    0    0 -0.18427492777E+01  0.15979038712E+02  0.19672631827E+01  0.16204799521E+02  0.00000000000E+00 0.  1.
</event>
<event>
12    1  0.8407180E-002  0.1755699E+03  0.7818608E-02  0.1172639E+00
         21   -1    0    0  503  502  0.00000000000E+00  0.00000000000E+00  0.49795920674E+03  0.49795920674E+03  0.00000000000E+00 0. -1.
         21   -1    0    0  501  503 -0.00000000000E+00 -0.00000000000E+00 -0.23808561776E+03  0.23808561776E+03  0.00000000000E+00 0. -1.
          6    2    1    2  501    0  0.15075852517E+02  0.18741195920E+02 -0.18742872199E+03  0.25551995072E+03  0.17199536516E+03 0.  0.
         24    2    3    3    0    0  0.45956538128E+02  0.60762910107E+02 -0.16466850962E+03  0.19842740765E+03  0.80334198241E+02 0.  0.
         -6    2    1    2    0  502 -0.15075852517E+02 -0.18741195920E+02  0.44730231097E+03  0.48052487378E+03  0.17391458584E+03 0.  0.
        -24    2    5    5    0    0  0.39532195664E+02  0.27756475418E+02  0.32826919876E+03  0.34147436436E+03  0.80689889344E+02 0.  0.
          5    1    3    3  501    0 -0.30880685611E+02 -0.42021714186E+02 -0.22760212375E+02  0.57092543071E+02  0.47000000000E+01 0. -1.
        -11    1    4    4    0    0  0.29283364275E+02 -0.15045661176E+02 -0.44092607541E+02  0.55027678338E+02  0.00000000000E+00 0.  1.
         12    1    4    4    0    0  0.16673173853E+02  0.75808571283E+02 -0.12057590208E+03  0.14339972931E+03  0.00000000000E+00 0. -1.
         -5    1    5    5    0  502 -0.54608048181E+02 -0.46497671338E+02  0.11903311221E+03  0.13905050942E+03  0.47000000000E+01 0.  1.
         11    1    6    6    0    0 -0.14118855017E+02  0.61967071234E+01  0.20209660491E+03  0.20268393859E+03  0.00000000000E+00 0. -1.
        -12    1    6    6    0    0  0.53651050681E+02  0.21559768294E+02  0.12617259385E+03  0.13879042578E+03  0.00000000000E+00 0.  1.
</event>
<event>
12    1  0.8407180E-002  0.1801468E+03  0.7818608E-02  0.1168061E+00
         21   -1    0    0  501  502  0.00000000000E+00  0.00000000000E+00  0.97987816122E+02  0.97987816122E+02  0.00000000000E+00 0.  1.
         21   -1    0    0  502  503 -0.00000000000E+00 -0.00000000000E+00 -0.49321491007E+03  0.49321491007E+03  0.00000000000E+00 0.  1.
         -6    2    1    2    0  503  0.10938812388E+02 -0.50678416680E+02 -0.36921324104E+03  0.41081782361E+03  0.17252509180E+03 0.  0.
        -24    2    3    3    0    0  0.22330151063E+02 -0.87829858552E+02 -0.16662052570E+03  0.20447856283E+03  0.76396095264E+02 0.  0.
          6    2    1    2  501    0 -0.10938812388E+02  0.50678416680E+02 -0.26013852907E+02  0.18038490258E+03  0.17080407783E+03 0.  0.
         24    2    5    5    0    0 -0.11010864999E+02 -0.26700033241E+01  0.44997564458E+02  0.91442390225E+02  0.78794427830E+02 0.  0.
          5    1    5    5  501    0  0.72052611618E-01  0.53348420004E+02 -0.71011417365E+02  0.88942512359E+02  0.47000000000E+01 0. -1.
        -13    1    6    6    0    0 -0.42971930044E+02  0.19655534171E+01  0.10689575719E+02  0.44325130580E+02  0.00000000000E+00 0.  1.
         14    1    6    6    0    0  0.31961065044E+02 -0.46355567412E+01  0.34307988739E+02  0.47117259645E+02  0.00000000000E+00 0. -1.
         -5    1    3    3    0  503 -0.11391338675E+02  0.37151441872E+02 -0.20259271534E+03  0.20633926078E+03  0.47000000000E+01 0.  1.
         13    1    4    4    0    0 -0.24516603229E+02 -0.11815548469E+02 -0.56447379351E+02  0.62665601849E+02  0.00000000000E+00 0. -1.
        -14    1    4    4    0    0  0.46846754291E+02 -0.76014310082E+02 -0.11017314635E+03  0.14181296098E+03  0.00000000000E+00 0.  1.
</event>
<event>
12    1  0.8407180E-002  0.2485638E+03  0.7818608E-02  0.1114339E+00
         21   -1    0    0  503  502  0.00000000000E+00  0.00000000000E+00  0.27361131091E+03  0.27361131091E+03  0.00000000000E+00 0.  1.
         21   -1    0    0  501  503 -0.00000000000E+00 -0.00000000000E+00 -0.24982319563E+03  0.24982319563E+03  0.00000000000E+00 0. -1.
          6    2    1    2  501    0  0.88304210456E+02 -0.15527617889E+03 -0.70437573431E+02  0.25761041193E+03  0.17173627243E+03 0.  0.
         24    2    3    3    0    0  0.82913829820E+02 -0.17728683340E+03 -0.33615435926E+02  0.21411920677E+03  0.80073170927E+02 0.  0.
         -6    2    1    2    0  502 -0.88304210456E+02  0.15527617889E+03  0.94225688714E+02  0.26582409461E+03  0.17284572181E+03 0.  0.
        -24    2    5    5    0    0 -0.10137552961E+03  0.17821666184E+03  0.73808238597E+02  0.23211819881E+03  0.79956397939E+02 0.  0.
          5    1    3    3  501    0  0.53903806364E+01  0.22010654511E+02 -0.36822137504E+02  0.43491205155E+02  0.47000000000E+01 0. -1.
        -13    1    4    4    0    0  0.51341014783E+02 -0.10064733424E+03  0.20910727363E+02  0.11490450038E+03  0.00000000000E+00 0.  1.
         14    1    4    4    0    0  0.31572815037E+02 -0.76639499163E+02 -0.54526163290E+02  0.99214706391E+02  0.00000000000E+00 0. -1.
         -5    1    5    5    0  502  0.13071319155E+02 -0.22940482952E+02  0.20417450117E+02  0.33705895802E+02  0.47000000000E+01 0.  1.
         13    1    6    6    0    0  0.59724343229E+01  0.30807630189E+02 -0.77999803401E+01  0.32336044021E+02  0.00000000000E+00 0. -1.
        -14    1    6    6    0    0 -0.10734796393E+03  0.14740903166E+03  0.81608218937E+02  0.19978215479E+03  0.00000000000E+00 0.  1.
</event>
<event>
12    1  0.8407180E-002  0.2257827E+03  0.7818608E-02  0.1129875E+00
         21   -1    0    0  501  502  0.00000000000E+00  0.00000000000E+00  0.19803688651E+03  0.19803688651E+03  0.00000000000E+00 0.  1.
         21   -1    0    0  502  503 -0.00000000000E+00 -0.00000000000E+00 -0.27236326205E+03  0.27236326205E+03  0.00000000000E+00 0. -1.
         -6    2    1    2    0  503  0.37833846628E+02  0.14105822972E+03  0.20652598451E+02  0.22545353453E+03  0.17051082748E+03 0.  0.
        -24    2    3    3    0    0  0.32446248456E+02  0.16372384927E+03  0.45974518336E+02  0.19072535936E+03  0.80026548785E+02 0.  0.
          6    2    1    2  501    0 -0.37833846628E+02 -0.14105822972E+03 -0.94978973987E+02  0.24494661403E+03  0.17218889077E+03 0.  0.
         24    2    5    5    0    0 -0.81099044405E+02 -0.14030826932E+03 -0.88097248121E+02  0.20087975653E+03  0.79549267844E+02 0.  0.
          5    1    5    5  501    0  0.43265197777E+02 -0.74996039760E+00 -0.68817258661E+01  0.44066857503E+02  0.47000000000E+01 0. -1.
        -13    1    6    6    0    0 -0.84819118101E+02 -0.69624496766E+02 -0.52316852347E+02  0.12156852547E+03  0.00000000000E+00 0.  1.
         14    1    6    6    0    0  0.37200736963E+01 -0.70683772552E+02 -0.35780395774E+02  0.79311231060E+02  0.00000000000E+00 0. -1.
         -5    1    3    3    0  503  0.53875981726E+01 -0.22665619553E+02 -0.25321919885E+02  0.34728175167E+02  0.47000000000E+01 0.  1.
         13    1    4    4    0    0  0.23301459582E+02  0.16520792749E+02 -0.13630626842E+02  0.31649464447E+02  0.00000000000E+00 0. -1.
        -14    1    4    4    0    0  0.91447888739E+01  0.14720305652E+03  0.59605145178E+02  0.15907589492E+03  0.00000000000E+00 0.  1.
</event>
<event>
12    1  0.8407180E-002  0.1878628E+03  0.7818608E-02  0.1161263E+00
         21   -1    0    0  501  502  0.00000000000E+00  0.00000000000E+00  0.88502495938E+03  0.88502495938E+03  0.00000000000E+00 0. -1.
         21   -1    0    0  502  503 -0.00000000000E+00 -0.00000000000E+00 -0.48530567315E+02  0.48530567315E+02  0.00000000000E+00 0.  1.
         -6    2    1    2    0  503  0.70861960918E+02  0.13508970395E+02  0.62072027965E+03  0.64745959404E+03  0.16942948551E+03 0.  0.
        -24    2    3    3    0    0  0.51153927004E+02  0.74794416347E+02  0.37905950308E+03  0.39732696239E+03  0.77276640706E+02 0.  0.
          6    2    1    2  501    0 -0.70861960918E+02 -0.13508970395E+02  0.21577411241E+03  0.28609593265E+03  0.17346038541E+03 0.  0.
         24    2    5    5    0    0 -0.10986179851E+03 -0.34599758996E+02  0.18398076999E+03  0.23133540564E+03  0.80002425483E+02 0.  0.
          5    1    5    5  501    0  0.38999837592E+02  0.21090788601E+02  0.31793342424E+02  0.54760527011E+02  0.47000000000E+01 0. -1.
        -11    1    6    6    0    0 -0.11211564618E+02  0.14716533285E+02  0.20889858953E+01  0.18618254354E+02  0.00000000000E+00 0.  1.
         12    1    6    6    0    0 -0.98650233891E+02 -0.49316292281E+02  0.18189178409E+03  0.21271715129E+03  0.00000000000E+00 0. -1.
         -5    1    3    3    0  503  0.19708033913E+02 -0.61285445952E+02  0.24166077657E+03  0.25013263166E+03  0.47000000000E+01 0.  1.
         13    1    4    4    0    0  0.38545734412E+02  0.15530726071E+02  0.26437101046E+03  0.26761727946E+03  0.00000000000E+00 0. -1.
        -14    1    4    4    0    0  0.12608192592E+02  0.59263690276E+02  0.11468849263E+03  0.12970968293E+03  0.00000000000E+00 0.  1.
</event>
<event>
12    1  0.8407180E-002  0.1781434E+03  0.7818608E-02  0.1172030E+00
         21   -1    0    0  503  502  0.00000000000E+00  0.00000000000E+00  0.14428742313E+04  0.14428742313E+04  0.00000000000E+00 0.  1.
         21   -1    0    0  501  503 -0.00000000000E+00 -0.00000000000E+00 -0.22609269327E+02  0.22609269327E+02  0.00000000000E+00 0.  1.
          6    2    1    2  501    0  0.32958783977E+02 -0.18829568365E+02  0.89765077573E+03  0.91334162201E+03  0.16424119229E+03 0.  0.
         24    2    3    3    0    0  0.70456893743E+02 -0.90648986314E+01  0.40205799295E+03  0.41621411990E+03  0.80853062080E+02 0.  0.
         -6    2    1    2    0  502 -0.32958783977E+02  0.18829568365E+02  0.52261418626E+03  0.55214187863E+03  0.17405238399E+03 0.  0.
        -24    2    5    5    0    0 -0.89163376325E+01 -0.54745637023E+02  0.34069286423E+03  0.35438240987E+03  0.80241378609E+02 0.  0.
          5    1    3    3  501    0 -0.37498109766E+02 -0.97646697339E+01  0.49559278278E+03  0.49712750211E+03  0.47000000000E+01 0. -1.
        -11    1    4    4    0    0  0.53556905654E+02  0.18050529328E+02  0.35413621101E+03  0.35861765113E+03  0.00000000000E+00 0.  1.
         12    1    4    4    0    0  0.16899988089E+02 -0.27115427960E+02  0.47921781937E+02  0.57596468771E+02  0.00000000000E+00 0. -1.
         -5    1    5    5    0  502 -0.24042446345E+02  0.73575205388E+02  0.18192132203E+03  0.19775946876E+03  0.47000000000E+01 0.  1.
         11    1    6    6    0    0 -0.31123979444E+02 -0.33214866927E+01  0.20813524716E+03  0.21047568858E+03  0.00000000000E+00 0. -1.
        -12    1    6    6    0    0  0.22207641811E+02 -0.51424150330E+02  0.13255761706E+03  0.14390672129E+03  0.00000000000E+00 0.  1.
</event>
<event>
12    1  0.8407180E-002  0.1938295E+03  0.7818608E-02  0.1159033E+00
         21   -1    0    0  503  502  0.00000000000E+00  0.00000000000E+00  0.98657145050E+03  0.98657145050E+03  0.00000000000E+00 0. -1.
         21   -1    0    0  501  503 -0.00000000000E+00 -0.00000000000E+00 -0.52121199089E+02  0.52121199089E+02  0.00000000000E+00 0. -1.
          6    2    1    2  501    0  0.54050249242E+02  0.52828710936E+02  0.18229367981E+03  0.26608430464E+03  0.17848688841E+03 0.  0.
         24    2    3    3    0    0 -0.20646998643E+02  0.53834207461E+02  0.16051992606E+03  0.18812998329E+03  0.79384025510E+02 0.  0.
         -6    2    1    2    0  502 -0.54050249242E+02 -0.52828710936E+02  0.75215657160E+03  0.77260834495E+03  0.15959901108E+03 0.  0.
        -24    2    5    5    0    0  0.13310964571E+02  0.55424422010E+01  0.45406777105E+03  0.46144319963E+03  0.80897375347E+02 0.  0.
          5    1    3    3  501    0  0.74697247885E+02 -0.10054965245E+01  0.21773753755E+02  0.77954321352E+02  0.47000000000E+01 0. -1.
        -11    1    4    4    0    0  0.62950147792E+01 -0.28025106678E+01  0.10237169771E+03  0.10260334190E+03  0.00000000000E+00 0.  1.
         12    1    4    4    0    0 -0.26942013422E+02  0.56636718128E+02  0.58148228343E+02  0.85526641387E+02  0.00000000000E+00 0. -1.
         -5    1    5    5    0  502 -0.67361213813E+02 -0.58371153137E+02  0.29808880056E+03  0.31116514532E+03  0.47000000000E+01 0.  1.
         11    1    6    6    0    0  0.29235508441E+02 -0.29780774711E+02  0.18855344707E+03  0.19311657593E+03  0.00000000000E+00 0. -1.
        -12    1    6    6    0    0 -0.15924543870E+02  0.35323216912E+02  0.26551432398E+03  0.26832662370E+03  0.00000000000E+00 0.  1.
</event>
<event>
12    1  0.8407180E-002  0.1912830E+03  0.7818608E-02  0.1157476E+00
         21   -1    0    0  503  502  0.00000000000E+00  0.00000000000E+00  0.13300411093E+04  0.13300411093E+04  0.00000000000E+00 0.  1.
         21   -1    0    0  501  503 -0.00000000000E+00 -0.00000000000E+00 -0.28612565871E+02  0.28612565871E+02  0.00000000000E+00 0.  1.
          6    2    1    2  501    0 -0.26644070316E+02 -0.79334781838E+02  0.51225810445E+03  0.54680670313E+03  0.17200375264E+03 0.  0.
         24    2    3    3    0    0 -0.71656691389E+02 -0.46173326305E+02  0.44218739853E+03  0.45704138680E+03  0.78041503964E+02 0.  0.
         -6    2    1    2    0  502  0.26644070316E+02  0.79334781838E+02  0.78917043895E+03  0.81184697201E+03  0.17117713094E+03 0.  0.
        -24    2    5    5    0    0  0.19841404304E+00  0.12246434309E+03  0.55813685758E+03  0.57529224788E+03  0.66684810700E+02 0.  0.
          5    1    3    3  501    0  0.45012621073E+02 -0.33161455534E+02  0.70070705915E+02  0.89765316334E+02  0.47000000000E+01 0. -1.
        -11    1    4    4    0    0 -0.17293139406E+02 -0.93184858155E+01  0.14692766024E+02  0.24530883022E+02  0.00000000000E+00 0.  1.
         12    1    4    4    0    0 -0.54363551983E+02 -0.36854840489E+02  0.42749463251E+03  0.43251050378E+03  0.00000000000E+00 0. -1.
         -5    1    5    5    0  502  0.26445656273E+02 -0.43129561257E+02  0.23103358137E+03  0.23655472413E+03  0.47000000000E+01 0.  1.
         11    1    6    6    0    0 -0.32016820953E+01 -0.31191990720E+01  0.15930358145E+01  0.47453065439E+01  0.00000000000E+00 0. -1.
        -12    1    6    6    0    0  0.34000961383E+01  0.12558354217E+03  0.55654382177E+03  0.57054694133E+03  0.00000000000E+00 0.  1.
</event>
<event>
12    1  0.8407180E-002  0.2089756E+03  0.7818608E-02  0.1142562E+00
         21   -1    0    0  503  502  0.00000000000E+00  0.00000000000E+00  0.11616818743E+04  0.11616818743E+04  0.00000000000E+00 0.  1.
         21   -1    0    0  501  503 -0.00000000000E+00 -0.00000000000E+00 -0.10126523783E+03  0.10126523783E+03  0.00000000000E+00 0.  1.
          6    2    1    2  501    0 -0.85130384150E+02  0.81397949720E+02  0.28407617967E+02  0.20999250859E+03  0.17151400053E+03 0.  0.
         24    2    3    3    0    0 -0.33580979522E+01 -0.63207571195E+01 -0.17399307102E+02  0.81533788742E+02  0.79333435742E+02 0.  0.
         -6    2    1    2    0  502  0.85130384150E+02 -0.81397949720E+02  0.10320090185E+04  0.10529546036E+04  0.17262089777E+03 0.  0.
        -24    2    5    5    0    0  0.37733137807E+02 -0.10889836741E+03  0.88563512210E+03  0.89658907193E+03  0.78992090005E+02 0.  0.
          5    1    3    3  501    0 -0.81772286198E+02  0.87718706839E+02  0.45806925069E+02  0.12845871984E+03  0.47000000000E+01 0. -1.
        -11    1    4    4    0    0 -0.19573390233E+02 -0.26401134026E+02  0.18195570078E+02  0.37566158355E+02  0.00000000000E+00 0.  1.
         12    1    4    4    0    0  0.16215292281E+02  0.20080376907E+02 -0.35594877180E+02  0.43967630388E+02  0.00000000000E+00 0. -1.
         -5    1    5    5    0  502  0.47397246343E+02  0.27500417686E+02  0.14637389644E+03  0.15636553167E+03  0.47000000000E+01 0.  1.
         11    1    6    6    0    0  0.28655877642E+02 -0.39427891008E+02  0.15217348367E+03  0.15978888273E+03  0.00000000000E+00 0. -1.
        -12    1    6    6    0    0  0.90772601654E+01 -0.69470476398E+02  0.73346163844E+03  0.73680018920E+03  0.00000000000E+00 0.  1.
</event>
<event>
12    1  0.8407180E-002  0.2082899E+03  0.7818608E-02  0.1143013E+00
         21   -1    0    0  501  502  0.00000000000E+00  0.00000000000E+00  0.19054478142E+04  0.19054478142E+04  0.00000000000E+00 0.  1.
         21   -1    0    0  502  503 -0.00000000000E+00 -0.00000000000E+00 -0.35512449552E+02  0.35512449552E+02  0.00000000000E+00 0.  1.
         -6    2    1    2    0  503 -0.25262853282E+02 -0.11376355944E+03  0.35315775163E+03  0.41000617262E+03  0.17263923320E+03 0.  0.
        -24    2    3    3    0    0 -0.39156633897E+02 -0.43513477052E+02  0.79375177220E+02  0.12697419693E+03  0.79971015149E+02 0.  0.
          6    2    1    2  501    0  0.25262853282E+02  0.11376355944E+03  0.15167776130E+04  0.15309540911E+04  0.17212130190E+03 0.  0.
         24    2    5    5    0    0 -0.10017764605E+02  0.25596573662E+02  0.11111234252E+04  0.11143060989E+04  0.79544174479E+02 0.  0.
          5    1    5    5  501    0  0.35280617888E+02  0.88166985782E+02  0.40565418778E+03  0.41664799224E+03  0.47000000000E+01 0. -1.
        -13    1    6    6    0    0  0.20152181724E+01  0.44616888249E+02  0.34844727237E+03  0.35129792120E+03  0.00000000000E+00 0.  1.
         14    1    6    6    0    0 -0.12032982778E+02 -0.19020314588E+02  0.76267615287E+03  0.76300817768E+03  0.00000000000E+00 0. -1.
         -5    1    3    3    0  503  0.13893780614E+02 -0.70250082392E+02  0.27378257441E+03  0.28303197569E+03  0.47000000000E+01 0.  1.
         13    1    4    4    0    0  0.22518670598E+02 -0.21365204700E+02  0.39599775890E+02  0.50316048611E+02  0.00000000000E+00 0. -1.
        -14    1    4    4    0    0 -0.61675304494E+02 -0.22148272352E+02  0.39775401331E+02  0.76658148319E+02  0.00000000000E+00 0.  1.
</event>
<event>
12    1  0.8407180E-002  0.1844317E+03  0.7818608E-02  0.1163857E+00
         21   -1    0    0  503  502  0.00000000000E+00  0.00000000000E+00  0.14011288741E+03  0.14011288741E+03  0.00000000000E+00 0. -1.
         21   -1    0    0  501  503 -0.00000000000E+00 -0.00000000000E+00 -0.43199268221E+03  0.43199268221E+03  0.00000000000E+00 0. -1.
          6    2    1    2  501    0  0.65143475846E+02  0.19647565743E+01 -0.33628602059E+03  0.38354052347E+03  0.17253264266E+03 0.  0.
         24    2    3    3    0    0 -0.19638087845E+02  0.40058096250E+02 -0.16056628563E+03  0.18469754189E+03  0.79632558217E+02 0.  0.
         -6    2    1    2    0  502 -0.65143475846E+02 -0.19647565743E+01  0.44406225792E+02  0.18856504615E+03  0.17128143807E+03 0.  0.
        -24    2    5    5    0    0 -0.98496366421E+02  0.26117698416E+02  0.59868187629E+02  0.14206556388E+03  0.78833724894E+02 0.  0.
          5    1    3    3  501    0  0.84781563691E+02 -0.38093339675E+02 -0.17571973496E+03  0.19884298158E+03  0.47000000000E+01 0. -1.
        -13    1    4    4    0    0 -0.12883468842E+02 -0.23671962648E+02 -0.53820267453E+02  0.60191085500E+02  0.00000000000E+00 0.  1.
         14    1    4    4    0    0 -0.67546190023E+01  0.63730058897E+02 -0.10674601818E+03  0.12450645638E+03  0.00000000000E+00 0. -1.
         -5    1    5    5    0  502  0.33352890574E+02 -0.28082454991E+02 -0.15461961836E+02  0.46499482274E+02  0.47000000000E+01 0.  1.
         11    1    6    6    0    0 -0.65990837988E+02 -0.94860738393E+01  0.19359551403E+01  0.66697257947E+02  0.00000000000E+00 0. -1.
        -12    1    6    6    0    0 -0.32505528432E+02  0.35603772256E+02  0.57932232488E+02  0.75368305929E+02  0.00000000000E+00 0.  1.
</event>
<event>
12    1  0.8407180E-002  0.1781161E+03  0.7818608E-02  0.1173805E+00
         21   -1    0    0  503  502  0.00000000000E+00  0.00000000000E+00  0.20194730859E+02  0.20194730859E+02  0.00000000000E+00 0.  1.
         21   -1    0    0  501  503 -0.00000000000E+00 -0.00000000000E+00 -0.15001850466E+04  0.15001850466E+04  0.00000000000E+00 0.  1.
          6    2    1    2  501    0  0.98684987853E+01  0.25561113459E+02 -0.93562784546E+03  0.95243100348E+03  0.17599600393E+03 0.  0.
         24    2    3    3    0    0 -0.26742739922E+02  0.33282862838E+02 -0.88417509821E+03  0.88863850069E+03  0.78037539079E+02 0.  0.
         -6    2    1    2    0  502 -0.98684987853E+01 -0.25561113459E+02 -0.54436247031E+03  0.56794877400E+03  0.15963882055E+03 0.  0.
        -24    2    5    5    0    0  0.45507538788E+02 -0.42758754501E+02 -0.37232260971E+03  0.38633911560E+03  0.82064239240E+02 0.  0.
          5    1    3    3  501    0  0.36611238707E+02 -0.77217493797E+01 -0.51452747244E+02  0.63792502789E+02  0.47000000000E+01 0. -1.
        -13    1    4    4    0    0 -0.28355725420E+02  0.47188878586E+02 -0.35198735259E+03  0.35626666110E+03  0.00000000000E+00 0.  1.
         14    1    4    4    0    0  0.16129854976E+01 -0.13906015748E+02 -0.53218774563E+03  0.53237183959E+03  0.00000000000E+00 0. -1.
         -5    1    5    5    0  502 -0.55376037573E+02  0.17197641042E+02 -0.17203986059E+03  0.18160965841E+03  0.47000000000E+01 0.  1.
         13    1    6    6    0    0 -0.14441137892E+02 -0.11639363999E+02 -0.20587401586E+03  0.20670784133E+03  0.00000000000E+00 0. -1.
        -14    1    6    6    0    0  0.59948676680E+02 -0.31119390502E+02 -0.16644859385E+03  0.17963127427E+03  0.00000000000E+00 0.  1.
</event>
<event>
12    1  0.8407180E-002  0.3282869E+03  0.7818608E-02  0.1071962E+00
         21   -1    0    0  503  502  0.00000000000E+00  0.00000000000E+00  0.24632032558E+03  0.24632032558E+03  0.00000000000E+00 0. -1.
         21   -1    0    0  501  503 -0.00000000000E+00 -0.00000000000E+00 -0.65623376406E+03  0.65623376406E+03  0.00000000000E+00 0.  1.
          6    2    1    2  501    0  0.24590865820E+03 -0.13098742861E+03 -0.46605955449E+03  0.57007352865E+03  0.17361896529E+03 0.  0.
         24    2    3    3    0    0  0.10391965674E+03 -0.13135119502E+03 -0.25268206787E+03  0.31372795983E+03  0.80774834344E+02 0.  0.
         -6    2    1    2    0  502 -0.24590865820E+03  0.13098742861E+03  0.56146116005E+02  0.33248056099E+03  0.17251713672E+03 0.  0.
        -24    2    5    5    0    0 -0.24146373839E+03  0.83230559985E+02  0.78359643348E+02  0.27941450206E+03  0.81854548951E+02 0.  0.
          5    1    3    3  501    0  0.14198900145E+03  0.36376640826E+00 -0.21337748662E+03  0.25634556882E+03  0.47000000000E+01 0. -1.
        -11    1    4    4    0    0  0.59121418534E+02 -0.31495846306E+02 -0.14720421701E+03  0.16172944064E+03  0.00000000000E+00 0.  1.
         12    1    4    4    0    0  0.44798238211E+02 -0.99855348713E+02 -0.10547785086E+03  0.15199851919E+03  0.00000000000E+00 0. -1.
         -5    1    5    5    0  502 -0.44449198052E+01  0.47756868626E+02 -0.22213527343E+02  0.53066058927E+02  0.47000000000E+01 0.  1.
         11    1    6    6    0    0 -0.16396582704E+03  0.95295328993E+02  0.51562713853E+02  0.19653169114E+03  0.00000000000E+00 0. -1.
        -12    1    6    6    0    0 -0.77497911355E+02 -0.12064769008E+02  0.26796929495E+02  0.82882810919E+02  0.00000000000E+00 0.  1.
</event>
<event>
12    1  0.8407180E-002  0.2039831E+03  0.7818608E-02  0.1146548E+00
         21   -1    0    0  503  502  0.00000000000E+00  0.00000000000E+00  0.99256543406E+03  0.99256543406E+03  0.00000000000E+00 0.  1.
         21   -1    0    0  501  503 -0.00000000000E+00 -0.00000000000E+00 -0.47888958237E+02  0.47888958237E+02  0.00000000000E+00 0.  1.
          6    2    1    2  501    0  0.84832395444E+02  0.67427830965E+02  0.28737731665E+03  0.35241286516E+03  0.17281799011E+03 0.  0.
         24    2    3    3    0    0  0.79970119927E+02  0.95410342290E+02  0.28820109156E+03  0.32361301675E+03  0.78531280024E+02 0.  0.
         -6    2    1    2    0  502 -0.84832395444E+02 -0.67427830965E+02  0.65729915918E+03  0.68804152713E+03  0.17209273866E+03 0.  0.
        -24    2    5    5    0    0 -0.70645484879E+01  0.92498487676E+01  0.43022472585E+03  0.43602527198E+03  0.69923211651E+02 0.  0.
          5    1    3    3  501    0  0.48622755172E+01 -0.27982511325E+02 -0.82377490912E+00  0.28799848408E+02  0.47000000000E+01 0. -1.
        -11    1    4    4    0    0  0.23418682449E+02  0.54292823525E+02  0.57221288837E+02  0.82282569662E+02  0.00000000000E+00 0.  1.
         12    1    4    4    0    0  0.56551437478E+02  0.41117518765E+02  0.23097980272E+03  0.24133044709E+03  0.00000000000E+00 0. -1.
         -5    1    5    5    0  502 -0.77767846956E+02 -0.76677679733E+02  0.22707443333E+03  0.25201625515E+03  0.47000000000E+01 0.  1.
         13    1    6    6    0    0  0.29121793063E+02  0.15272308907E+02  0.16201203656E+03  0.16531552329E+03  0.00000000000E+00 0. -1.
        -14    1    6    6    0    0 -0.36186341551E+02 -0.60224601389E+01  0.26821268929E+03  0.27070974869E+03  0.00000000000E+00 0.  1.
</event>
<event>
12    1  0.8407180E-002  0.1818075E+03  0.7818608E-02  0.1166143E+00
         21   -1    0    0  501  502  0.00000000000E+00  0.00000000000E+00  0.91759665073E+03  0.91759665073E+03  0.00000000000E+00 0.  1.
         21   -1    0    0  502  503 -0.00000000000E+00 -0.00000000000E+00 -0.62329642063E+02  0.62329642063E+02  0.00000000000E+00 0.  1.
         -6    2    1    2    0  503 -0.20133376015E+02 -0.54489019301E+02  0.10915268766E+03  0.21205728508E+03  0.17227761572E+03 0.  0.
        -24    2    3    3    0    0  0.44339725661E+02 -0.12836238076E+01  0.85326239873E+02  0.12500911127E+03  0.79868965985E+02 0.  0.
          6    2    1    2  501    0  0.20133376015E+02  0.54489019301E+02  0.74611432101E+03  0.76786900772E+03  0.17193553136E+03 0.  0.
         24    2    5    5    0    0 -0.33246940956E+02  0.37431149297E+02  0.65427016459E+03  0.66017560849E+03  0.72497832728E+02 0.  0.
          5    1    5    5  501    0  0.53380316972E+02  0.17057870004E+02  0.91844156415E+02  0.10769339923E+03  0.47000000000E+01 0. -1.
        -13    1    6    6    0    0  0.22398716619E+02  0.14222493418E+02  0.15182254060E+03  0.15412354025E+03  0.00000000000E+00 0.  1.
         14    1    6    6    0    0 -0.55645657575E+02  0.23208655879E+02  0.50244762399E+03  0.50605206824E+03  0.00000000000E+00 0. -1.
         -5    1    3    3    0  503 -0.64473101676E+02 -0.53205395494E+02  0.23826447787E+02  0.87048173809E+02  0.47000000000E+01 0.  1.
         11    1    4    4    0    0  0.66602937429E+02 -0.92862533151E+01  0.57439539413E+02  0.88439168148E+02  0.00000000000E+00 0. -1.
        -12    1    4    4    0    0 -0.22263211768E+02  0.80026295076E+01  0.27886700460E+02  0.36569943120E+02  0.00000000000E+00 0.  1.
</event>
<event>
12    1  0.8407180E-002  0.2640361E+03  0.7818608E-02  0.1104798E+00
         21   -1    0    0  501  502  0.00000000000E+00  0.00000000000E+00  0.12487055242E+04  0.12487055242E+04  0.00000000000E+00 0.  1.
         21   -1    0    0  502  503 -0.00000000000E+00 -0.00000000000E+00 -0.92120207713E+02  0.92120207713E+02  0.00000000000E+00 0.  1.
         -6    2    1    2    0  503 -0.16546645154E+03  0.11150309638E+03  0.15729612134E+03  0.30733880445E+03  0.17292479244E+03 0.  0.
        -24    2    3    3    0    0 -0.42638621648E+02  0.10703996522E+03  0.97666968131E+02  0.17064820035E+03  0.79412627510E+02 0.  0.
          6    2    1    2  501    0  0.16546645154E+03 -0.11150309638E+03  0.99928919515E+03  0.10334869275E+04  0.17234919964E+03 0.  0.
         24    2    5    5    0    0  0.41999713263E+02 -0.10621093187E+03  0.47480116340E+03  0.49461604505E+03  0.78512096482E+02 0.  0.
          5    1    5    5  501    0  0.12346673828E+03 -0.52921645121E+01  0.52448803175E+03  0.53887088242E+03  0.47000000000E+01 0. -1.
        -13    1    6    6    0    0  0.21417977515E+02 -0.87095566791E+02  0.44384079434E+03  0.45281234329E+03  0.00000000000E+00 0.  1.
         14    1    6    6    0    0  0.20581735748E+02 -0.19115365082E+02  0.30960369055E+02  0.41803701758E+02  0.00000000000E+00 0. -1.
         -5    1    3    3    0  503 -0.12282782989E+03  0.44631311633E+01  0.59629153210E+02  0.13669060410E+03  0.47000000000E+01 0.  1.
         13    1    4    4    0    0 -0.25515930743E+02 -0.52382511404E+01  0.22793861135E+02  0.34613033704E+02  0.00000000000E+00 0. -1.
        -14    1    4    4    0    0 -0.17122690905E+02  0.11227821636E+03  0.74873106996E+02  0.13603516665E+03  0.00000000000E+00 0.  1.
</event>
<event>
12    1  0.8407180E-002  0.1888260E+03  0.7818608E-02  0.1159713E+00
         21   -1    0    0  503  502  0.00000000000E+00  0.00000000000E+00  0.75928411457E+03  0.75928411457E+03  0.00000000000E+00 0.  1.
         21   -1    0    0  501  503 -0.00000000000E+00 -0.00000000000E+00 -0.47401868883E+02  0.47401868883E+02  0.00000000000E+00 0.  1.
          6    2    1    2  501    0 -0.34927333102E+02  0.69213122903E+02  0.40233309474E+03  0.44408986466E+03  0.17127029453E+03 0.  0.
         24    2    3    3    0    0 -0.94657180349E+01  0.11259212021E+03  0.30355204730E+03  0.33314025185E+03  0.77923017351E+02 0.  0.
         -6    2    1    2    0  502  0.34927333102E+02 -0.69213122903E+02  0.30954915095E+03  0.36259611880E+03  0.17217692509E+03 0.  0.
        -24    2    5    5    0    0  0.62328131571E+02 -0.37895239571E+02  0.94075896187E+02  0.14309115965E+03  0.79397484585E+02 0.  0.
          5    1    3    3  501    0 -0.25461615068E+02 -0.43378997303E+02  0.98781047441E+02  0.11094961281E+03  0.47000000000E+01 0. -1.
        -13    1    4    4    0    0  0.32385329307E+02  0.28697047613E+02  0.87102643601E+02  0.97258421838E+02  0.00000000000E+00 0.  1.
         14    1    4    4    0    0 -0.41851047342E+02  0.83895072592E+02  0.21644940369E+03  0.23588183001E+03  0.00000000000E+00 0. -1.
         -5    1    5    5    0  502 -0.27400798469E+02 -0.31317883332E+02  0.21547325477E+03  0.21950495915E+03  0.47000000000E+01 0.  1.
         13    1    6    6    0    0  0.43504280106E+02  0.16691190716E+02  0.60269647957E+02  0.76181682181E+02  0.00000000000E+00 0. -1.
        -14    1    6    6    0    0  0.18823851465E+02 -0.54586430287E+02  0.33806248231E+02  0.66909477467E+02  0.00000000000E+00 0.  1.
</event>
<event>
12    1  0.8407180E-002  0.2061730E+03  0.7818608E-02  0.1144737E+00
         21   -1    0    0  501  502  0.00000000000E+00  0.00000000000E+00  0.16055835276E+03  0.16055835276E+03  0.00000000000E+00 0.  1.
         21   -1    0    0  502  503 -0.00000000000E+00 -0.00000000000E+00 -0.36172860201E+03  0.36172860201E+03  0.00000000000E+00 0.  1.
         -6    2    1    2    0  503  0.10342490124E+02 -0.11370841083E+03 -0.23635171437E+03  0.31363899820E+03  0.17167037751E+03 0.  0.
        -24    2    3    3    0    0  0.61915436654E+02 -0.50985469848E+02 -0.18720315586E+03  0.21860423118E+03  0.79433927860E+02 0.  0.
          6    2    1    2  501    0 -0.10342490124E+02  0.11370841083E+03  0.35181465118E+02  0.20864795657E+03  0.17105456585E+03 0.  0.
         24    2    5    5    0    0 -0.17084727465E+02  0.83636690121E+01  0.54873615414E+02  0.10116380343E+03  0.82832134970E+02 0.  0.
          5    1    5    5  501    0  0.67422373411E+01  0.10534474182E+03 -0.19692150296E+02  0.10748415314E+03  0.47000000000E+01 0. -1.
        -13    1    6    6    0    0  0.23472253880E+02  0.27781100756E+02  0.39376410392E+02  0.53602592818E+02  0.00000000000E+00 0.  1.
         14    1    6    6    0    0 -0.40556981345E+02 -0.19417431744E+02  0.15497205022E+02  0.47561210611E+02  0.00000000000E+00 0. -1.
         -5    1    3    3    0  503 -0.51572946530E+02 -0.62722940982E+02 -0.49148558506E+02  0.95034767019E+02  0.47000000000E+01 0.  1.
         13    1    4    4    0    0 -0.14784606232E+02  0.31992549836E+01 -0.10238212992E+02  0.18265837488E+02  0.00000000000E+00 0. -1.
        -14    1    4    4    0    0  0.76700042886E+02 -0.54184724832E+02 -0.17696494287E+03  0.20033839370E+03  0.00000000000E+00 0.  1.
</event>
<event>
12    1  0.8407180E-002  0.2584416E+03  0.7818608E-02  0.1108444E+00
         21   -1    0    0  501  502  0.00000000000E+00  0.00000000000E+00  0.35722905202E+03  0.35722905202E+03  0.00000000000E+00 0. -1.
         21   -1    0    0  502  503 -0.00000000000E+00 -0.00000000000E+00 -0.29097151306E+03  0.29097151306E+03  0.00000000000E+00 0.  1.
         -6    2    1    2    0  503  0.39643925713E+02  0.18851487781E+03 -0.16231874232E+03  0.30318000469E+03  0.16870459725E+03 0.  0.
        -24    2    3    3    0    0  0.77104919515E+02  0.70052364878E+02 -0.67023003348E+02  0.14652732871E+03  0.78266676443E+02 0.  0.
          6    2    1    2  501    0 -0.39643925713E+02 -0.18851487781E+03  0.22857628128E+03  0.34502056039E+03  0.17228630452E+03 0.  0.
         24    2    5    5    0    0 -0.91248095784E+02 -0.14553141913E+03  0.15573396410E+03  0.24583053437E+03  0.81694400776E+02 0.  0.
          5    1    5    5  501    0  0.51604170071E+02 -0.42983458681E+02  0.72842317180E+02  0.99190026016E+02  0.47000000000E+01 0. -1.
        -11    1    6    6    0    0 -0.75523541269E+02 -0.10894379408E+03  0.66916444125E+02  0.14849365659E+03  0.00000000000E+00 0.  1.
         12    1    6    6    0    0 -0.15724554515E+02 -0.36587625052E+02  0.88817519977E+02  0.97336877783E+02  0.00000000000E+00 0. -1.
         -5    1    3    3    0  503 -0.37460993802E+02  0.11846251293E+03 -0.95295738971E+02  0.15665267598E+03  0.47000000000E+01 0.  1.
         11    1    4    4    0    0  0.40372330961E+02 -0.97142815046E+01 -0.13404923962E+02  0.43634669230E+02  0.00000000000E+00 0. -1.
        -12    1    4    4    0    0  0.36732588554E+02  0.79766646382E+02 -0.53618079387E+02  0.10289265948E+03  0.00000000000E+00 0.  1.
</event>
<event>
12    1  0.8407180E-002  0.2103254E+03  0.7818608E-02  0.1141326E+00
         21   -1    0    0  501  502  0.00000000000E+00  0.00000000000E+00  0.87177957547E+03  0.87177957547E+03  0.00000000000E+00 0. -1.
         21   -1    0    0  502  503 -0.00000000000E+00 -0.00000000000E+00 -0.65355661288E+02  0.65355661288E+02  0.00000000000E+00 0. -1.
         -6    2    1    2    0  503 -0.10136110019E+03  0.67186888628E+02  0.18155554757E+03  0.27784745064E+03  0.17160605566E+03 0.  0.
        -24    2    3    3    0    0  0.68755525772E+01  0.57623341494E+02  0.10863231363E+03  0.14690271999E+03  0.80073134493E+02 0.  0.
          6    2    1    2  501    0  0.10136110019E+03 -0.67186888628E+02  0.62486836661E+03  0.65928778612E+03  0.17149856762E+03 0.  0.
         24    2    5    5    0    0  0.39866376083E+02 -0.89978590026E+02  0.39984129269E+03  0.42485157572E+03  0.10459602024E+03 0.  0.
          5    1    5    5  501    0  0.61494724111E+02  0.22791701398E+02  0.22502707392E+03  0.23443621040E+03  0.47000000000E+01 0. -1.
        -13    1    6    6    0    0  0.70256783539E+02 -0.30448442070E+02  0.20207127370E+03  0.21609239439E+03  0.00000000000E+00 0.  1.
         14    1    6    6    0    0 -0.30390407456E+02 -0.59530147956E+02  0.19777001898E+03  0.20875918133E+03  0.00000000000E+00 0. -1.
         -5    1    3    3    0  503 -0.10823665277E+03  0.95635471337E+01  0.72923233942E+02  0.13094473065E+03  0.47000000000E+01 0.  1.
         11    1    4    4    0    0 -0.16230406892E+01 -0.14255128695E+02 -0.22152198842E+01  0.14517236456E+02  0.00000000000E+00 0. -1.
        -12    1    4    4    0    0  0.84985932664E+01  0.71878470189E+02  0.11084753352E+03  0.13238548353E+03  0.00000000000E+00 0.  1.
</event>
<event>
12    1  0.8407180E-002  0.2266491E+03  0.7818608E-02  0.1129638E+00
         21   -1    0    0  503  502  0.00000000000E+00  0.00000000000E+00  0.41813256044E+03  0.41813256044E+03  0.00000000000E+00 0. -1.
         21   -1    0    0  501  503 -0.00000000000E+00 -0.00000000000E+00 -0.12887280399E+03  0.12887280399E+03  0.00000000000E+00 0. -1.
          6    2    1    2  501    0 -0.13736576567E+03  0.28530723242E+02  0.21321197237E+03  0.31117382518E+03  0.17800687786E+03 0.  0.
         24    2    3    3    0    0 -0.16326997457E+03  0.42838185635E+02  0.20986818271E+03  0.28102415771E+03  0.80235455763E+02 0.  0.
         -6    2    1    2    0  502  0.13736576567E+03 -0.28530723242E+02  0.76047784075E+02  0.23583153925E+03  0.17363724744E+03 0.  0.
        -24    2    5    5    0    0  0.95965328124E+02  0.26890213439E+02 -0.70649431577E+01  0.12759433733E+03  0.79359773920E+02 0.  0.
          5    1    3    3  501    0  0.25904208902E+02 -0.14307462393E+02  0.33437896677E+01  0.30149667466E+02  0.47000000000E+01 0. -1.
        -13    1    4    4    0    0 -0.37774827216E+02  0.46777390065E+02  0.83407668263E+02  0.10281974965E+03  0.00000000000E+00 0.  1.
         14    1    4    4    0    0 -0.12549514735E+03 -0.39392044298E+01  0.12646051444E+03  0.17820440807E+03  0.00000000000E+00 0. -1.
         -5    1    5    5    0  502  0.41400437545E+02 -0.55420936681E+02  0.83112727233E+02  0.10823720192E+03  0.47000000000E+01 0.  1.
         11    1    6    6    0    0  0.44706052489E+02  0.53366719388E+02 -0.62163035252E+01  0.69894780184E+02  0.00000000000E+00 0. -1.
        -12    1    6    6    0    0  0.51259275635E+02 -0.26476505949E+02 -0.84863963242E+00  0.57699557148E+02  0.00000000000E+00 0.  1.
</event>
<event>
12    1  0.8407180E-002  0.2137574E+03  0.7818608E-02  0.1139261E+00
         21   -1    0    0  503  502  0.00000000000E+00  0.00000000000E+00  0.13475079968E+04  0.13475079968E+04  0.00000000000E+00 0.  1.
         21   -1    0    0  501  503 -0.00000000000E+00 -0.00000000000E+00 -0.82225402515E+02  0.82225402515E+02  0.00000000000E+00 0.  1.
          6    2    1    2  501    0 -0.11274568268E+03 -0.41055937282E+02  0.83719813260E+02  0.22956745784E+03  0.17690401809E+03 0.  0.
         24    2    3    3    0    0 -0.13510487765E+03 -0.70568911468E+02  0.49646221429E+02  0.17902985891E+03  0.79709747513E+02 0.  0.
         -6    2    1    2    0  502  0.11274568268E+03  0.41055937282E+02  0.11815627810E+04  0.12001659415E+04  0.17294653114E+03 0.  0.
        -24    2    5    5    0    0  0.12064393473E+03  0.80632875317E+02  0.84516049448E+03  0.86131891877E+03  0.80730408284E+02 0.  0.
          5    1    3    3  501    0  0.22359194971E+02  0.29512974186E+02  0.34073591831E+02  0.50537598927E+02  0.47000000000E+01 0. -1.
        -13    1    4    4    0    0 -0.39254004509E+02  0.31633890338E+01 -0.14714279610E+02  0.42040384449E+02  0.00000000000E+00 0.  1.
         14    1    4    4    0    0 -0.95850873140E+02 -0.73732300502E+02  0.64360501039E+02  0.13698947446E+03  0.00000000000E+00 0. -1.
         -5    1    5    5    0  502 -0.78982520552E+01 -0.39576938036E+02  0.33640228653E+03  0.33884702270E+03  0.47000000000E+01 0.  1.
         13    1    6    6    0    0 -0.22614472193E+00  0.15438591571E+01  0.20737456574E+03  0.20738043581E+03  0.00000000000E+00 0. -1.
        -14    1    6    6    0    0  0.12087007945E+03  0.79089016160E+02  0.63778592874E+03  0.65393848295E+03  0.00000000000E+00 0.  1.
</event>
<event>
12    1  0.8407180E-002  0.1792249E+03  0.7818608E-02  0.1168944E+00
         21   -1    0    0  503  502  0.00000000000E+00  0.00000000000E+00  0.10985592405E+03  0.10985592405E+03  0.00000000000E+00 0. -1.
         21   -1    0    0  501  503 -0.00000000000E+00 -0.00000000000E+00 -0.40223007806E+03  0.40223007806E+03  0.00000000000E+00 0.  1.
          6    2    1    2  501    0 -0.29621067513E+02 -0.37401566436E+02 -0.28201600123E+03  0.33414753198E+03  0.17275781709E+03 0.  0.
         24    2    3    3    0    0 -0.57999522264E+02 -0.56994224953E+02 -0.27619018129E+03  0.29885958589E+03  0.80148297383E+02 0.  0.
         -6    2    1    2    0  502  0.29621067513E+02  0.37401566436E+02 -0.10358152773E+02  0.17793847012E+03  0.17110968122E+03 0.  0.
        -24    2    5    5    0    0  0.56310032320E+02  0.68086319725E+02  0.25490713620E+02  0.12352260710E+03  0.82471154415E+02 0.  0.
          5    1    3    3  501    0  0.28378454751E+02  0.19592658517E+02 -0.58258199431E+01  0.35287946098E+02  0.47000000000E+01 0. -1.
        -11    1    4    4    0    0 -0.26934783356E+02  0.12361769343E+02 -0.13805191818E+03  0.14119712465E+03  0.00000000000E+00 0.  1.
         12    1    4    4    0    0 -0.31064738908E+02 -0.69355994296E+02 -0.13813826311E+03  0.15766246124E+03  0.00000000000E+00 0. -1.
         -5    1    5    5    0  502 -0.26688964806E+02 -0.30684753289E+02 -0.35848866392E+02  0.54415863022E+02  0.47000000000E+01 0.  1.
         11    1    6    6    0    0 -0.12971848247E+02 -0.78595709894E+01 -0.55312099806E+01  0.16144224569E+02  0.00000000000E+00 0. -1.
        -12    1    6    6    0    0  0.69281880567E+02  0.75945890715E+02  0.31021923600E+02  0.10737838253E+03  0.00000000000E+00 0.  1.
</event>
<event>
12    1  0.8407180E-002  0.1998712E+03  0.7818608E-02  0.1149987E+00
         21   -1    0    0  503  502  0.00000000000E+00  0.00000000000E+00  0.88321949131E+02  0.88321949131E+02  0.00000000000E+00 0.  1.
         21   -1    0    0  501  503 -0.00000000000E+00 -0.00000000000E+00 -0.45144091780E+03  0.45144091780E+03  0.00000000000E+00 0.  1.
          6    2    1    2  501    0 -0.99517104267E+02  0.17006248316E+02 -0.19129024962E+03  0.27618442190E+03  0.17173528693E+03 0.  0.
         24    2    3    3    0    0 -0.89899465129E+02  0.20761831100E+02 -0.21657993942E+03  0.24846688603E+03  0.79472988080E+02 0.  0.
         -6    2    1    2    0  502  0.99517104267E+02 -0.17006248316E+02 -0.17182871904E+03  0.26357844502E+03  0.17249817817E+03 0.  0.
        -24    2    5    5    0    0  0.11702937197E+03 -0.49651772547E+02 -0.94820411189E+02  0.17799352082E+03  0.80806006302E+02 0.  0.
          5    1    3    3  501    0 -0.96176391374E+01 -0.37555827844E+01  0.25289689797E+02  0.27717535869E+02  0.47000000000E+01 0. -1.
        -11    1    4    4    0    0 -0.10726484092E+02 -0.19658837745E+02 -0.96493839649E+02  0.99058510249E+02  0.00000000000E+00 0.  1.
         12    1    4    4    0    0 -0.79172981037E+02  0.40420668845E+02 -0.12008609977E+03  0.14940837579E+03  0.00000000000E+00 0. -1.
         -5    1    5    5    0  502 -0.17512267708E+02  0.32645524231E+02 -0.77008307852E+02  0.85584924203E+02  0.47000000000E+01 0.  1.
         11    1    6    6    0    0  0.10931833029E+03 -0.10689759827E+02 -0.78724908253E+02  0.13513837161E+03  0.00000000000E+00 0. -1.
        -12    1    6    6    0    0  0.77110416868E+01 -0.38962012720E+02 -0.16095502936E+02  0.42855149211E+02  0.00000000000E+00 0.  1.
</event>
<event>
12    1  0.8407180E-002  0.1874309E+03  0.7818608E-02  0.1161332E+00
         21   -1    0    0  503  502  0.00000000000E+00  0.00000000000E+00  0.21238710168E+02  0.21238710168E+02  0.00000000000E+00 0.  1.
         21   -1    0    0  501  503 -0.00000000000E+00 -0.00000000000E+00 -0.17781164942E+04  0.17781164942E+04  0.00000000000E+00 0.  1.
          6    2    1    2  501    0 -0.69203323955E+02 -0.65533625704E+01 -0.11397681287E+04  0.11550764997E+04  0.17406402957E+03 0.  0.
         24    2    3    3    0    0 -0.42125782050E+02 -0.67109753907E+02 -0.52226060012E+03  0.53399847913E+03  0.78230049778E+02 0.  0.
         -6    2    1    2    0  502  0.69203323955E+02  0.65533625704E+01 -0.61710965532E+03  0.64427870464E+03  0.17157702631E+03 0.  0.
        -24    2    5    5    0    0  0.93306046341E+02  0.23864607755E+02 -0.29096793319E+03  0.31675598276E+03  0.79977976220E+02 0.  0.
          5    1    3    3  501    0 -0.27077541905E+02  0.60556391337E+02 -0.61750752856E+03  0.62107802057E+03  0.47000000000E+01 0. -1.
        -11    1    4    4    0    0 -0.43370585679E+02 -0.13195071894E+02 -0.12254693776E+03  0.13066319137E+03  0.00000000000E+00 0.  1.
         12    1    4    4    0    0  0.12448036291E+01 -0.53914682013E+02 -0.39971366236E+03  0.40333528776E+03  0.00000000000E+00 0. -1.
         -5    1    5    5    0  502 -0.24102722386E+02 -0.17311245185E+02 -0.32614172213E+03  0.32752272188E+03  0.47000000000E+01 0.  1.
         13    1    6    6    0    0  0.33619946813E+02  0.14519526460E+02 -0.25809317174E+02  0.44802213398E+02  0.00000000000E+00 0. -1.
        -14    1    6    6    0    0  0.59686099528E+02  0.93450812952E+01 -0.26515861601E+03  0.27195376936E+03  0.00000000000E+00 0.  1.
</event>
<event>
12    1  0.8407180E-002  0.1941808E+03  0.7818608E-02  0.1154889E+00
         21   -1    0    0  501  502  0.00000000000E+00  0.00000000000E+00  0.30776451211E+03  0.30776451211E+03  0.00000000000E+00 0.  1.
         21   -1    0    0  502  503 -0.00000000000E+00 -0.00000000000E+00 -0.16873057496E+03  0.16873057496E+03  0.00000000000E+00 0.  1.
         -6    2    1    2    0  503 -0.88890847976E+02  0.38182629955E+00  0.19485055771E+03  0.27508710198E+03  0.17263963969E+03 0.  0.
        -24    2    3    3    0    0 -0.48655267751E+02 -0.92530132089E+01  0.20460740705E+02  0.95795076717E+02  0.79404669130E+02 0.  0.
          6    2    1    2  501    0  0.88890847976E+02 -0.38182629955E+00 -0.55816620557E+02  0.20140798509E+03  0.17189517934E+03 0.  0.
         24    2    5    5    0    0  0.87473605367E+02  0.24186457777E+02  0.18057939688E+02  0.12340061486E+03  0.81639489130E+02 0.  0.
          5    1    5    5  501    0  0.14172426095E+01 -0.24568284076E+02 -0.73874560245E+02  0.78007370232E+02  0.47000000000E+01 0. -1.
        -11    1    6    6    0    0  0.36952723756E+02  0.21830024012E+02 -0.30997556741E+02  0.52942442947E+02  0.00000000000E+00 0.  1.
         12    1    6    6    0    0  0.50520881611E+02  0.23564337653E+01  0.49055496429E+02  0.70458171909E+02  0.00000000000E+00 0. -1.
         -5    1    3    3    0  503 -0.40235580226E+02  0.96348395084E+01  0.17438981700E+03  0.17929202526E+03  0.47000000000E+01 0.  1.
         13    1    4    4    0    0  0.31907286688E+01  0.25372247859E+02 -0.86405911124E+01  0.26992434600E+02  0.00000000000E+00 0. -1.
        -14    1    4    4    0    0 -0.51845996419E+02 -0.34625261068E+02  0.29101331818E+02  0.68802642117E+02  0.00000000000E+00 0.  1.
</event>
<event>
12    1  0.8407180E-002  0.2634102E+03  0.7818608E-02  0.1105123E+00
         21   -1    0    0  503  502  0.00000000000E+00  0.00000000000E+00  0.43620646167E+03  0.43620646167E+03  0.00000000000E+00 0. -1.
         21   -1    0    0  501  503 -0.00000000000E+00 -0.00000000000E+00 -0.16199755827E+03  0.16199755827E+03  0.00000000000E+00 0.  1.
          6    2    1    2  501    0 -0.43043272296E+02  0.19425328117E+03  0.96548264477E+02  0.28054683509E+03  0.17262067886E+03 0.  0.
         24    2    3    3    0    0  0.54798661924E+01  0.19725301405E+03  0.67138463651E+02  0.22353350550E+03  0.80751930584E+02 0.  0.
         -6    2    1    2    0  502  0.43043272296E+02 -0.19425328117E+03  0.17766063892E+03  0.31765718485E+03  0.17249847516E+03 0.  0.
        -24    2    5    5    0    0 -0.20052113581E+02 -0.85367583849E+02  0.14462820772E+03  0.18746365847E+03  0.80843015457E+02 0.  0.
          5    1    3    3  501    0 -0.48523138488E+02 -0.29997328850E+01  0.29409800827E+02  0.57013329589E+02  0.47000000000E+01 0. -1.
        -13    1    4    4    0    0 -0.30566871133E+02  0.15302830283E+03  0.52285796342E+02  0.16457763997E+03  0.00000000000E+00 0.  1.
         14    1    4    4    0    0  0.36046737325E+02  0.44224711224E+02  0.14852667309E+02  0.58955865533E+02  0.00000000000E+00 0. -1.
         -5    1    5    5    0  502  0.63095385877E+02 -0.10888569732E+03  0.33032431196E+02  0.13019352638E+03  0.47000000000E+01 0.  1.
         11    1    6    6    0    0  0.31409886953E+02 -0.31927329536E+02  0.48178983410E+02  0.65781074878E+02  0.00000000000E+00 0. -1.
        -12    1    6    6    0    0 -0.51462000535E+02 -0.53440254313E+02  0.96449224312E+02  0.12168258360E+03  0.00000000000E+00 0.  1.
</event>
<event>
12    1  0.8407180E-002  0.2597338E+03  0.7818608E-02  0.1107562E+00
         21   -1    0    0  501  502  0.00000000000E+00  0.00000000000E+00  0.38147170296E+03  0.38147170296E+03  0.00000000000E+00 0. -1.
         21   -1    0    0  502  503 -0.00000000000E+00 -0.00000000000E+00 -0.18705306372E+03  0.18705306372E+03  0.00000000000E+00 0.  1.
         -6    2    1    2    0  503  0.18305078230E+03  0.61181681278E+02  0.26817558617E+02  0.25941027885E+03  0.17124171309E+03 0.  0.
        -24    2    3    3    0    0  0.12461229835E+03  0.30190778442E+02  0.83202679738E+02  0.17236509318E+03  0.79670141390E+02 0.  0.
          6    2    1    2  501    0 -0.18305078230E+03 -0.61181681278E+02  0.16760108062E+03  0.30911448782E+03  0.17381270761E+03 0.  0.
         24    2    5    5    0    0 -0.21863274923E+02 -0.25557769492E+02  0.22409922038E+02  0.89221245182E+02  0.79542589939E+02 0.  0.
          5    1    5    5  501    0 -0.16118750738E+03 -0.35623911786E+02  0.14519115859E+03  0.21989324264E+03  0.47000000000E+01 0. -1.
        -11    1    6    6    0    0 -0.21415160753E+02  0.16161961535E+02 -0.17054813988E+02  0.31791269099E+02  0.00000000000E+00 0.  1.
         12    1    6    6    0    0 -0.44811416988E+00 -0.41719731027E+02  0.39464736027E+02  0.57429976083E+02  0.00000000000E+00 0. -1.
         -5    1    3    3    0  503  0.58438483950E+02  0.30990902836E+02 -0.56385121121E+02  0.87045185673E+02  0.47000000000E+01 0.  1.
         13    1    4    4    0    0  0.97860160022E+02  0.45112388786E+02  0.31496787460E+02  0.11226658524E+03  0.00000000000E+00 0. -1.
        -14    1    4    4    0    0  0.26752138327E+02 -0.14921610344E+02  0.51705892278E+02  0.60098507940E+02  0.00000000000E+00 0.  1.
</event>
<event>
12    1  0.8407180E-002  0.2200541E+03  0.7818608E-02  0.1134143E+00
         21   -1    0    0  503  502  0.00000000000E+00  0.00000000000E+00  0.97392404142E+03  0.97392404142E+03  0.00000000000E+00 0. -1.
         21   -1    0    0  501  503 -0.00000000000E+00 -0.00000000000E+00 -0.49611111908E+02  0.49611111908E+02  0.00000000000E+00 0. -1.
          6    2    1    2  501    0  0.13156273398E+03 -0.38302786061E+02  0.49703957603E+03  0.54292477503E+03  0.17012676099E+03 0.  0.
         24    2    3    3    0    0  0.11401623547E+03 -0.56948098667E+02  0.23031126224E+03  0.27492923277E+03  0.79372650349E+02 0.  0.
         -6    2    1    2    0  502 -0.13156273398E+03  0.38302786061E+02  0.42727335347E+03  0.48061037829E+03  0.17218583200E+03 0.  0.
        -24    2    5    5    0    0 -0.83670160632E+02  0.90786592317E+02  0.25538414280E+03  0.29455597967E+03  0.79367900572E+02 0.  0.
          5    1    3    3  501    0  0.17546498504E+02  0.18645312605E+02  0.26672831380E+03  0.26799554226E+03  0.47000000000E+01 0. -1.
        -13    1    4    4    0    0 -0.75372515989E+01 -0.18567101210E+02  0.16293065342E+02  0.25826563598E+02  0.00000000000E+00 0.  1.
         14    1    4    4    0    0  0.12155348707E+03 -0.38380997456E+02  0.21401819690E+03  0.24910266917E+03  0.00000000000E+00 0. -1.
         -5    1    5    5    0  502 -0.47892573346E+02 -0.52483806256E+02  0.17188921068E+03  0.18605439863E+03  0.47000000000E+01 0.  1.
         13    1    6    6    0    0 -0.38596514116E+02  0.28370007455E+02  0.18198794146E+03  0.18818650074E+03  0.00000000000E+00 0. -1.
        -14    1    6    6    0    0 -0.45073646516E+02  0.62416584862E+02  0.73396201336E+02  0.10636947892E+03  0.00000000000E+00 0.  1.
</event>
<event>
12    1  0.8407180E-002  0.1871802E+03  0.7818608E-02  0.1161383E+00
         21   -1    0    0  503  502  0.00000000000E+00  0.00000000000E+00  0.30573732885E+02  0.30573732885E+02  0.00000000000E+00 0. -1.
         21   -1    0    0  501  503 -0.00000000000E+00 -0.00000000000E+00 -0.11999893853E+04  0.11999893853E+04  0.00000000000E+00 0. -1.
          6    2    1    2  501    0 -0.66688806612E+02 -0.43918803428E+02 -0.72382491568E+03  0.74725419566E+03  0.16760091330E+03 0.  0.
         24    2    3    3    0    0 -0.27282335384E+02  0.38104384318E+02 -0.30797091166E+03  0.32153443341E+03  0.79636923045E+02 0.  0.
         -6    2    1    2    0  502  0.66688806612E+02  0.43918803428E+02 -0.44559073669E+03  0.48330892249E+03  0.16929309410E+03 0.  0.
        -24    2    5    5    0    0  0.43211396858E+02 -0.25665854848E+01 -0.10245820360E+03  0.13621512333E+03  0.78632462500E+02 0.  0.
          5    1    3    3  501    0 -0.39406471228E+02 -0.82023187745E+02 -0.41585400403E+03  0.42571976225E+03  0.47000000000E+01 0. -1.
        -13    1    4    4    0    0 -0.99611899340E+01  0.18396095108E+02 -0.11437275914E+02  0.23842250322E+02  0.00000000000E+00 0.  1.
         14    1    4    4    0    0 -0.17321145450E+02  0.19708289210E+02 -0.29653363574E+03  0.29769218308E+03  0.00000000000E+00 0. -1.
         -5    1    5    5    0  502  0.23477409754E+02  0.46485388912E+02 -0.34313253309E+03  0.34709379916E+03  0.47000000000E+01 0.  1.
         11    1    6    6    0    0  0.60395541372E+02 -0.98342880977E+01 -0.45428039232E+02  0.76210507074E+02  0.00000000000E+00 0. -1.
        -12    1    6    6    0    0 -0.17184144513E+02  0.72677026129E+01 -0.57030164371E+02  0.60004616256E+02  0.00000000000E+00 0.  1.
</event>
<event>
12    1  0.8407180E-002  0.1770657E+03  0.7818608E-02  0.1171371E+00
         21   -1    0    0  501  502  0.00000000000E+00  0.00000000000E+00  0.13074360206E+03  0.13074360206E+03  0.00000000000E+00 0. -1.
         21   -1    0    0  502  503 -0.00000000000E+00 -0.00000000000E+00 -0.25687516195E+03  0.25687516195E+03  0.00000000000E+00 0. -1.
         -6    2    1    2    0  503 -0.29064569026E+01  0.42264278591E+02 -0.11874038113E+03  0.21319369255E+03  0.17192310984E+03 0.  0.
        -24    2    3    3    0    0 -0.51132841511E+02  0.62265956853E+02 -0.11347645266E+03  0.16050925226E+03  0.79966854947E+02 0.  0.
          6    2    1    2  501    0  0.29064569026E+01 -0.42264278591E+02 -0.73911787540E+01  0.17442507146E+03  0.16904070307E+03 0.  0.
         24    2    5    5    0    0 -0.38864480351E+02 -0.76355547539E+02  0.10241592325E+02  0.11750380624E+03  0.79759869581E+02 0.  0.
          5    1    5    5  501    0  0.41770937254E+02  0.34091268948E+02 -0.17632771079E+02  0.56921265213E+02  0.47000000000E+01 0. -1.
        -13    1    6    6    0    0 -0.27960937345E+02 -0.92299379275E+02  0.18904322659E+01  0.96460163622E+02  0.00000000000E+00 0.  1.
         14    1    6    6    0    0 -0.10903543006E+02  0.15943831735E+02  0.83511600593E+01  0.21043642623E+02  0.00000000000E+00 0. -1.
         -5    1    3    3    0  503  0.48226384609E+02 -0.20001678261E+02 -0.52639284744E+01  0.52684440290E+02  0.47000000000E+01 0.  1.
         13    1    4    4    0    0 -0.55851842603E+02  0.10199374466E+02 -0.81159991354E+02  0.99047462149E+02  0.00000000000E+00 0. -1.
        -14    1    4    4    0    0  0.47190010916E+01  0.52066582387E+02 -0.32316461305E+02  0.61461790114E+02  0.00000000000E+00 0.  1.
</event>
<event>
12    1  0.8407180E-002  0.4221936E+03  0.7818608E-02  0.1036368E+00
         21   -1    0    0  501  502  0.00000000000E+00  0.00000000000E+00  0.30676817316E+03  0.30676817316E+03  0.00000000000E+00 0.  1.
         21   -1    0    0  502  503 -0.00000000000E+00 -0.00000000000E+00 -0.64770504513E+03  0.64770504513E+03  0.00000000000E+00 0. -1.
         -6    2    1    2    0  503  0.36978649077E+03  0.10993193296E+03 -0.32386176070E+03  0.53210326165E+03  0.17152364961E+03 0.  0.
        -24    2    3    3    0    0  0.17365281337E+03  0.11654221490E+03 -0.15345622099E+03  0.27215662636E+03  0.82359152882E+02 0.  0.
          6    2    1    2  501    0 -0.36978649077E+03 -0.10993193296E+03 -0.17075111280E+02  0.42236995664E+03  0.17110739963E+03 0.  0.
         24    2    5    5    0    0 -0.18675812973E+03 -0.11173680129E+03  0.26967664878E+02  0.23404976488E+03  0.81782184541E+02 0.  0.
          5    1    5    5  501    0 -0.18302836103E+03  0.18048683306E+01 -0.44042776157E+02  0.18832019176E+03  0.47000000000E+01 0. -1.
        -11    1    6    6    0    0 -0.16215905446E+03 -0.88450815621E+02 -0.86256845580E+01  0.18491486734E+03  0.00000000000E+00 0.  1.
         12    1    6    6    0    0 -0.24599075273E+02 -0.23285985673E+02  0.35593349436E+02  0.49134897549E+02  0.00000000000E+00 0. -1.
         -5    1    3    3    0  503  0.19613367739E+03 -0.66102819390E+01 -0.17040553971E+03  0.25994663529E+03  0.47000000000E+01 0.  1.
         13    1    4    4    0    0  0.97891126352E+02  0.32185531512E+02 -0.11000958673E+03  0.15073383904E+03  0.00000000000E+00 0. -1.
        -14    1    4    4    0    0  0.75761687022E+02  0.84356683391E+02 -0.43446634254E+02  0.12142278732E+03  0.00000000000E+00 0.  1.
</event>
<event>
12    1  0.8407180E-002  0.2776601E+03  0.7818608E-02  0.1096982E+00
         21   -1    0    0  501  502  0.00000000000E+00  0.00000000000E+00  0.60592386567E+03  0.60592386567E+03  0.00000000000E+00 0.  1.
         21   -1    0    0  502  503 -0.00000000000E+00 -0.00000000000E+00 -0.14116997020E+03  0.14116997020E+03  0.00000000000E+00 0. -1.
         -6    2    1    2    0  503  0.14138608431E+03  0.16619766328E+03  0.11492858511E+03  0.30050574311E+03  0.17170740767E+03 0.  0.
        -24    2    3    3    0    0  0.15966787058E+03  0.13628686048E+03  0.55928510561E+02  0.23171636434E+03  0.80601104064E+02 0.  0.
          6    2    1    2  501    0 -0.14138608431E+03 -0.16619766328E+03  0.34982531036E+03  0.44658809277E+03  0.17161436046E+03 0.  0.
         24    2    5    5    0    0 -0.16720115755E+02 -0.93995775660E+02  0.10278933733E+03  0.16057484436E+03  0.78127233795E+02 0.  0.
          5    1    5    5  501    0 -0.12466596855E+03 -0.72201887623E+02  0.24703597303E+03  0.28601324841E+03  0.47000000000E+01 0. -1.
        -13    1    6    6    0    0 -0.36673254810E+02 -0.52718173178E+02  0.94078545559E+02  0.11390744548E+03  0.00000000000E+00 0.  1.
         14    1    6    6    0    0  0.19953139055E+02 -0.41277602482E+02  0.87107917660E+01  0.46667398878E+02  0.00000000000E+00 0. -1.
         -5    1    3    3    0  503 -0.18281786271E+02  0.29910802799E+02  0.59000074551E+02  0.68789378762E+02  0.47000000000E+01 0.  1.
         11    1    4    4    0    0  0.15612293918E+02  0.44480017727E+02 -0.10733628234E+02  0.48346938615E+02  0.00000000000E+00 0. -1.
        -12    1    4    4    0    0  0.14405557666E+03  0.91806842757E+02  0.66662138795E+02  0.18336942573E+03  0.00000000000E+00 0.  1.
</event>
<event>
12    1  0.8407180E-002  0.1819910E+03  0.7818608E-02  0.1166632E+00
         21   -1    0    0  503  502  0.00000000000E+00  0.00000000000E+00  0.32941784042E+03  0.32941784042E+03  0.00000000000E+00 0.  1.
         21   -1    0    0  501  503 -0.00000000000E+00 -0.00000000000E+00 -0.18265662398E+03  0.18265662398E+03  0.00000000000E+00 0.  1.
          6    2    1    2  501    0  0.51342848189E+02  0.28989721258E+01 -0.99710584725E+02  0.20751604291E+03  0.17457438317E+03 0.  0.
         24    2    3    3    0    0 -0.98706693574E+01 -0.17446942310E+02  0.94674966586E+01  0.80618468388E+02  0.77510502790E+02 0.  0.
         -6    2    1    2    0  502 -0.51342848189E+02 -0.28989721258E+01  0.24647180117E+03  0.30455842149E+03  0.17135632825E+03 0.  0.
        -24    2    5    5    0    0 -0.32487822748E+02  0.18192517188E+02  0.25649246152E+03  0.27417970296E+03  0.89441044199E+02 0.  0.
          5    1    3    3  501    0  0.61213517546E+02  0.20345914436E+02 -0.10917808138E+03  0.12689757452E+03  0.47000000000E+01 0. -1.
        -13    1    4    4    0    0  0.33650166495E+02 -0.19532296448E+01  0.15020461547E+01  0.33740257169E+02  0.00000000000E+00 0.  1.
         14    1    4    4    0    0 -0.43520835852E+02 -0.15493712665E+02  0.79654505039E+01  0.46878211219E+02  0.00000000000E+00 0. -1.
         -5    1    5    5    0  502 -0.18855025441E+02 -0.21091489314E+02 -0.10020660354E+02  0.30378718534E+02  0.47000000000E+01 0.  1.
         11    1    6    6    0    0  0.64914754528E+01 -0.32194923258E+02  0.98324419526E+02  0.10366457356E+03  0.00000000000E+00 0. -1.
        -12    1    6    6    0    0 -0.38979298201E+02  0.50387440446E+02  0.15816804199E+03  0.17051512939E+03  0.00000000000E+00 0.  1.
</event>
<event>
12    1  0.8407180E-002  0.1795506E+03  0.7818608E-02  0.1168394E+00
         21   -1    0    0  503  502  0.00000000000E+00  0.00000000000E+00  0.87514084416E+02  0.87514084416E+02  0.00000000000E+00 0.  1.
         21   -1    0    0  501  503 -0.00000000000E+00 -0.00000000000E+00 -0.53408827446E+03  0.53408827446E+03  0.00000000000E+00 0. -1.
          6    2    1    2  501    0  0.22274478721E+02 -0.53209350394E+02 -0.39681624770E+03  0.43528467957E+03  0.16935829019E+03 0.  0.
         24    2    3    3    0    0  0.50148914363E+02 -0.44608199601E+02 -0.12655526549E+03  0.16341329001E+03  0.78631183660E+02 0.  0.
         -6    2    1    2    0  502 -0.22274478721E+02  0.53209350394E+02 -0.49757942345E+02  0.18631767931E+03  0.17003245992E+03 0.  0.
        -24    2    5    5    0    0 -0.32185779355E+02 -0.11532408931E+02  0.21619369394E+02  0.89330361005E+02  0.79646691179E+02 0.  0.
          5    1    3    3  501    0 -0.27874435642E+02 -0.86011507936E+01 -0.27026098221E+03  0.27187138956E+03  0.47000000000E+01 0. -1.
        -11    1    4    4    0    0  0.40106870585E+02 -0.67323826969E+02 -0.91861764878E+02  0.12074619080E+03  0.00000000000E+00 0.  1.
         12    1    4    4    0    0  0.10042043778E+02  0.22715627369E+02 -0.34693500613E+02  0.42667099207E+02  0.00000000000E+00 0. -1.
         -5    1    5    5    0  502  0.99113006335E+01  0.64741759326E+02 -0.71377311739E+02  0.96987318305E+02  0.47000000000E+01 0.  1.
         13    1    6    6    0    0  0.22427878763E+02  0.11332393436E+02 -0.28031664258E+01  0.25284197215E+02  0.00000000000E+00 0. -1.
        -14    1    6    6    0    0 -0.54613658118E+02 -0.22864802367E+02  0.24422535820E+02  0.64046163790E+02  0.00000000000E+00 0.  1.
</event>
<event>
12    1  0.8407180E-002  0.1888485E+03  0.7818608E-02  0.1159598E+00
         21   -1    0    0  501  502  0.00000000000E+00  0.00000000000E+00  0.60346242254E+03  0.60346242254E+03  0.00000000000E+00 0.  1.
         21   -1    0    0  502  503 -0.00000000000E+00 -0.00000000000E+00 -0.61874066245E+02  0.61874066245E+02  0.00000000000E+00 0.  1.
         -6    2    1    2    0  503  0.72773870492E+02  0.23515858632E+02  0.19899970598E+03  0.27434401620E+03  0.17266940787E+03 0.  0.
        -24    2    3    3    0    0  0.75536394041E+01 -0.28057012656E+02  0.39813914375E+02  0.94689776497E+02  0.80850185948E+02 0.  0.
          6    2    1    2  501    0 -0.72773870492E+02 -0.23515858632E+02  0.34258865031E+03  0.39099247258E+03  0.17221817110E+03 0.  0.
         24    2    5    5    0    0 -0.60533141992E+02 -0.79049931107E+02  0.20078148181E+03  0.23813557323E+03  0.80512079293E+02 0.  0.
          5    1    5    5  501    0 -0.12240728500E+02  0.55534072475E+02  0.14180716850E+03  0.15285689935E+03  0.47000000000E+01 0. -1.
        -11    1    6    6    0    0  0.29126256999E+01  0.10109240545E+02  0.54204970561E+02  0.55216473686E+02  0.00000000000E+00 0.  1.
         12    1    6    6    0    0 -0.63445767692E+02 -0.89159171653E+02  0.14657651125E+03  0.18291909955E+03  0.00000000000E+00 0. -1.
         -5    1    3    3    0  503  0.65220231088E+02  0.51572871288E+02  0.15918579160E+03  0.17965423970E+03  0.47000000000E+01 0.  1.
         11    1    4    4    0    0 -0.11069976963E+02  0.25803116277E+02  0.19515967744E+02  0.34193832726E+02  0.00000000000E+00 0. -1.
        -12    1    4    4    0    0  0.18623616367E+02 -0.53860128933E+02  0.20297946631E+02  0.60495943771E+02  0.00000000000E+00 0.  1.
</event>
<event>
12    1  0.8407180E-002  0.1754851E+03  0.7818608E-02  0.1172515E+00
         21   -1    0    0  501  502  0.00000000000E+00  0.00000000000E+00  0.10965605158E+04  0.10965605158E+04  0.00000000000E+00 0. -1.
         21   -1    0    0  502  503 -0.00000000000E+00 -0.00000000000E+00 -0.51183677299E+02  0.51183677299E+02  0.00000000000E+00 0. -1.
         -6    2    1    2    0  503 -0.30579917217E+02  0.15988195040E+02  0.13660473371E+03  0.22238673892E+03  0.17205886974E+03 0.  0.
        -24    2    3    3    0    0 -0.70123721068E+02  0.47782001766E+02  0.58735570955E+02  0.12932624742E+03  0.77941997840E+02 0.  0.
          6    2    1    2  501    0  0.30579917217E+02 -0.15988195040E+02  0.90877210480E+03  0.92535745419E+03  0.17096469182E+03 0.  0.
         24    2    5    5    0    0  0.82661954464E+02 -0.31138092252E+02  0.65350488692E+03  0.66434883266E+03  0.80549082714E+02 0.  0.
          5    1    5    5  501    0 -0.52082037247E+02  0.15149897213E+02  0.25526721788E+03  0.26100862153E+03  0.47000000000E+01 0. -1.
        -13    1    6    6    0    0  0.49518396262E+02  0.21841874208E+02  0.23152586753E+03  0.23776746282E+03  0.00000000000E+00 0.  1.
         14    1    6    6    0    0  0.33143558201E+02 -0.52979966460E+02  0.42197901938E+03  0.42658136984E+03  0.00000000000E+00 0. -1.
         -5    1    3    3    0  503  0.39543803851E+02 -0.31793806726E+02  0.77869162755E+02  0.93060491495E+02  0.47000000000E+01 0.  1.
         13    1    4    4    0    0  0.16016222820E+02  0.46176697724E+01  0.36078065291E+00  0.16672505218E+02  0.00000000000E+00 0. -1.
        -14    1    4    4    0    0 -0.86139943888E+02  0.43164331993E+02  0.58374790302E+02  0.11265374220E+03  0.00000000000E+00 0.  1.
</event>
<event>
12    1  0.8407180E-002  0.3560047E+03  0.7818608E-02  0.1060380E+00
         21   -1    0    0  501  502  0.00000000000E+00  0.00000000000E+00  0.42137645728E+03  0.42137645728E+03  0.00000000000E+00 0. -1.
         21   -1    0    0  502  503 -0.00000000000E+00 -0.00000000000E+00 -0.81382095170E+03  0.81382095170E+03  0.00000000000E+00 0. -1.
         -6    2    1    2    0  503  0.25980959059E+03  0.16939757907E+03 -0.68760228934E+03  0.77429725528E+03  0.17476489369E+03 0.  0.
        -24    2    3    3    0    0  0.18113647815E+03  0.19005689842E+03 -0.53592502144E+03  0.60212190949E+03  0.80019478480E+02 0.  0.
          6    2    1    2  501    0 -0.25980959059E+03 -0.16939757907E+03  0.29515779491E+03  0.46090015370E+03  0.17062902631E+03 0.  0.
         24    2    5    5    0    0 -0.20017521621E+03 -0.17943313160E+03  0.18684112382E+03  0.33675684071E+03  0.78925270450E+02 0.  0.
          5    1    5    5  501    0 -0.59634374382E+02  0.10035552525E+02  0.10831667109E+03  0.12414331298E+03  0.47000000000E+01 0. -1.
        -13    1    6    6    0    0 -0.44580744804E+02 -0.20287254874E+02  0.47849251778E+01  0.49212915242E+02  0.00000000000E+00 0.  1.
         14    1    6    6    0    0 -0.15559447141E+03 -0.15914587672E+03  0.18205619864E+03  0.28754392547E+03  0.00000000000E+00 0. -1.
         -5    1    3    3    0  503  0.78673112444E+02 -0.20659319350E+02 -0.15167726790E+03  0.17217534578E+03  0.47000000000E+01 0.  1.
         13    1    4    4    0    0  0.17321228648E+03  0.14237798743E+03 -0.46577141544E+03  0.51693036178E+03  0.00000000000E+00 0. -1.
        -14    1    4    4    0    0  0.79241916705E+01  0.47678910992E+02 -0.70153605995E+02  0.85191547710E+02  0.00000000000E+00 0.  1.
</event>
<event>
12    1  0.8407180E-002  0.1939848E+03  0.7818608E-02  0.1155082E+00
         21   -1    0    0  501  502  0.00000000000E+00  0.00000000000E+00  0.58637346311E+02  0.58637346311E+02  0.00000000000E+00 0.  1.
         21   -1    0    0  502  503 -0.00000000000E+00 -0.00000000000E+00 -0.64053293356E+03  0.64053293356E+03  0.00000000000E+00 0.  1.
         -6    2    1    2    0  503  0.87806573265E+02  0.16116230471E+02 -0.30719557375E+03  0.36331697143E+03  0.17222187436E+03 0.  0.
        -24    2    3    3    0    0  0.10749721362E+03  0.37742807378E+02 -0.15503737952E+03  0.20830201662E+03  0.79830887714E+02 0.  0.
          6    2    1    2  501    0 -0.87806573265E+02 -0.16116230471E+02 -0.27470001350E+03  0.33585330843E+03  0.17136983450E+03 0.  0.
         24    2    5    5    0    0 -0.77987953033E+02 -0.50119986866E+02 -0.27469754915E+03  0.30014965654E+03  0.77697740732E+02 0.  0.
          5    1    5    5  501    0 -0.98186202326E+01  0.34003756395E+02 -0.24643541803E-02  0.35703651891E+02  0.47000000000E+01 0. -1.
        -13    1    6    6    0    0  0.82964400283E+01 -0.36765935161E+01 -0.63596873237E+00  0.90968518320E+01  0.00000000000E+00 0.  1.
         14    1    6    6    0    0 -0.86284393061E+02 -0.46443393350E+02 -0.27406158041E+03  0.29105280471E+03  0.00000000000E+00 0. -1.
         -5    1    3    3    0  503 -0.19690640357E+02 -0.21626576907E+02 -0.15215819423E+03  0.15501495482E+03  0.47000000000E+01 0.  1.
         13    1    4    4    0    0  0.50871608033E+02  0.58202982223E+02 -0.10259147609E+03  0.12845434445E+03  0.00000000000E+00 0. -1.
        -14    1    4    4    0    0  0.56625605589E+02 -0.20460174845E+02 -0.52445903435E+02  0.79847672165E+02  0.00000000000E+00 0.  1.
</event>
<event>
12    1  0.8407180E-002  0.2119448E+03  0.7818608E-02  0.1140250E+00
         21   -1    0    0  501  502  0.00000000000E+00  0.00000000000E+00  0.77728593965E+03  0.77728593965E+03  0.00000000000E+00 0. -1.
         21   -1    0    0  502  503 -0.00000000000E+00 -0.00000000000E+00 -0.66242445589E+02  0.66242445589E+02  0.00000000000E+00 0.  1.
         -6    2    1    2    0  503 -0.12224814789E+03  0.19143631955E+02  0.50960279296E+03  0.55191991103E+03  0.17207409247E+03 0.  0.
        -24    2    3    3    0    0 -0.84570082985E+02 -0.54557192910E+02  0.30208402202E+03  0.32845273570E+03  0.80609286032E+02 0.  0.
          6    2    1    2  501    0  0.12224814789E+03 -0.19143631955E+02  0.20144070110E+03  0.29160847420E+03  0.17072216570E+03 0.  0.
         24    2    5    5    0    0  0.81552996321E+02 -0.48186500499E+02  0.53730250989E+02  0.13559549190E+03  0.80785936361E+02 0.  0.
          5    1    5    5  501    0  0.40695151564E+02  0.29042868544E+02  0.14771045011E+03  0.15601298230E+03  0.47000000000E+01 0. -1.
        -11    1    6    6    0    0  0.43759804355E+02  0.18509909489E+02  0.15851697587E+02  0.50088057886E+02  0.00000000000E+00 0.  1.
         12    1    6    6    0    0  0.37793191966E+02 -0.66696409987E+02  0.37878553402E+02  0.85507434016E+02  0.00000000000E+00 0. -1.
         -5    1    3    3    0  503 -0.37678064900E+02  0.73700824865E+02  0.20751877093E+03  0.22346717533E+03  0.47000000000E+01 0.  1.
         13    1    4    4    0    0 -0.15742447833E+02 -0.56029949755E+02  0.16675546128E+03  0.17661982845E+03  0.00000000000E+00 0. -1.
        -14    1    4    4    0    0 -0.68827635152E+02  0.14727568451E+01  0.13532856074E+03  0.15183290726E+03  0.00000000000E+00 0.  1.
</event>
<event>
12    1  0.8407180E-002  0.1820777E+03  0.7818608E-02  0.1166504E+00
         21   -1    0    0  501  502  0.00000000000E+00  0.00000000000E+00  0.52056059191E+03  0.52056059191E+03  0.00000000000E+00 0.  1.
         21   -1    0    0  502  503 -0.00000000000E+00 -0.00000000000E+00 -0.62688500133E+02  0.62688500133E+02  0.00000000000E+00 0.  1.
         -6    2    1    2    0  503  0.33572393394E+02  0.94153561546E+01  0.22677634950E+03  0.29082604199E+03  0.17870791666E+03 0.  0.
        -24    2    3    3    0    0 -0.41640030532E+02 -0.32962618669E+02  0.11658594185E+03  0.15076599272E+03  0.79483811881E+02 0.  0.
          6    2    1    2  501    0 -0.33572393394E+02 -0.94153561546E+01  0.23109574228E+03  0.29242305006E+03  0.17575620494E+03 0.  0.
         24    2    5    5    0    0 -0.67840281997E+02  0.41407707270E+02  0.18039765084E+03  0.21273830597E+03  0.79983575284E+02 0.  0.
          5    1    5    5  501    0  0.34267888602E+02 -0.50823063425E+02  0.50698091440E+02  0.79684744090E+02  0.47000000000E+01 0. -1.
        -13    1    6    6    0    0 -0.12833786250E+02  0.31634246677E+02  0.13452936294E+02  0.36693502521E+02  0.00000000000E+00 0.  1.
         14    1    6    6    0    0 -0.55006495747E+02  0.97734605929E+01  0.16694471454E+03  0.17604480344E+03  0.00000000000E+00 0. -1.
         -5    1    3    3    0  503  0.75212423926E+02  0.42377974824E+02  0.11019040766E+03  0.14006004928E+03  0.47000000000E+01 0.  1.
         13    1    4    4    0    0 -0.17795778937E+01 -0.13799772701E+02 -0.96986377680E+01  0.16960666220E+02  0.00000000000E+00 0. -1.
        -14    1    4    4    0    0 -0.39860452638E+02 -0.19162845968E+02  0.12628457961E+03  0.13380532649E+03  0.00000000000E+00 0.  1.
</event>
<event>
12    1  0.8407180E-002  0.2128442E+03  0.7818608E-02  0.1139676E+00
         21   -1    0    0  503  502  0.00000000000E+00  0.00000000000E+00  0.12198211030E+04  0.12198211030E+04  0.00000000000E+00 0.  1.
         21   -1    0    0  501  503 -0.00000000000E+00 -0.00000000000E+00 -0.68850968731E+02  0.68850968731E+02  0.00000000000E+00 0.  1.
          6    2    1    2  501    0  0.16831401649E+02 -0.12559130543E+03  0.13482536834E+03  0.25047514743E+03  0.16882964032E+03 0.  0.
         24    2    3    3    0    0  0.35330552721E+02 -0.11164859898E+03  0.16177508116E+03  0.21462832504E+03  0.78616050640E+02 0.  0.
         -6    2    1    2    0  502 -0.16831401649E+02  0.12559130543E+03  0.10161447660E+04  0.10381969243E+04  0.17101519295E+03 0.  0.
        -24    2    5    5    0    0 -0.47050212050E+01  0.44712142058E+01  0.57041880711E+03  0.57612458584E+03  0.80621299473E+02 0.  0.
          5    1    3    3  501    0 -0.18499151071E+02 -0.13942706459E+02 -0.26949712822E+02  0.35846822383E+02  0.47000000000E+01 0. -1.
        -13    1    4    4    0    0 -0.20459466891E+02 -0.62397382680E+02  0.88386624030E+02  0.11011002887E+03  0.00000000000E+00 0.  1.
         14    1    4    4    0    0  0.55790019611E+02 -0.49251216295E+02  0.73388457130E+02  0.10451829617E+03  0.00000000000E+00 0. -1.
         -5    1    5    5    0  502 -0.12126380444E+02  0.12112009123E+03  0.44572595886E+03  0.46207233849E+03  0.47000000000E+01 0.  1.
         13    1    6    6    0    0 -0.28140900480E+02 -0.12750530708E+02  0.96733711535E+02  0.10154751233E+03  0.00000000000E+00 0. -1.
        -14    1    6    6    0    0  0.23435879275E+02  0.17221744914E+02  0.47368509557E+03  0.47457707351E+03  0.00000000000E+00 0.  1.
</event>
<event>
12    1  0.8407180E-002  0.1748229E+03  0.7818608E-02  0.1172927E+00
         21   -1    0    0  503  502  0.00000000000E+00  0.00000000000E+00  0.54142625395E+03  0.54142625395E+03  0.00000000000E+00 0.  1.
         21   -1    0    0  501  503 -0.00000000000E+00 -0.00000000000E+00 -0.87493220627E+02  0.87493220627E+02  0.00000000000E+00 0.  1.
          6    2    1    2  501    0  0.10345963921E+02  0.30809268683E+02  0.39614816556E+02  0.17925503555E+03  0.17177538843E+03 0.  0.
         24    2    3    3    0    0 -0.13409113231E+02  0.52935154169E+02 -0.36503935888E+02  0.96369494151E+02  0.70516715770E+02 0.  0.
         -6    2    1    2    0  502 -0.10345963921E+02 -0.30809268683E+02  0.41431821677E+03  0.44966443903E+03  0.17170402726E+03 0.  0.
        -24    2    5    5    0    0 -0.49565134824E+02 -0.29705973228E+02  0.13047029887E+03  0.16307921415E+03  0.78950514652E+02 0.  0.
          5    1    3    3  501    0  0.23755077152E+02 -0.22125885486E+02  0.76118752443E+02  0.82885541396E+02  0.47000000000E+01 0. -1.
        -11    1    4    4    0    0  0.51935896493E+01  0.51468686796E+02  0.38874815697E+01  0.51875925118E+02  0.00000000000E+00 0.  1.
         12    1    4    4    0    0 -0.18602702880E+02  0.14664673734E+01 -0.40391417457E+02  0.44493569032E+02  0.00000000000E+00 0. -1.
         -5    1    5    5    0  502  0.39219170903E+02 -0.11032954559E+01  0.28384791789E+03  0.28658522488E+03  0.47000000000E+01 0.  1.
         13    1    6    6    0    0 -0.58925443723E+00  0.22785621388E+02  0.15601634858E+02  0.27621418738E+02  0.00000000000E+00 0. -1.
        -14    1    6    6    0    0 -0.48975880387E+02 -0.52491594616E+02  0.11486866402E+03  0.13545779541E+03  0.00000000000E+00 0.  1.
</event>
<event>
12    1  0.8407180E-002  0.2634067E+03  0.7818608E-02  0.1105351E+00
         21   -1    0    0  501  502  0.00000000000E+00  0.00000000000E+00  0.20663912464E+03  0.20663912464E+03  0.00000000000E+00 0. -1.
         21   -1    0    0  502  503 -0.00000000000E+00 -0.00000000000E+00 -0.40775647041E+03  0.40775647041E+03  0.00000000000E+00 0. -1.
         -6    2    1    2    0  503  0.11066616608E+03  0.16522741508E+03 -0.23119542734E+03  0.34927721018E+03  0.17028254438E+03 0.  0.
        -24    2    3    3    0    0  0.13167006179E+03  0.11314423515E+03 -0.12194487025E+03  0.22634798057E+03  0.78893813513E+02 0.  0.
          6    2    1    2  501    0 -0.11066616608E+03 -0.16522741508E+03  0.30078081575E+02  0.26511838487E+03  0.17273091210E+03 0.  0.
         24    2    5    5    0    0 -0.92161874527E+02 -0.18053960852E+03  0.60155299885E+02  0.22634208882E+03  0.80769546908E+02 0.  0.
          5    1    5    5  501    0 -0.18504291552E+02  0.15312193438E+02 -0.30077218309E+02  0.38776296045E+02  0.47000000000E+01 0. -1.
        -11    1    6    6    0    0 -0.48952448076E+02 -0.24978710946E+02  0.28160843246E+02  0.61752014262E+02  0.00000000000E+00 0.  1.
         12    1    6    6    0    0 -0.43209426451E+02 -0.15556089758E+03  0.31994456639E+02  0.16459007456E+03  0.00000000000E+00 0. -1.
         -5    1    3    3    0  503 -0.21003895711E+02  0.52083179938E+02 -0.10925055710E+03  0.12292922961E+03  0.47000000000E+01 0.  1.
         11    1    4    4    0    0  0.11225443725E+03  0.11123864699E+03 -0.13059000283E+03  0.20500937565E+03  0.00000000000E+00 0. -1.
        -12    1    4    4    0    0  0.19415624541E+02  0.19055881528E+01  0.86451325810E+01  0.21338604918E+02  0.00000000000E+00 0.  1.
</event>
<event>
12    1  0.8407180E-002  0.1907934E+03  0.7818608E-02  0.1157748E+00
         21   -1    0    0  501  502  0.00000000000E+00  0.00000000000E+00  0.16297971939E+03  0.16297971939E+03  0.00000000000E+00 0. -1.
         21   -1    0    0  502  503 -0.00000000000E+00 -0.00000000000E+00 -0.34957178263E+03  0.34957178263E+03  0.00000000000E+00 0. -1.
         -6    2    1    2    0  503 -0.18689613069E+02 -0.78696889451E+02 -0.24729098416E+03  0.31233790501E+03  0.17279940397E+03 0.  0.
        -24    2    3    3    0    0  0.52450913689E+02 -0.69797114349E+02 -0.14838133102E+03  0.19008656543E+03  0.80580068529E+02 0.  0.
          6    2    1    2  501    0  0.18689613069E+02  0.78696889451E+02  0.60698920918E+02  0.20021359701E+03  0.17279647966E+03 0.  0.
         24    2    5    5    0    0  0.60039185752E+02  0.77385186100E+02 -0.31315465960E+00  0.12634837453E+03  0.79816306769E+02 0.  0.
          5    1    5    5  501    0 -0.41349572683E+02  0.13117033512E+01  0.61012075577E+02  0.73865222487E+02  0.47000000000E+01 0. -1.
        -11    1    6    6    0    0  0.49165836504E+02  0.70732727643E+01  0.18082456723E+02  0.52861005551E+02  0.00000000000E+00 0.  1.
         12    1    6    6    0    0  0.10873349248E+02  0.70311913335E+02 -0.18395611383E+02  0.73487368975E+02  0.00000000000E+00 0. -1.
         -5    1    3    3    0  503 -0.71140526758E+02 -0.88997751023E+01 -0.98909653146E+02  0.12225133958E+03  0.47000000000E+01 0.  1.
         11    1    4    4    0    0  0.14349423051E+02 -0.58985890085E+02 -0.35194438388E+02  0.70170432978E+02  0.00000000000E+00 0. -1.
        -12    1    4    4    0    0  0.38101490638E+02 -0.10811224264E+02 -0.11318689263E+03  0.11991613245E+03  0.00000000000E+00 0.  1.
</event>
<event>
12    1  0.8407180E-002  0.2838980E+03  0.7818608E-02  0.1093649E+00
         21   -1    0    0  503  502  0.00000000000E+00  0.00000000000E+00  0.52793324010E+03  0.52793324010E+03  0.00000000000E+00 0. -1.
         21   -1    0    0  501  503 -0.00000000000E+00 -0.00000000000E+00 -0.19492343430E+03  0.19492343430E+03  0.00000000000E+00 0. -1.
          6    2    1    2  501    0 -0.19878494672E+03 -0.10623316993E+03 -0.24592406676E+01  0.28338250493E+03  0.17175172430E+03 0.  0.
         24    2    3    3    0    0 -0.26962555788E+02 -0.61766303840E+02  0.71669870373E+01  0.10557645761E+03  0.80950398350E+02 0.  0.
         -6    2    1    2    0  502  0.19878494672E+03  0.10623316993E+03  0.33546904647E+03  0.43947416947E+03  0.17261843199E+03 0.  0.
        -24    2    5    5    0    0  0.19492161224E+03  0.93332764479E+02  0.35011737369E+03  0.41902889363E+03  0.79357409842E+02 0.  0.
          5    1    3    3  501    0 -0.17182239093E+03 -0.44466866085E+02 -0.96262277049E+01  0.17780604732E+03  0.47000000000E+01 0. -1.
        -11    1    4    4    0    0 -0.56998677564E+00 -0.48439351266E+02 -0.30837756058E+02  0.57425280449E+02  0.00000000000E+00 0.  1.
         12    1    4    4    0    0 -0.26392569012E+02 -0.13326952574E+02  0.38004743095E+02  0.48151177158E+02  0.00000000000E+00 0. -1.
         -5    1    5    5    0  502  0.38633344729E+01  0.12900405446E+02 -0.14648327219E+02  0.20445275841E+02  0.47000000000E+01 0.  1.
         11    1    6    6    0    0  0.74709788602E+02  0.74438432106E+02  0.19691654452E+03  0.22338029947E+03  0.00000000000E+00 0. -1.
        -12    1    6    6    0    0  0.12021182364E+03  0.18894332373E+02  0.15320082917E+03  0.19564859416E+03  0.00000000000E+00 0.  1.
</event>
<event>
12    1  0.8407180E-002  0.2011755E+03  0.7818608E-02  0.1149130E+00
         21   -1    0    0  503  502  0.00000000000E+00  0.00000000000E+00  0.45213231102E+03  0.45213231102E+03  0.00000000000E+00 0. -1.
         21   -1    0    0  501  503 -0.00000000000E+00 -0.00000000000E+00 -0.12705107303E+03  0.12705107303E+03  0.00000000000E+00 0. -1.
          6    2    1    2  501    0 -0.11939980382E+02 -0.10397942358E+03  0.29500341763E+01  0.19939385990E+03  0.16969067448E+03 0.  0.
         24    2    3    3    0    0  0.42001083135E+02 -0.13738181874E+02  0.16365920702E+02  0.93303351141E+02  0.80528525058E+02 0.  0.
         -6    2    1    2    0  502  0.11939980382E+02  0.10397942358E+03  0.32213120381E+03  0.37978952416E+03  0.17180595604E+03 0.  0.
        -24    2    5    5    0    0 -0.55726533196E+02  0.47381422340E+02  0.13326463781E+03  0.17128350372E+03  0.78918497652E+02 0.  0.
          5    1    3    3  501    0 -0.53941063517E+02 -0.90241241703E+02 -0.13415886526E+02  0.10609050876E+03  0.47000000000E+01 0. -1.
        -13    1    4    4    0    0 -0.23921159121E+01  0.28455258766E+02 -0.38352597462E+01  0.28812031988E+02  0.00000000000E+00 0.  1.
         14    1    4    4    0    0  0.44393199047E+02 -0.42193440639E+02  0.20201180448E+02  0.64491319153E+02  0.00000000000E+00 0. -1.
         -5    1    5    5    0  502  0.67666513578E+02  0.56598001236E+02  0.18886656601E+03  0.20850602044E+03  0.47000000000E+01 0.  1.
         11    1    6    6    0    0  0.16222463985E+02  0.11571370051E+02  0.57415718060E+02  0.60775238567E+02  0.00000000000E+00 0. -1.
        -12    1    6    6    0    0 -0.71948997180E+02  0.35810052289E+02  0.75848919746E+02  0.11050826515E+03  0.00000000000E+00 0.  1.
</event>
<event>
12    1  0.8407180E-002  0.1988375E+03  0.7818608E-02  0.1151018E+00
         21   -1    0    0  501  502  0.00000000000E+00  0.00000000000E+00  0.11618461430E+03  0.11618461430E+03  0.00000000000E+00 0.  1.
         21   -1    0    0  502  503 -0.00000000000E+00 -0.00000000000E+00 -0.34428125814E+03  0.34428125814E+03  0.00000000000E+00 0.  1.
         -6    2    1    2    0  503  0.14862204882E+02 -0.96042247253E+02 -0.14492074411E+03  0.24493264723E+03  0.17188653587E+03 0.  0.
        -24    2    3    3    0    0  0.52017430115E+02 -0.15527196276E+02 -0.11883377688E+03  0.15238101810E+03  0.78432144481E+02 0.  0.
          6    2    1    2  501    0 -0.14862204882E+02  0.96042247253E+02 -0.83175899728E+02  0.21553322521E+03  0.17346856339E+03 0.  0.
         24    2    5    5    0    0  0.69425813484E+01  0.12813921813E+03 -0.90243160529E+02  0.17581294806E+03  0.79363127607E+02 0.  0.
          5    1    5    5  501    0 -0.21804786230E+02 -0.32096970877E+02  0.70672608014E+01  0.39720277155E+02  0.47000000000E+01 0. -1.
        -11    1    6    6    0    0  0.28065132012E+02  0.84134276367E+01 -0.16674528976E+02  0.33711679223E+02  0.00000000000E+00 0.  1.
         12    1    6    6    0    0 -0.21122550664E+02  0.11972579049E+03 -0.73568631554E+02  0.14210126884E+03  0.00000000000E+00 0. -1.
         -5    1    3    3    0  503 -0.37155225233E+02 -0.80515050977E+02 -0.26086967232E+02  0.92551629134E+02  0.47000000000E+01 0.  1.
         11    1    4    4    0    0  0.69026302672E+02 -0.24475946537E+02 -0.76588575533E+02  0.10596939332E+03  0.00000000000E+00 0. -1.
        -12    1    4    4    0    0 -0.17008872557E+02  0.89487502611E+01 -0.42245201349E+02  0.46411624771E+02  0.00000000000E+00 0.  1.
</event>
<event>
12    1  0.8407180E-002  0.2206672E+03  0.7818608E-02  0.1133574E+00
         21   -1    0    0  503  502  0.00000000000E+00  0.00000000000E+00  0.62279303992E+03  0.62279303992E+03  0.00000000000E+00 0. -1.
         21   -1    0    0  501  503 -0.00000000000E+00 -0.00000000000E+00 -0.78008615330E+02  0.78008615330E+02  0.00000000000E+00 0. -1.
          6    2    1    2  501    0 -0.41748128395E+02 -0.12917614517E+03  0.28855043374E+03  0.36264506466E+03  0.17268673199E+03 0.  0.
         24    2    3    3    0    0 -0.93569921154E+01 -0.15671845814E+03  0.22722829496E+03  0.28787702725E+03  0.81192711293E+02 0.  0.
         -6    2    1    2    0  502  0.41748128395E+02  0.12917614517E+03  0.25623399085E+03  0.33815659059E+03  0.17396735035E+03 0.  0.
        -24    2    5    5    0    0  0.75027319040E+02  0.50784477343E+02  0.20736699264E+03  0.23985688750E+03  0.79511603575E+02 0.  0.
          5    1    3    3  501    0 -0.32391136279E+02  0.27542312970E+02  0.61322138778E+02  0.74768037406E+02  0.47000000000E+01 0. -1.
        -11    1    4    4    0    0  0.84858230027E+01  0.58364100088E+01  0.29729091398E+02  0.31462545179E+02  0.00000000000E+00 0.  1.
         12    1    4    4    0    0 -0.17842815118E+02 -0.16255486814E+03  0.19749920356E+03  0.25641448207E+03  0.00000000000E+00 0. -1.
         -5    1    5    5    0  502 -0.33279190645E+02  0.78391667823E+02  0.48866998214E+02  0.98299703095E+02  0.47000000000E+01 0.  1.
         11    1    6    6    0    0 -0.24082168047E+01  0.42115562271E+02  0.63303898697E+02  0.76071700939E+02  0.00000000000E+00 0. -1.
        -12    1    6    6    0    0  0.77435535844E+02  0.86689150719E+01  0.14406309394E+03  0.16378518656E+03  0.00000000000E+00 0.  1.
</event>
<event>
12    1  0.8407180E-002  0.2484614E+03  0.7818608E-02  0.1116499E+00
         21   -1    0    0  501  502  0.00000000000E+00  0.00000000000E+00  0.36241565816E+03  0.36241565816E+03  0.00000000000E+00 0. -1.
         21   -1    0    0  502  503 -0.00000000000E+00 -0.00000000000E+00 -0.20120356813E+03  0.20120356813E+03  0.00000000000E+00 0. -1.
         -6    2    1    2    0  503  0.62551641498E+02 -0.15002176531E+03 -0.46823875003E+02  0.23956363201E+03  0.16964380505E+03 0.  0.
        -24    2    3    3    0    0  0.18475447099E+02 -0.94014318009E+02 -0.92500168190E+02  0.15478180126E+03  0.78873891436E+02 0.  0.
          6    2    1    2  501    0 -0.62551641498E+02  0.15002176531E+03  0.20803596503E+03  0.32405559428E+03  0.18791973691E+03 0.  0.
         24    2    5    5    0    0  0.35053748950E+02  0.41400661038E+02  0.53309722810E+02  0.11124662697E+03  0.81185623213E+02 0.  0.
          5    1    5    5  501    0 -0.97605390447E+02  0.10862110427E+03  0.15472624222E+03  0.21280896731E+03  0.47000000000E+01 0. -1.
        -13    1    6    6    0    0 -0.17640773305E+01 -0.34949774084E+01  0.53039929140E+02  0.53184216823E+02  0.00000000000E+00 0.  1.
         14    1    6    6    0    0  0.36817826280E+02  0.44895638446E+02  0.26979366943E+00  0.58062410147E+02  0.00000000000E+00 0. -1.
         -5    1    3    3    0  503  0.44076194399E+02 -0.56007447297E+02  0.45676293187E+02  0.84781830747E+02  0.47000000000E+01 0.  1.
         13    1    4    4    0    0  0.23990772013E+02 -0.17553896267E+02 -0.68145104249E+02  0.74346833483E+02  0.00000000000E+00 0. -1.
        -14    1    4    4    0    0 -0.55153249147E+01 -0.76460421742E+02 -0.24355063942E+02  0.80434967778E+02  0.00000000000E+00 0.  1.
</event>
<event>
12    1  0.8407180E-002  0.1982973E+03  0.7818608E-02  0.1151476E+00
         21   -1    0    0  501  502  0.00000000000E+00  0.00000000000E+00  0.73052976163E+02  0.73052976163E+02  0.00000000000E+00 0.  1.
         21   -1    0    0  502  503 -0.00000000000E+00 -0.00000000000E+00 -0.13512889703E+04  0.13512889703E+04  0.00000000000E+00 0.  1.
         -6    2    1    2    0  503 -0.86321798288E+02 -0.49174401984E+02 -0.11919096524E+04  0.12080688637E+04  0.17003583546E+03 0.  0.
        -24    2    3    3    0    0 -0.76205989501E+02 -0.51284712720E+01 -0.11012143202E+04  0.11066286997E+04  0.78233278437E+02 0.  0.
          6    2    1    2  501    0  0.86321798288E+02  0.49174401984E+02 -0.86326341756E+02  0.21627308276E+03  0.17161653293E+03 0.  0.
         24    2    5    5    0    0  0.12476581702E+03  0.20254164321E+02 -0.59870853900E+02  0.16117040079E+03  0.80091439458E+02 0.  0.
          5    1    5    5  501    0 -0.38444018732E+02  0.28920237663E+02 -0.26455487856E+02  0.55102681972E+02  0.47000000000E+01 0. -1.
        -11    1    6    6    0    0  0.83221112219E+02  0.48365122057E+02 -0.23135661757E+02  0.98995946359E+02  0.00000000000E+00 0.  1.
         12    1    6    6    0    0  0.41544704801E+02 -0.28110957735E+02 -0.36735192143E+02  0.62174454430E+02  0.00000000000E+00 0. -1.
         -5    1    3    3    0  503 -0.10115808787E+02 -0.44045930712E+02 -0.90695332135E+02  0.10144016399E+03  0.47000000000E+01 0.  1.
         13    1    4    4    0    0  0.16140015255E+02 -0.31561188845E+01 -0.13123250382E+03  0.13225895523E+03  0.00000000000E+00 0. -1.
        -14    1    4    4    0    0 -0.92346004756E+02 -0.19723523875E+01 -0.96998181642E+03  0.97436974448E+03  0.00000000000E+00 0.  1.
</event>
<event>
12    1  0.8407180E-002  0.1906753E+03  0.7818608E-02  0.1157981E+00
         21   -1    0    0  501  502  0.00000000000E+00  0.00000000000E+00  0.32781853850E+03  0.32781853850E+03  0.00000000000E+00 0. -1.
         21   -1    0    0  502  503 -0.00000000000E+00 -0.00000000000E+00 -0.11082323237E+03  0.11082323237E+03  0.00000000000E+00 0. -1.
         -6    2    1    2    0  503  0.70144243513E+02  0.46068594046E+02  0.11868754759E+03  0.22411557883E+03  0.17058290790E+03 0.  0.
        -24    2    3    3    0    0  0.94593775072E+02  0.64955319251E+02  0.12893978489E+03  0.19122657836E+03  0.82310147374E+02 0.  0.
          6    2    1    2  501    0 -0.70144243513E+02 -0.46068594046E+02  0.98307758538E+02  0.21452619203E+03  0.17121489837E+03 0.  0.
         24    2    5    5    0    0  0.19912254310E+02 -0.39567817615E+02  0.82336346452E+02  0.12271329044E+03  0.79480611732E+02 0.  0.
          5    1    5    5  501    0 -0.90056497823E+02 -0.65007764314E+01  0.15971412087E+02  0.91812901590E+02  0.47000000000E+01 0. -1.
        -13    1    6    6    0    0  0.11751946806E+02 -0.71431597095E+01 -0.14668874565E+02  0.20107433087E+02  0.00000000000E+00 0.  1.
         14    1    6    6    0    0  0.81603075043E+01 -0.32424657905E+02  0.97005221016E+02  0.10260585735E+03  0.00000000000E+00 0. -1.
         -5    1    3    3    0  503 -0.24449531560E+02 -0.18886725205E+02 -0.10252237304E+02  0.32889000474E+02  0.47000000000E+01 0.  1.
         11    1    4    4    0    0  0.96676731619E+02  0.41490341453E+02  0.66421402968E+02  0.12441720798E+03  0.00000000000E+00 0. -1.
        -12    1    4    4    0    0 -0.20829565467E+01  0.23464977798E+02  0.62518381927E+02  0.66809370374E+02  0.00000000000E+00 0.  1.
</event>
<event>
12    1  0.8407180E-002  0.2100003E+03  0.7818608E-02  0.1141840E+00
         21   -1    0    0  503  502  0.00000000000E+00  0.00000000000E+00  0.11507881094E+03  0.11507881094E+03  0.00000000000E+00 0.  1.
         21   -1    0    0  501  503 -0.00000000000E+00 -0.00000000000E+00 -0.38082419855E+03  0.38082419855E+03  0.00000000000E+00 0. -1.
          6    2    1    2  501    0  0.11221558446E+03 -0.40395921098E+02 -0.12804053911E+03  0.24478004338E+03  0.17116869499E+03 0.  0.
         24    2    3    3    0    0 -0.96177644566E+01 -0.25154103412E+02  0.29196050530E+01  0.65201850734E+02  0.59308742474E+02 0.  0.
         -6    2    1    2    0  502 -0.11221558446E+03  0.40395921098E+02 -0.13770484850E+03  0.25112296610E+03  0.17284661110E+03 0.  0.
        -24    2    5    5    0    0 -0.98948447008E+02  0.90398397407E+02 -0.11807940707E+03  0.19559358177E+03  0.79695906028E+02 0.  0.
          5    1    3    3  501    0  0.12183334891E+03 -0.15241817686E+02 -0.13096014417E+03  0.17957819265E+03  0.47000000000E+01 0. -1.
        -13    1    4    4    0    0 -0.10638189703E+02 -0.44503418409E+02  0.23372845687E+01  0.45816898950E+02  0.00000000000E+00 0.  1.
         14    1    4    4    0    0  0.10204252463E+01  0.19349314997E+02  0.58232048437E+00  0.19384951784E+02  0.00000000000E+00 0. -1.
         -5    1    5    5    0  502 -0.13267137450E+02 -0.50002476309E+02 -0.19625441430E+02  0.55529384333E+02  0.47000000000E+01 0.  1.
         11    1    6    6    0    0 -0.31184270247E+02  0.81314011119E+02 -0.58566610340E+02  0.10494986880E+03  0.00000000000E+00 0. -1.
        -12    1    6    6    0    0 -0.67764176761E+02  0.90843862882E+01 -0.59512796727E+02  0.90643712968E+02  0.00000000000E+00 0.  1.
</event>
<event>
12    1  0.8407180E-002  0.1796359E+03  0.7818608E-02  0.1168603E+00
         21   -1    0    0  503  502  0.00000000000E+00  0.00000000000E+00  0.19133867343E+03  0.19133867343E+03  0.00000000000E+00 0.  1.
         21   -1    0    0  501  503 -0.00000000000E+00 -0.00000000000E+00 -0.20807184246E+03  0.20807184246E+03  0.00000000000E+00 0.  1.
          6    2    1    2  501    0  0.21647316217E+01  0.40581500646E+02 -0.97131471235E+02  0.20260369122E+03  0.17309589462E+03 0.  0.
         24    2    3    3    0    0  0.26775627685E+01 -0.35258130646E+02 -0.95665747861E+02  0.12660269771E+03  0.75006683927E+02 0.  0.
         -6    2    1    2    0  502 -0.21647316217E+01 -0.40581500646E+02  0.80398302209E+02  0.19680682467E+03  0.17497855578E+03 0.  0.
        -24    2    5    5    0    0 -0.55747172364E+02 -0.30784644473E+02  0.43978314762E+01  0.10318408225E+03  0.81068935770E+02 0.  0.
          5    1    3    3  501    0 -0.51283114686E+00  0.75839631292E+02 -0.14657233742E+01  0.76000993516E+02  0.47000000000E+01 0. -1.
        -13    1    4    4    0    0  0.29001457942E+01  0.23386756202E+02 -0.35273669138E+02  0.42421491554E+02  0.00000000000E+00 0.  1.
         14    1    4    4    0    0 -0.22258302567E+00 -0.58644886848E+02 -0.60392078724E+02  0.84181206152E+02  0.00000000000E+00 0. -1.
         -5    1    5    5    0  502  0.53582440743E+02 -0.97968561734E+01  0.76000470732E+02  0.93622742421E+02  0.47000000000E+01 0.  1.
         13    1    6    6    0    0 -0.33564852165E+02  0.25785124223E+02  0.20410808012E+01  0.42374968353E+02  0.00000000000E+00 0. -1.
        -14    1    6    6    0    0 -0.22182320199E+02 -0.56569768695E+02  0.23567506750E+01  0.60809113901E+02  0.00000000000E+00 0.  1.
</event>
<event>
12    1  0.8407180E-002  0.1812866E+03  0.7818608E-02  0.1166634E+00
         21   -1    0    0  503  502  0.00000000000E+00  0.00000000000E+00  0.20025558317E+04  0.20025558317E+04  0.00000000000E+00 0.  1.
         21   -1    0    0  501  503 -0.00000000000E+00 -0.00000000000E+00 -0.16911921627E+02  0.16911921627E+02  0.00000000000E+00 0.  1.
          6    2    1    2  501    0  0.65247279993E+02  0.44485751009E+02  0.81379269178E+03  0.83367682599E+03  0.16285673273E+03 0.  0.
         24    2    3    3    0    0  0.44457200993E+02 -0.34736197072E+02  0.47667813475E+03  0.48672342997E+03  0.80589124739E+02 0.  0.
         -6    2    1    2    0  502 -0.65247279993E+02 -0.44485751009E+02  0.11718512183E+04  0.11857909273E+04  0.16318289116E+03 0.  0.
        -24    2    5    5    0    0 -0.72610474429E+01 -0.80547192446E+02  0.79693589720E+03  0.80467884578E+03  0.76554866466E+02 0.  0.
          5    1    3    3  501    0  0.20790079000E+02  0.79221948081E+02  0.33711455703E+03  0.34695339602E+03  0.47000000000E+01 0. -1.
        -13    1    4    4    0    0  0.44518686106E+02  0.13178347196E+02  0.16593291493E+03  0.17230587484E+03  0.00000000000E+00 0.  1.
         14    1    4    4    0    0 -0.61485112676E-01 -0.47914544268E+02  0.31074521982E+03  0.31441755513E+03  0.00000000000E+00 0. -1.
         -5    1    5    5    0  502 -0.57986232550E+02  0.36061441437E+02  0.37491532109E+03  0.38111208156E+03  0.47000000000E+01 0.  1.
         11    1    6    6    0    0  0.29345633318E+01  0.76825894588E+01  0.28338034058E+03  0.28349964951E+03  0.00000000000E+00 0. -1.
        -12    1    6    6    0    0 -0.10195610775E+02 -0.88229781905E+02  0.51355555662E+03  0.52117919627E+03  0.00000000000E+00 0.  1.
</event>
<event>
12    1  0.8407180E-002  0.2152913E+03  0.7818608E-02  0.1137732E+00
         21   -1    0    0  501  502  0.00000000000E+00  0.00000000000E+00  0.81736422613E+03  0.81736422613E+03  0.00000000000E+00 0.  1.
         21   -1    0    0  502  503 -0.00000000000E+00 -0.00000000000E+00 -0.24572532712E+03  0.24572532712E+03  0.00000000000E+00 0. -1.
         -6    2    1    2    0  503  0.25677476084E+02  0.12683904628E+03 -0.18109112226E+03  0.28017650926E+03  0.17016875549E+03 0.  0.
        -24    2    3    3    0    0 -0.34099053842E+02  0.12503130903E+03 -0.14072934366E+03  0.20787391861E+03  0.81309557615E+02 0.  0.
          6    2    1    2  501    0 -0.25677476084E+02 -0.12683904628E+03  0.75273002127E+03  0.78291304399E+03  0.17205485490E+03 0.  0.
         24    2    5    5    0    0  0.21062676489E+02 -0.81445163802E+02  0.65949222301E+03  0.66906831002E+03  0.75136277640E+02 0.  0.
          5    1    5    5  501    0 -0.46740152573E+02 -0.45393882477E+02  0.93237798263E+02  0.11384473397E+03  0.47000000000E+01 0. -1.
        -13    1    6    6    0    0  0.19680197802E+02 -0.12769056577E+02  0.44992441952E+02  0.50741293087E+02  0.00000000000E+00 0.  1.
         14    1    6    6    0    0  0.13824786871E+01 -0.68676107224E+02  0.61449978105E+03  0.61832701693E+03  0.00000000000E+00 0. -1.
         -5    1    3    3    0  503  0.59776529926E+02  0.18077372485E+01 -0.40361778593E+02  0.72302590653E+02  0.47000000000E+01 0.  1.
         13    1    4    4    0    0 -0.60933052344E+02  0.92792801295E+02 -0.10007372631E+03  0.14945933072E+03  0.00000000000E+00 0. -1.
        -14    1    4    4    0    0  0.26833998502E+02  0.32238507735E+02 -0.40655617354E+02  0.58414587896E+02  0.00000000000E+00 0.  1.
</event>
<event>
12    1  0.8407180E-002  0.1768990E+03  0.7818608E-02  0.1171227E+00
         21   -1    0    0  501  502  0.00000000000E+00  0.00000000000E+00  0.32635012178E+02  0.32635012178E+02  0.00000000000E+00 0.  1.
         21   -1    0    0  502  503 -0.00000000000E+00 -0.00000000000E+00 -0.96776974177E+03  0.96776974177E+03  0.00000000000E+00 0.  1.
         -6    2    1    2    0  503  0.25327843168E+02 -0.16189777181E+02 -0.40264278859E+03  0.43978912056E+03  0.17432626547E+03 0.  0.
        -24    2    3    3    0    0  0.31213028654E+02 -0.54558749611E+02 -0.38351753656E+03  0.39626121320E+03  0.77371428366E+02 0.  0.
          6    2    1    2  501    0 -0.25327843168E+02  0.16189777181E+02 -0.53249194100E+03  0.56061563338E+03  0.17273856733E+03 0.  0.
         24    2    5    5    0    0 -0.64405780490E+02 -0.35351932110E+02 -0.34820103376E+03  0.36524710605E+03  0.82241260345E+02 0.  0.
          5    1    5    5  501    0  0.39077937322E+02  0.51541709291E+02 -0.18429090724E+03  0.19536852734E+03  0.47000000000E+01 0. -1.
        -13    1    6    6    0    0 -0.63816100439E+02  0.10096434933E+02 -0.21556502115E+03  0.22503935437E+03  0.00000000000E+00 0.  1.
         14    1    6    6    0    0 -0.58968005073E+00 -0.45448367043E+02 -0.13263601261E+03  0.14020775167E+03  0.00000000000E+00 0. -1.
         -5    1    3    3    0  503 -0.58851854862E+01  0.38368972430E+02 -0.19125252037E+02  0.43527907358E+02  0.47000000000E+01 0.  1.
         13    1    4    4    0    0  0.36696411456E+00 -0.66578914507E+02 -0.25557591201E+03  0.26410591307E+03  0.00000000000E+00 0. -1.
        -14    1    4    4    0    0  0.30846064540E+02  0.12020164896E+02 -0.12794162455E+03  0.13215530013E+03  0.00000000000E+00 0.  1.
</event>
<event>
12    1  0.8407180E-002  0.2869457E+03  0.7818608E-02  0.1092028E+00
         21   -1    0    0  501  502  0.00000000000E+00  0.00000000000E+00  0.95583512467E+03  0.95583512467E+03  0.00000000000E+00 0.  1.
         21   -1    0    0  502  503 -0.00000000000E+00 -0.00000000000E+00 -0.10026834437E+03  0.10026834437E+03  0.00000000000E+00 0. -1.
         -6    2    1    2    0  503  0.20903505262E+03  0.94772703766E+02  0.22807440073E+03  0.36611469247E+03  0.17130241438E+03 0.  0.
        -24    2    3    3    0    0  0.10788601478E+03  0.12153041411E+03  0.12536784473E+03  0.21942512378E+03  0.77596744224E+02 0.  0.
          6    2    1    2  501    0 -0.20903505262E+03 -0.94772703766E+02  0.62749237958E+03  0.68998877657E+03  0.17222167914E+03 0.  0.
         24    2    5    5    0    0 -0.41579917731E+02 -0.25104696794E+01  0.14078897143E+03  0.16705872432E+03  0.79698750810E+02 0.  0.
          5    1    5    5  501    0 -0.16745513489E+03 -0.92262234087E+02  0.48670340815E+03  0.52293005225E+03  0.47000000000E+01 0. -1.
        -11    1    6    6    0    0 -0.27502510472E+02 -0.38791992122E+02  0.99732425185E+02  0.11048874770E+03  0.00000000000E+00 0.  1.
         12    1    6    6    0    0 -0.14077407259E+02  0.36281522442E+02  0.41056546240E+02  0.56569976622E+02  0.00000000000E+00 0. -1.
         -5    1    3    3    0  503  0.10114903784E+03 -0.26757710344E+02  0.10270655599E+03  0.14668956869E+03  0.47000000000E+01 0.  1.
         13    1    4    4    0    0 -0.93559131285E+01  0.67391835141E+01  0.23815445275E+02  0.26459877901E+02  0.00000000000E+00 0. -1.
        -14    1    4    4    0    0  0.11724192791E+03  0.11479123060E+03  0.10155239946E+03  0.19296524588E+03  0.00000000000E+00 0.  1.
</event>
<event>
12    1  0.8407180E-002  0.1817814E+03  0.7818608E-02  0.1166636E+00
         21   -1    0    0  503  502  0.00000000000E+00  0.00000000000E+00  0.74407957117E+03  0.74407957117E+03  0.00000000000E+00 0. -1.
         21   -1    0    0  501  503 -0.00000000000E+00 -0.00000000000E+00 -0.66610540089E+02  0.66610540089E+02  0.00000000000E+00 0. -1.
          6    2    1    2  501    0 -0.48785575238E+02  0.34220449664E+02  0.10323174729E+03  0.20904852034E+03  0.17173648034E+03 0.  0.
         24    2    3    3    0    0  0.21496824267E+02  0.67161572732E+01  0.10334023778E+03  0.13342971613E+03  0.81345339008E+02 0.  0.
         -6    2    1    2    0  502  0.48785575238E+02 -0.34220449664E+02  0.57423728379E+03  0.60164159092E+03  0.16933125613E+03 0.  0.
        -24    2    5    5    0    0  0.53056282441E+02  0.28651756688E+02  0.45967506157E+03  0.47080678656E+03  0.81987656230E+02 0.  0.
          5    1    3    3  501    0 -0.70282399504E+02  0.27504292391E+02 -0.10849049726E+00  0.75618804210E+02  0.47000000000E+01 0. -1.
        -11    1    4    4    0    0  0.12353552027E+02 -0.37241552584E+02  0.42896339377E+02  0.58134666237E+02  0.00000000000E+00 0.  1.
         12    1    4    4    0    0  0.91432722396E+01  0.43957709858E+02  0.60443898406E+02  0.75295049888E+02  0.00000000000E+00 0. -1.
         -5    1    5    5    0  502 -0.42707072028E+01 -0.62872206352E+02  0.11456222223E+03  0.13083480437E+03  0.47000000000E+01 0.  1.
         11    1    6    6    0    0 -0.18013400850E+01  0.34655997135E+02  0.29712132125E+03  0.29914104116E+03  0.00000000000E+00 0. -1.
        -12    1    6    6    0    0  0.54857622526E+02 -0.60042404474E+01  0.16255374031E+03  0.17166574539E+03  0.00000000000E+00 0.  1.
</event>
<event>
12    1  0.8407180E-002  0.3497252E+03  0.7818608E-02  0.1062778E+00
         21   -1    0    0  503  502  0.00000000000E+00  0.00000000000E+00  0.31827612918E+03  0.31827612918E+03  0.00000000000E+00 0.  1.
         21   -1    0    0  501  503 -0.00000000000E+00 -0.00000000000E+00 -0.42953714957E+03  0.42953714957E+03  0.00000000000E+00 0.  1.
          6    2    1    2  501    0  0.12025152578E+03 -0.27952596660E+03 -0.17775326025E+03  0.39230593562E+03  0.17237322919E+03 0.  0.
         24    2    3    3    0    0  0.60912728660E+02 -0.69293283383E+02 -0.72073379129E+02  0.14959375791E+03  0.93122504223E+02 0.  0.
         -6    2    1    2    0  502 -0.12025152578E+03  0.27952596660E+03  0.66492239868E+02  0.35550734313E+03  0.17137402837E+03 0.  0.
        -24    2    5    5    0    0  0.40226020308E+01  0.15035865977E+03  0.47955290158E+02  0.17524653069E+03  0.76077123820E+02 0.  0.
          5    1    3    3  501    0  0.59338797123E+02 -0.21023268321E+03 -0.10567988113E+03  0.24271217771E+03  0.47000000000E+01 0. -1.
        -11    1    4    4    0    0  0.71929871645E+02 -0.79818940304E+02 -0.78488143779E+02  0.13306148346E+03  0.00000000000E+00 0.  1.
         12    1    4    4    0    0 -0.11017142985E+02  0.10525656921E+02  0.64147646503E+01  0.16532274456E+02  0.00000000000E+00 0. -1.
         -5    1    5    5    0  502 -0.12427412781E+03  0.12916730682E+03  0.18536949710E+02  0.18026081244E+03  0.47000000000E+01 0.  1.
         13    1    6    6    0    0  0.32521388619E+01  0.95159741903E+02  0.67467447472E+02  0.11669536989E+03  0.00000000000E+00 0. -1.
        -14    1    6    6    0    0  0.77046316893E+00  0.55198917871E+02 -0.19512157314E+02  0.58551160797E+02  0.00000000000E+00 0.  1.
</event>
<event>
12    1  0.8407180E-002  0.2156782E+03  0.7818608E-02  0.1137227E+00
         21   -1    0    0  503  502  0.00000000000E+00  0.00000000000E+00  0.22768748170E+03  0.22768748170E+03  0.00000000000E+00 0.  1.
         21   -1    0    0  501  503 -0.00000000000E+00 -0.00000000000E+00 -0.22931692729E+03  0.22931692729E+03  0.00000000000E+00 0.  1.
          6    2    1    2  501    0  0.36089991335E+02 -0.12392889159E+03 -0.76881011002E+02  0.22897108164E+03  0.17278949253E+03 0.  0.
         24    2    3    3    0    0  0.32248575024E+02 -0.29079068841E+02 -0.96363718732E+02  0.13195092263E+03  0.78990612473E+02 0.  0.
         -6    2    1    2    0  502 -0.36089991335E+02  0.12392889159E+03  0.75251565407E+02  0.22803332736E+03  0.17226590680E+03 0.  0.
        -24    2    5    5    0    0 -0.19886936859E+02  0.13316338403E+03  0.69819785497E+01  0.15710631336E+03  0.80657724791E+02 0.  0.
          5    1    3    3  501    0  0.38414163114E+01 -0.94849822745E+02  0.19482707730E+02  0.97020159011E+02  0.47000000000E+01 0. -1.
        -13    1    4    4    0    0  0.58227592280E+02 -0.23707931958E+02 -0.59717632453E+02  0.86710519352E+02  0.00000000000E+00 0.  1.
         14    1    4    4    0    0 -0.25979017256E+02 -0.53711368828E+01 -0.36646086279E+02  0.45240403276E+02  0.00000000000E+00 0. -1.
         -5    1    5    5    0  502 -0.16203054476E+02 -0.92344924440E+01  0.68269586857E+02  0.70927013998E+02  0.47000000000E+01 0.  1.
         11    1    6    6    0    0 -0.94096281092E+01  0.14169093053E+03  0.12417211717E+02  0.14254489833E+03  0.00000000000E+00 0. -1.
        -12    1    6    6    0    0 -0.10477308750E+02 -0.85275464964E+01 -0.54352331675E+01  0.14561415023E+02  0.00000000000E+00 0.  1.
</event>
<event>
12    1  0.8407180E-002  0.2310480E+03  0.7818608E-02  0.1125953E+00
         21   -1    0    0  503  502  0.00000000000E+00  0.00000000000E+00  0.37465179396E+03  0.37465179396E+03  0.00000000000E+00 0. -1.
         21   -1    0    0  501  503 -0.00000000000E+00 -0.00000000000E+00 -0.14521569391E+03  0.14521569391E+03  0.00000000000E+00 0. -1.
          6    2    1    2  501    0 -0.15329385633E+02  0.15364540495E+03  0.15137437188E+03  0.27598882364E+03  0.17150431419E+03 0.  0.
         24    2    3    3    0    0  0.40148279191E+02  0.36861461666E+02  0.77117456770E+02  0.12681630557E+03  0.84644087464E+02 0.  0.
         -6    2    1    2    0  502  0.15329385633E+02 -0.15364540495E+03  0.78061728170E+02  0.24387866423E+03  0.17187573690E+03 0.  0.
        -24    2    5    5    0    0 -0.10142892363E+02 -0.17550759447E+03  0.80848714962E+02  0.20986911304E+03  0.81257220694E+02 0.  0.
          5    1    3    3  501    0 -0.55477664824E+02  0.11678394329E+03  0.74256915108E+02  0.14917251806E+03  0.47000000000E+01 0. -1.
        -11    1    4    4    0    0  0.63790355614E+02  0.31974909293E+02  0.37984715918E+02  0.80835901288E+02  0.00000000000E+00 0.  1.
         12    1    4    4    0    0 -0.23642076423E+02  0.48865523726E+01  0.39132740852E+02  0.45980404286E+02  0.00000000000E+00 0. -1.
         -5    1    5    5    0  502  0.25472277997E+02  0.21862189515E+02 -0.27869867926E+01  0.34009551190E+02  0.47000000000E+01 0.  1.
         11    1    6    6    0    0  0.18442121144E+02 -0.28768631819E+01  0.87901862658E+01  0.20631421392E+02  0.00000000000E+00 0. -1.
        -12    1    6    6    0    0 -0.28585013508E+02 -0.17263073129E+03  0.72058528697E+02  0.18923769165E+03  0.00000000000E+00 0.  1.
</event>
<event>
12    1  0.8407180E-002  0.1764124E+03  0.7818608E-02  0.1171475E+00
         21   -1    0    0  501  502  0.00000000000E+00  0.00000000000E+00  0.12286204170E+03  0.12286204170E+03  0.00000000000E+00 0.  1.
         21   -1    0    0  502  503 -0.00000000000E+00 -0.00000000000E+00 -0.25553600645E+03  0.25553600645E+03  0.00000000000E+00 0. -1.
         -6    2    1    2    0  503  0.19191503366E+02  0.33036702837E+02 -0.45306434092E+02  0.18153665739E+03  0.17159005645E+03 0.  0.
        -24    2    3    3    0    0 -0.33760563872E+02 -0.37256505088E+02 -0.56246627025E+02  0.92728806800E+02  0.53917768078E+02 0.  0.
          6    2    1    2  501    0 -0.19191503366E+02 -0.33036702837E+02 -0.87367530658E+02  0.19686139076E+03  0.17222538786E+03 0.  0.
         24    2    5    5    0    0  0.20915272238E+02  0.97220824301E+01  0.11333372226E+02  0.81966545803E+02  0.77833808883E+02 0.  0.
          5    1    5    5  501    0 -0.40106775605E+02 -0.42758785267E+02 -0.98700902884E+02  0.11489484495E+03  0.47000000000E+01 0. -1.
        -13    1    6    6    0    0 -0.16182002479E+01 -0.13848100759E+02  0.37595546682E+02  0.40097551010E+02  0.00000000000E+00 0.  1.
         14    1    6    6    0    0  0.22533472486E+02  0.23570183189E+02 -0.26262174456E+02  0.41868994793E+02  0.00000000000E+00 0. -1.
         -5    1    3    3    0  503  0.52952067239E+02  0.70293207926E+02  0.10940192933E+02  0.88807850592E+02  0.47000000000E+01 0.  1.
         13    1    4    4    0    0 -0.18982283487E+02 -0.50454705166E+02 -0.41326439652E+02  0.67925539925E+02  0.00000000000E+00 0. -1.
        -14    1    4    4    0    0 -0.14778280386E+02  0.13198200078E+02 -0.14920187373E+02  0.24803266876E+02  0.00000000000E+00 0.  1.
</event>
<event>
12    1  0.8407180E-002  0.2867011E+03  0.7818608E-02  0.1092132E+00
         21   -1    0    0  501  502  0.00000000000E+00  0.00000000000E+00  0.43112034605E+03  0.43112034605E+03  0.00000000000E+00 0. -1.
         21   -1    0    0  502  503 -0.00000000000E+00 -0.00000000000E+00 -0.24707282779E+03  0.24707282779E+03  0.00000000000E+00 0.  1.
         -6    2    1    2    0  503  0.27401806118E+01  0.22866907502E+03 -0.70399910193E+02  0.29486431941E+03  0.17231298572E+03 0.  0.
        -24    2    3    3    0    0 -0.13157325292E+02  0.21792070821E+03 -0.12801555386E+02  0.23397163874E+03  0.83164281017E+02 0.  0.
          6    2    1    2  501    0 -0.27401806118E+01 -0.22866907502E+03  0.25444742845E+03  0.38332885443E+03  0.17291750153E+03 0.  0.
         24    2    5    5    0    0  0.31885390474E+02 -0.40570581578E+02  0.73822234989E+02  0.12021761575E+03  0.79623504965E+02 0.  0.
          5    1    5    5  501    0 -0.34625571086E+02 -0.18809849344E+03  0.18062519346E+03  0.26311123868E+03  0.47000000000E+01 0. -1.
        -13    1    6    6    0    0  0.40989849829E+02 -0.46158605699E+02  0.19328595745E+02  0.64686778267E+02  0.00000000000E+00 0.  1.
         14    1    6    6    0    0 -0.91044593546E+01  0.55880241208E+01  0.54493639243E+02  0.55530837484E+02  0.00000000000E+00 0. -1.
         -5    1    3    3    0  503  0.15897505903E+02  0.10748366806E+02 -0.57598354807E+02  0.60892680672E+02  0.47000000000E+01 0.  1.
         11    1    4    4    0    0  0.31327186644E+02  0.10947876399E+03  0.10881670575E+02  0.11439144698E+03  0.00000000000E+00 0. -1.
        -12    1    4    4    0    0 -0.44484511936E+02  0.10844194422E+03 -0.23683225961E+02  0.11958019176E+03  0.00000000000E+00 0.  1.
</event>
<event>
12    1  0.8407180E-002  0.1870674E+03  0.7818608E-02  0.1161483E+00
         21   -1    0    0  503  502  0.00000000000E+00  0.00000000000E+00  0.75803995246E+02  0.75803995246E+02  0.00000000000E+00 0. -1.
         21   -1    0    0  501  503 -0.00000000000E+00 -0.00000000000E+00 -0.49576794763E+03  0.49576794763E+03  0.00000000000E+00 0. -1.
          6    2    1    2  501    0  0.60501700115E+02 -0.31736696155E+02 -0.28816097142E+03  0.34273521045E+03  0.17251957985E+03 0.  0.
         24    2    3    3    0    0  0.55363057453E+02  0.45056735355E+02 -0.18259798278E+03  0.21200927063E+03  0.80689094593E+02 0.  0.
         -6    2    1    2    0  502 -0.60501700115E+02  0.31736696155E+02 -0.13180298097E+03  0.22883673243E+03  0.17414520010E+03 0.  0.
        -24    2    5    5    0    0 -0.99205235606E+02  0.43320787548E+02 -0.68035574081E+02  0.15320256678E+03  0.84402711572E+02 0.  0.
          5    1    3    3  501    0  0.51386426613E+01 -0.76793431509E+02 -0.10556298863E+03  0.13072593982E+03  0.47000000000E+01 0. -1.
        -11    1    4    4    0    0  0.37731053923E+02  0.54630677532E+01 -0.18674246681E+02  0.42452385428E+02  0.00000000000E+00 0.  1.
         12    1    4    4    0    0  0.17632003530E+02  0.39593667601E+02 -0.16392373610E+03  0.16955688520E+03  0.00000000000E+00 0. -1.
         -5    1    5    5    0  502  0.38703535492E+02 -0.11584091393E+02 -0.63767406891E+02  0.75634165656E+02  0.47000000000E+01 0.  1.
         11    1    6    6    0    0  0.82387685875E+01 -0.23374127817E+01  0.97055264582E+01  0.12943649029E+02  0.00000000000E+00 0. -1.
        -12    1    6    6    0    0 -0.10744400419E+03  0.45658200330E+02 -0.77741100539E+02  0.14025891775E+03  0.00000000000E+00 0.  1.
</event>
<event>
12    1  0.8407180E-002  0.2227280E+03  0.7818608E-02  0.1132164E+00
         21   -1    0    0  501  502  0.00000000000E+00  0.00000000000E+00  0.22675400669E+03  0.22675400669E+03  0.00000000000E+00 0.  1.
         21   -1    0    0  502  503 -0.00000000000E+00 -0.00000000000E+00 -0.43002001418E+03  0.43002001418E+03  0.00000000000E+00 0. -1.
         -6    2    1    2    0  503 -0.13509001929E+03  0.28301628262E+02 -0.33247251698E+03  0.39928214957E+03  0.17273669252E+03 0.  0.
        -24    2    3    3    0    0 -0.71049518335E+02 -0.15815440862E+02 -0.29163735872E+03  0.31132135318E+03  0.81058458657E+02 0.  0.
          6    2    1    2  501    0  0.13509001929E+03 -0.28301628262E+02  0.12920650949E+03  0.25749187130E+03  0.17480688263E+03 0.  0.
         24    2    5    5    0    0  0.64743525374E+02  0.15401984035E+02  0.13969041358E+03  0.17388184092E+03  0.79325517744E+02 0.  0.
          5    1    5    5  501    0  0.70346493918E+02 -0.43703612297E+02 -0.10483904095E+02  0.83610030376E+02  0.47000000000E+01 0. -1.
        -13    1    6    6    0    0  0.13944201470E+02 -0.17736357621E+02  0.97306497659E+02  0.99887805176E+02  0.00000000000E+00 0.  1.
         14    1    6    6    0    0  0.50799323904E+02  0.33138341656E+02  0.42383915923E+02  0.73994035745E+02  0.00000000000E+00 0. -1.
         -5    1    3    3    0  503 -0.64040500957E+02  0.44117069123E+02 -0.40835158260E+02  0.87960796387E+02  0.47000000000E+01 0.  1.
         13    1    4    4    0    0 -0.73899503093E+02  0.91455648431E+01 -0.26245769399E+03  0.27281645671E+03  0.00000000000E+00 0. -1.
        -14    1    4    4    0    0  0.28499847586E+01 -0.24961005705E+02 -0.29179664728E+02  0.38504896475E+02  0.00000000000E+00 0.  1.
</event>
<event>
12    1  0.8407180E-002  0.2053413E+03  0.7818608E-02  0.1145842E+00
         21   -1    0    0  501  502  0.00000000000E+00  0.00000000000E+00  0.37983387424E+03  0.37983387424E+03  0.00000000000E+00 0.  1.
         21   -1    0    0  502  503 -0.00000000000E+00 -0.00000000000E+00 -0.30624884945E+03  0.30624884945E+03  0.00000000000E+00 0.  1.
         -6    2    1    2    0  503 -0.84490653978E+02 -0.71424654178E+02 -0.23816934753E+03  0.31277880202E+03  0.16989934979E+03 0.  0.
        -24    2    3    3    0    0 -0.11324307386E+03 -0.90228541557E+02 -0.17798892914E+03  0.24332334444E+03  0.81000046703E+02 0.  0.
          6    2    1    2  501    0  0.84490653978E+02  0.71424654178E+02  0.31175437232E+03  0.37330392168E+03  0.17298808468E+03 0.  0.
         24    2    5    5    0    0 -0.24368242240E+02  0.33520790942E+02  0.12996807599E+03  0.15800108921E+03  0.79719437776E+02 0.  0.
          5    1    5    5  501    0  0.10885889622E+03  0.37903863236E+02  0.18178629633E+03  0.21530283247E+03  0.47000000000E+01 0. -1.
        -11    1    6    6    0    0  0.23888204032E+02  0.12400104998E+02  0.83595265869E+02  0.87821280858E+02  0.00000000000E+00 0.  1.
         12    1    6    6    0    0 -0.48256446272E+02  0.21120685944E+02  0.46372810119E+02  0.70179808349E+02  0.00000000000E+00 0. -1.
         -5    1    3    3    0  503  0.28752419884E+02  0.18803887379E+02 -0.60180418394E+02  0.69455457581E+02  0.47000000000E+01 0.  1.
         13    1    4    4    0    0 -0.18337635302E+02 -0.11015885643E+02  0.54901792388E+01  0.22085304459E+02  0.00000000000E+00 0. -1.
        -14    1    4    4    0    0 -0.94905438561E+02 -0.79212655914E+02 -0.18347910838E+03  0.22123803998E+03  0.00000000000E+00 0.  1.
</event>
<event>
12    1  0.8407180E-002  0.1957464E+03  0.7818608E-02  0.1153930E+00
         21   -1    0    0  501  502  0.00000000000E+00  0.00000000000E+00  0.25558693046E+03  0.25558693046E+03  0.00000000000E+00 0. -1.
         21   -1    0    0  502  503 -0.00000000000E+00 -0.00000000000E+00 -0.16101409711E+03  0.16101409711E+03  0.00000000000E+00 0. -1.
         -6    2    1    2    0  503 -0.63539661164E+01 -0.10078420380E+03 -0.12245118952E+02  0.19360610904E+03  0.16472872821E+03 0.  0.
        -24    2    3    3    0    0 -0.49172702112E+01  0.45564438929E+01  0.20613116380E+02  0.83150372291E+02  0.80275420384E+02 0.  0.
          6    2    1    2  501    0  0.63539661164E+01  0.10078420380E+03  0.10681795231E+03  0.22299491853E+03  0.16768670232E+03 0.  0.
         24    2    5    5    0    0 -0.28515236749E+02  0.67696157512E+01  0.85232547004E+02  0.12031763869E+03  0.79704458382E+02 0.  0.
          5    1    5    5  501    0  0.34869202865E+02  0.94014588046E+02  0.21585405301E+02  0.10267727984E+03  0.47000000000E+01 0. -1.
        -13    1    6    6    0    0  0.11457569568E+02 -0.28406505825E+02  0.22335951187E+02  0.37909104303E+02  0.00000000000E+00 0.  1.
         14    1    6    6    0    0 -0.39972806317E+02  0.35176121576E+02  0.62896595817E+02  0.82408534384E+02  0.00000000000E+00 0. -1.
         -5    1    3    3    0  503 -0.14366959052E+01 -0.10534064769E+03 -0.32858235332E+02  0.11045573675E+03  0.47000000000E+01 0.  1.
         13    1    4    4    0    0 -0.20548187125E+01 -0.34592605930E+02 -0.67446738881E+01  0.35303842437E+02  0.00000000000E+00 0. -1.
        -14    1    4    4    0    0 -0.28624514986E+01  0.39149049823E+02  0.27357790268E+02  0.47846529853E+02  0.00000000000E+00 0.  1.
</event>
<event>
12    1  0.8407180E-002  0.2589623E+03  0.7818608E-02  0.1108305E+00
         21   -1    0    0  501  502  0.00000000000E+00  0.00000000000E+00  0.69191607277E+03  0.69191607277E+03  0.00000000000E+00 0.  1.
         21   -1    0    0  502  503 -0.00000000000E+00 -0.00000000000E+00 -0.10483690062E+03  0.10483690062E+03  0.00000000000E+00 0.  1.
         -6    2    1    2    0  503 -0.22147488196E+02 -0.18929856297E+03  0.41358642386E+03  0.48797047880E+03  0.17531971080E+03 0.  0.
        -24    2    3    3    0    0 -0.63471425535E+02 -0.51920483740E+02  0.20429340432E+03  0.23418698351E+03  0.79896118211E+02 0.  0.
          6    2    1    2  501    0  0.22147488196E+02  0.18929856297E+03  0.17349274828E+03  0.30878249459E+03  0.17006598156E+03 0.  0.
         24    2    5    5    0    0  0.25255064730E+02  0.20449799687E+03  0.18526442817E+03  0.28874896595E+03  0.81214579812E+02 0.  0.
          5    1    5    5  501    0 -0.31075765338E+01 -0.15199433893E+02 -0.11771679889E+02  0.20033528646E+02  0.47000000000E+01 0. -1.
        -13    1    6    6    0    0  0.50999104023E+02  0.10940188634E+03  0.81369850523E+02  0.14557037446E+03  0.00000000000E+00 0.  1.
         14    1    6    6    0    0 -0.25744039294E+02  0.95096110524E+02  0.10389457765E+03  0.14317859149E+03  0.00000000000E+00 0. -1.
         -5    1    3    3    0  503  0.41323937339E+02 -0.13737807923E+03  0.20929301954E+03  0.25378349529E+03  0.47000000000E+01 0.  1.
         11    1    4    4    0    0  0.14255917388E+01  0.91025845893E+01  0.83984553608E+02  0.84488428810E+02  0.00000000000E+00 0. -1.
        -12    1    4    4    0    0 -0.64897017273E+02 -0.61023068330E+02  0.12030885071E+03  0.14969855470E+03  0.00000000000E+00 0.  1.
</event>
<event>
12    1  0.8407180E-002  0.1968953E+03  0.7818608E-02  0.1152924E+00
         21   -1    0    0  501  502  0.00000000000E+00  0.00000000000E+00  0.84354180700E+03  0.84354180700E+03  0.00000000000E+00 0.  1.
         21   -1    0    0  502  503 -0.00000000000E+00 -0.00000000000E+00 -0.46735250375E+02  0.46735250375E+02  0.00000000000E+00 0.  1.
         -6    2    1    2    0  503  0.87953136276E+02 -0.20609881538E+02  0.47667168330E+03  0.51573604501E+03  0.17494928713E+03 0.  0.
        -24    2    3    3    0    0 -0.21706794674E+02  0.69168526054E+01  0.19285305463E+03  0.21019042562E+03  0.80428145311E+02 0.  0.
          6    2    1    2  501    0 -0.87953136276E+02  0.20609881538E+02  0.32013487332E+03  0.37454101236E+03  0.17214561111E+03 0.  0.
         24    2    5    5    0    0 -0.44917205965E+02 -0.24542464035E+02  0.28892212537E+03  0.30463284944E+03  0.81885838194E+02 0.  0.
          5    1    5    5  501    0 -0.43035930311E+02  0.45152345572E+02  0.31212747955E+02  0.69908162923E+02  0.47000000000E+01 0. -1.
        -13    1    6    6    0    0  0.11474982453E+02  0.17997116874E+02  0.34340982684E+02  0.40433581708E+02  0.00000000000E+00 0.  1.
         14    1    6    6    0    0 -0.56392188418E+02 -0.42539580909E+02  0.25458114268E+03  0.26419926773E+03  0.00000000000E+00 0. -1.
         -5    1    3    3    0  503  0.10965993095E+03 -0.27526734143E+02  0.28381862867E+03  0.30554561939E+03  0.47000000000E+01 0.  1.
         11    1    4    4    0    0 -0.12538853904E+02  0.27123161914E+02  0.20086815638E+02  0.36005123690E+02  0.00000000000E+00 0. -1.
        -12    1    4    4    0    0 -0.91679407702E+01 -0.20206309309E+02  0.17276623899E+03  0.17418530193E+03  0.00000000000E+00 0.  1.
</event>
<event>
12    1  0.8407180E-002  0.3459053E+03  0.7818608E-02  0.1064310E+00
         21   -1    0    0  503  502  0.00000000000E+00  0.00000000000E+00  0.17593979621E+04  0.17593979621E+04  0.00000000000E+00 0. -1.
         21   -1    0    0  501  503 -0.00000000000E+00 -0.00000000000E+00 -0.48958467635E+03  0.48958467635E+03  0.00000000000E+00 0.  1.
          6    2    1    2  501    0  0.16807106413E+02 -0.29975858792E+03 -0.40857140961E+03  0.53532408567E+03  0.17176609121E+03 0.  0.
         24    2    3    3    0    0 -0.16241809497E+02 -0.11375143960E+03 -0.26133188144E+03  0.29575685351E+03  0.77295392843E+02 0.  0.
         -6    2    1    2    0  502 -0.16807106413E+02  0.29975858792E+03  0.16783846954E+04  0.17136585528E+04  0.17179278226E+03 0.  0.
        -24    2    5    5    0    0  0.31280533964E+02  0.27682115570E+03  0.14911982229E+04  0.15189808385E+04  0.77602988281E+02 0.  0.
          5    1    3    3  501    0  0.33048915910E+02 -0.18600714832E+03 -0.14723952817E+03  0.23956723216E+03  0.47000000000E+01 0. -1.
        -13    1    4    4    0    0 -0.45946392845E+02 -0.86637867977E+02 -0.17798396436E+03  0.20321290006E+03  0.00000000000E+00 0.  1.
         14    1    4    4    0    0  0.29704583348E+02 -0.27113571624E+02 -0.83347917081E+02  0.92543953449E+02  0.00000000000E+00 0. -1.
         -5    1    5    5    0  502 -0.48087640377E+02  0.22937432219E+02  0.18718647250E+03  0.19467771429E+03  0.47000000000E+01 0.  1.
         13    1    6    6    0    0  0.40726100820E+02  0.15993462215E+03  0.10282920391E+04  0.10414519751E+04  0.00000000000E+00 0. -1.
        -14    1    6    6    0    0 -0.94455668561E+01  0.11688653355E+03  0.46290618376E+03  0.47752886344E+03  0.00000000000E+00 0.  1.
</event>
<event>
12    1  0.8407180E-002  0.1929797E+03  0.7818608E-02  0.1156247E+00
         21   -1    0    0  501  502  0.00000000000E+00  0.00000000000E+00  0.92238430272E+02  0.92238430272E+02  0.00000000000E+00 0.  1.
         21   -1    0    0  502  503 -0.00000000000E+00 -0.00000000000E+00 -0.49039199321E+03  0.49039199321E+03  0.00000000000E+00 0. -1.
         -6    2    1    2    0  503 -0.55546201037E+02 -0.58355138223E+02 -0.74553503817E+02  0.20688014656E+03  0.17535811217E+03 0.  0.
        -24    2    3    3    0    0 -0.25523552495E+02 -0.49973452942E+02 -0.11884723646E+03  0.15251437769E+03  0.77376818592E+02 0.  0.
          6    2    1    2  501    0  0.55546201037E+02  0.58355138223E+02 -0.32360005912E+03  0.37575027692E+03  0.17314898133E+03 0.  0.
         24    2    5    5    0    0 -0.35437876694E+02  0.38519900551E+02 -0.13283330445E+03  0.16341661557E+03  0.79502689452E+02 0.  0.
          5    1    5    5  501    0  0.90984077730E+02  0.19835237672E+02 -0.19076675467E+03  0.21233366135E+03  0.47000000000E+01 0. -1.
        -11    1    6    6    0    0  0.24073919482E+02  0.99563250830E+01 -0.20609922631E+02  0.33218231729E+02  0.00000000000E+00 0.  1.
         12    1    6    6    0    0 -0.59511796176E+02  0.28563575468E+02 -0.11222338182E+03  0.13019838384E+03  0.00000000000E+00 0. -1.
         -5    1    3    3    0  503 -0.30022648541E+02 -0.83816852810E+01  0.44293732648E+02  0.54365768876E+02  0.47000000000E+01 0.  1.
         13    1    4    4    0    0 -0.32835438573E+02  0.11917045904E+01 -0.14189598595E+02  0.35790094920E+02  0.00000000000E+00 0. -1.
        -14    1    4    4    0    0  0.73118860773E+01 -0.51165157533E+02 -0.10465763787E+03  0.11672428277E+03  0.00000000000E+00 0.  1.
</event>
<event>
12    1  0.8407180E-002  0.1813957E+03  0.7818608E-02  0.1166508E+00
         21   -1    0    0  501  502  0.00000000000E+00  0.00000000000E+00  0.88045854571E+03  0.88045854571E+03  0.00000000000E+00 0. -1.
         21   -1    0    0  502  503 -0.00000000000E+00 -0.00000000000E+00 -0.13787661329E+03  0.13787661329E+03  0.00000000000E+00 0. -1.
         -6    2    1    2    0  503 -0.29752681062E+02 -0.47488766563E+02 -0.63574453368E+02  0.19202255367E+03  0.17230944552E+03 0.  0.
        -24    2    3    3    0    0 -0.78550778429E+02 -0.26666091009E+01 -0.21553626378E+02  0.11342153582E+03  0.78883143833E+02 0.  0.
          6    2    1    2  501    0  0.29752681062E+02  0.47488766563E+02  0.80615638578E+03  0.82631260533E+03  0.17252245771E+03 0.  0.
         24    2    5    5    0    0  0.64920981259E+02  0.73486213831E+02  0.44498880378E+03  0.46247639370E+03  0.79084902559E+02 0.  0.
          5    1    5    5  501    0 -0.35168300198E+02 -0.25997447268E+02  0.36116758200E+03  0.36383621163E+03  0.47000000000E+01 0. -1.
        -13    1    6    6    0    0  0.72705331957E+02  0.33180491676E+02  0.34979677944E+03  0.35881025240E+03  0.00000000000E+00 0.  1.
         14    1    6    6    0    0 -0.77843506980E+01  0.40305722155E+02  0.95192024337E+02  0.10366614130E+03  0.00000000000E+00 0. -1.
         -5    1    3    3    0  503  0.48798097368E+02 -0.44822157462E+02 -0.42020826990E+02  0.78601017851E+02  0.47000000000E+01 0.  1.
         11    1    4    4    0    0 -0.60389600192E+02 -0.87964897608E+01 -0.50154207507E+02  0.78991939931E+02  0.00000000000E+00 0. -1.
        -12    1    4    4    0    0 -0.18161178238E+02  0.61298806598E+01  0.28600581129E+02  0.34429595885E+02  0.00000000000E+00 0.  1.
</event>
<event>
12    1  0.8407180E-002  0.2981326E+03  0.7818608E-02  0.1086292E+00
         21   -1    0    0  501  502  0.00000000000E+00  0.00000000000E+00  0.12446542072E+04  0.12446542072E+04  0.00000000000E+00 0.  1.
         21   -1    0    0  502  503 -0.00000000000E+00 -0.00000000000E+00 -0.71539379904E+02  0.71539379904E+02  0.00000000000E+00 0. -1.
         -6    2    1    2    0  503  0.22807315714E+03 -0.80552920656E+02  0.54185215839E+03  0.61845520130E+03  0.17428980586E+03 0.  0.
        -24    2    3    3    0    0  0.63198637213E+02  0.12460245182E+02  0.12973242187E+03  0.16491377698E+03  0.78846224377E+02 0.  0.
          6    2    1    2  501    0 -0.22807315714E+03  0.80552920656E+02  0.63126266894E+03  0.69773838584E+03  0.17274304572E+03 0.  0.
         24    2    5    5    0    0 -0.23225057916E+03  0.37162828302E+02  0.47923239949E+03  0.53951245940E+03  0.78029441886E+02 0.  0.
          5    1    5    5  501    0  0.41774220172E+01  0.43390092354E+02  0.15203026945E+03  0.15822592644E+03  0.47000000000E+01 0. -1.
        -11    1    6    6    0    0 -0.14302718063E+03  0.26936988066E+02  0.37309885669E+03  0.40048112638E+03  0.00000000000E+00 0.  1.
         12    1    6    6    0    0 -0.89223398528E+02  0.10225840236E+02  0.10613354280E+03  0.13903133302E+03  0.00000000000E+00 0. -1.
         -5    1    3    3    0  503  0.16487451993E+03 -0.93013165839E+02  0.41211973652E+03  0.45354142432E+03  0.47000000000E+01 0.  1.
         11    1    4    4    0    0 -0.17923859160E+02 -0.54215968199E+01  0.22678911370E+02  0.29410737158E+02  0.00000000000E+00 0. -1.
        -12    1    4    4    0    0  0.81122496373E+02  0.17881842002E+02  0.10705351050E+03  0.13550303982E+03  0.00000000000E+00 0.  1.
</event>
<event>
12    1  0.8407180E-002  0.4051482E+03  0.7818608E-02  0.1042027E+00
         21   -1    0    0  503  502  0.00000000000E+00  0.00000000000E+00  0.24201861449E+03  0.24201861449E+03  0.00000000000E+00 0.  1.
         21   -1    0    0  501  503 -0.00000000000E+00 -0.00000000000E+00 -0.11206449796E+04  0.11206449796E+04  0.00000000000E+00 0. -1.
          6    2    1    2  501    0 -0.53495357979E+02 -0.36298761500E+03 -0.86749352053E+03  0.95736241661E+03  0.17139435991E+03 0.  0.
         24    2    3    3    0    0 -0.99696772070E+02 -0.22261928994E+03 -0.53242244864E+03  0.59112130674E+03  0.80323974301E+02 0.  0.
         -6    2    1    2    0  502  0.53495357979E+02  0.36298761500E+03 -0.11132844558E+02  0.40530117746E+03  0.17182357887E+03 0.  0.
        -24    2    5    5    0    0  0.30747482125E+02  0.85553839996E+02 -0.38237166835E+02  0.12558042447E+03  0.77739918238E+02 0.  0.
          5    1    3    3  501    0  0.46201414090E+02 -0.14036832506E+03 -0.33507107189E+03  0.36624110987E+03  0.47000000000E+01 0. -1.
        -13    1    4    4    0    0 -0.25915013136E+02 -0.14857318751E+02 -0.29444425088E+02  0.41944034082E+02  0.00000000000E+00 0.  1.
         14    1    4    4    0    0 -0.73781758934E+02 -0.20776197118E+03 -0.50297802356E+03  0.54917727266E+03  0.00000000000E+00 0. -1.
         -5    1    5    5    0  502  0.22747875854E+02  0.27743377500E+03  0.27104322277E+02  0.27972075299E+03  0.47000000000E+01 0.  1.
         11    1    6    6    0    0 -0.23184089959E+02  0.76458988202E+01 -0.35096639189E+01  0.24663323718E+02  0.00000000000E+00 0. -1.
        -12    1    6    6    0    0  0.53931572084E+02  0.77907941176E+02 -0.34727502916E+02  0.10091710075E+03  0.00000000000E+00 0.  1.
</event>
<event>
12    1  0.8407180E-002  0.2025075E+03  0.7818608E-02  0.1147863E+00
         21   -1    0    0  501  502  0.00000000000E+00  0.00000000000E+00  0.66579833829E+03  0.66579833829E+03  0.00000000000E+00 0. -1.
         21   -1    0    0  502  503 -0.00000000000E+00 -0.00000000000E+00 -0.88878814897E+02  0.88878814897E+02  0.00000000000E+00 0.  1.
         -6    2    1    2    0  503 -0.80990371031E+01 -0.10537236236E+03  0.78677705918E+02  0.21725443232E+03  0.17274367659E+03 0.  0.
        -24    2    3    3    0    0 -0.22091452707E+02 -0.12136003346E+03  0.10889365249E+02  0.14605933100E+03  0.77449724923E+02 0.  0.
          6    2    1    2  501    0  0.80990371031E+01  0.10537236236E+03  0.49824181747E+03  0.53742272086E+03  0.17149152478E+03 0.  0.
         24    2    5    5    0    0 -0.18413485363E+02  0.76015953633E+02  0.48154233247E+03  0.49422925631E+03  0.79133167392E+02 0.  0.
          5    1    5    5  501    0  0.26512522466E+02  0.29356408729E+02  0.16699485002E+02  0.43193464556E+02  0.47000000000E+01 0. -1.
        -13    1    6    6    0    0 -0.15055442369E+02  0.35894131510E+02  0.65127757165E+02  0.75872786789E+02  0.00000000000E+00 0.  1.
         14    1    6    6    0    0 -0.33580429944E+01  0.40121822123E+02  0.41641457530E+03  0.41835646952E+03  0.00000000000E+00 0. -1.
         -5    1    3    3    0  503  0.13992415604E+02  0.15987671101E+02  0.67788340669E+02  0.71195101323E+02  0.47000000000E+01 0.  1.
         11    1    4    4    0    0  0.28522404768E+02 -0.43151156849E+02  0.11090109429E+02  0.52901232862E+02  0.00000000000E+00 0. -1.
        -12    1    4    4    0    0 -0.50613857475E+02 -0.78208876613E+02 -0.20074417945E+00  0.93158098134E+02  0.00000000000E+00 0.  1.
</event>
<event>
12    1  0.8407180E-002  0.2005547E+03  0.7818608E-02  0.1150067E+00
         21   -1    0    0  501  502  0.00000000000E+00  0.00000000000E+00  0.80781012069E+02  0.80781012069E+02  0.00000000000E+00 0.  1.
         21   -1    0    0  502  503 -0.00000000000E+00 -0.00000000000E+00 -0.10223664566E+04  0.10223664566E+04  0.00000000000E+00 0. -1.
         -6    2    1    2    0  503 -0.39914052774E+02 -0.93513098268E+02 -0.87142694339E+03  0.89420752052E+03  0.17287087936E+03 0.  0.
        -24    2    3    3    0    0  0.14754069348E+02 -0.14284502076E+02 -0.60964666654E+03  0.61525093361E+03  0.80267824981E+02 0.  0.
          6    2    1    2  501    0  0.39914052774E+02  0.93513098268E+02 -0.70158501165E+02  0.20893994817E+03  0.16851069848E+03 0.  0.
         24    2    5    5    0    0 -0.34313678935E+02  0.72399185172E+02  0.82651686112E+00  0.10398035469E+03  0.66273376668E+02 0.  0.
          5    1    5    5  501    0  0.74227731709E+02  0.21113913096E+02 -0.70985018027E+02  0.10495959349E+03  0.47000000000E+01 0. -1.
        -13    1    6    6    0    0  0.23212917066E+01  0.22348350538E+02  0.28306286389E+02  0.36139770559E+02  0.00000000000E+00 0.  1.
         14    1    6    6    0    0 -0.36634970642E+02  0.50050834634E+02 -0.27479769527E+02  0.67840584127E+02  0.00000000000E+00 0. -1.
         -5    1    3    3    0  503 -0.54668122122E+02 -0.79228596192E+02 -0.26178027685E+03  0.27895658691E+03  0.47000000000E+01 0.  1.
         11    1    4    4    0    0  0.24949535823E+02  0.28043799558E+02 -0.21998033901E+03  0.22315977142E+03  0.00000000000E+00 0. -1.
        -12    1    4    4    0    0 -0.10195466475E+02 -0.42328301634E+02 -0.38966632753E+03  0.39209116219E+03  0.00000000000E+00 0.  1.
</event>
<event>
12    1  0.8407180E-002  0.1812705E+03  0.7818608E-02  0.1166849E+00
         21   -1    0    0  503  502  0.00000000000E+00  0.00000000000E+00  0.99311575101E+03  0.99311575101E+03  0.00000000000E+00 0. -1.
         21   -1    0    0  501  503 -0.00000000000E+00 -0.00000000000E+00 -0.35570442420E+02  0.35570442420E+02  0.00000000000E+00 0. -1.
          6    2    1    2  501    0 -0.44775260044E+02 -0.31136920312E+02  0.33875256821E+03  0.38420346022E+03  0.17287181570E+03 0.  0.
         24    2    3    3    0    0 -0.12545307726E+02 -0.84541554220E+02  0.20044234288E+03  0.23240545899E+03  0.80811542572E+02 0.  0.
         -6    2    1    2    0  502  0.44775260044E+02  0.31136920312E+02  0.61879274038E+03  0.64448273320E+03  0.17169509641E+03 0.  0.
        -24    2    5    5    0    0  0.60584060079E+02  0.48971485939E+02  0.60763141064E+03  0.61774969800E+03  0.79562072697E+02 0.  0.
          5    1    3    3  501    0 -0.32229952319E+02  0.53404633908E+02  0.13831022532E+03  0.15179800123E+03  0.47000000000E+01 0. -1.
        -11    1    4    4    0    0 -0.24397619826E+02 -0.97239138487E+02  0.17071399755E+03  0.19797465208E+03  0.00000000000E+00 0.  1.
         12    1    4    4    0    0  0.11852312100E+02  0.12697584267E+02  0.29728345335E+02  0.34430806913E+02  0.00000000000E+00 0. -1.
         -5    1    5    5    0  502 -0.15808800035E+02 -0.17834565627E+02  0.11161329744E+02  0.26733035206E+02  0.47000000000E+01 0.  1.
         11    1    6    6    0    0 -0.40260523443E+01  0.18532964065E+02  0.34675702665E+03  0.34727527321E+03  0.00000000000E+00 0. -1.
        -12    1    6    6    0    0  0.64610112424E+02  0.30438521874E+02  0.26087438399E+03  0.27047442478E+03  0.00000000000E+00 0.  1.
</event>
<event>
12    1  0.8407180E-002  0.1995499E+03  0.7818608E-02  0.1150355E+00
         21   -1    0    0  501  502  0.00000000000E+00  0.00000000000E+00  0.93533057431E+02  0.93533057431E+02  0.00000000000E+00 0.  1.
         21   -1    0    0  502  503 -0.00000000000E+00 -0.00000000000E+00 -0.46082227690E+03  0.46082227690E+03  0.00000000000E+00 0.  1.
         -6    2    1    2    0  503  0.95603441789E+02 -0.33433373727E+02 -0.26313273987E+03  0.33024082122E+03  0.17193706013E+03 0.  0.
        -24    2    3    3    0    0  0.24376069696E+00  0.18097918336E+02 -0.63075611338E+02  0.10265811643E+03  0.78946577233E+02 0.  0.
          6    2    1    2  501    0 -0.95603441789E+02  0.33433373727E+02 -0.10415647960E+03  0.22411451312E+03  0.17064856925E+03 0.  0.
         24    2    5    5    0    0 -0.82640146797E+02  0.62202689978E+02 -0.17571698792E+02  0.13183919224E+03  0.79838834596E+02 0.  0.
          5    1    5    5  501    0 -0.12963294992E+02 -0.28769316250E+02 -0.86584780808E+02  0.92275320873E+02  0.47000000000E+01 0. -1.
        -11    1    6    6    0    0 -0.43757388304E+02  0.76760582967E+02 -0.18663007102E+02  0.90306167911E+02  0.00000000000E+00 0.  1.
         12    1    6    6    0    0 -0.38882758493E+02 -0.14557892989E+02  0.10913083096E+01  0.41533024332E+02  0.00000000000E+00 0. -1.
         -5    1    3    3    0  503  0.95359681092E+02 -0.51531292063E+02 -0.20005712853E+03  0.22758270478E+03  0.47000000000E+01 0.  1.
         11    1    4    4    0    0 -0.33884510597E+02  0.29237279209E+02 -0.39640757556E+02  0.59786020218E+02  0.00000000000E+00 0. -1.
        -12    1    4    4    0    0  0.34128271294E+02 -0.11139360873E+02 -0.23434853783E+02  0.42872096216E+02  0.00000000000E+00 0.  1.
</event>
<event>
12    1  0.8407180E-002  0.2848338E+03  0.7818608E-02  0.1093276E+00
         21   -1    0    0  501  502  0.00000000000E+00  0.00000000000E+00  0.22411404089E+03  0.22411404089E+03  0.00000000000E+00 0. -1.
         21   -1    0    0  502  503 -0.00000000000E+00 -0.00000000000E+00 -0.37073306289E+03  0.37073306289E+03  0.00000000000E+00 0.  1.
         -6    2    1    2    0  503  0.42607600281E+02 -0.22184155554E+03 -0.22804306399E+02  0.28426643335E+03  0.17105053455E+03 0.  0.
        -24    2    3    3    0    0  0.68379106383E+02 -0.14483585922E+03 -0.69432688854E+02  0.19050959976E+03  0.76288144656E+02 0.  0.
          6    2    1    2  501    0 -0.42607600281E+02  0.22184155554E+03 -0.12381471560E+03  0.31058067043E+03  0.17349693276E+03 0.  0.
         24    2    5    5    0    0 -0.57618695252E+02  0.10311174672E+03 -0.59522671802E+01  0.14254571210E+03  0.79573263085E+02 0.  0.
          5    1    5    5  501    0  0.15011094970E+02  0.11872980882E+03 -0.11786244842E+03  0.16803495833E+03  0.47000000000E+01 0. -1.
        -11    1    6    6    0    0 -0.22227565304E+02  0.23065457691E+02 -0.37675948031E+02  0.49452573825E+02  0.00000000000E+00 0.  1.
         12    1    6    6    0    0 -0.35391129948E+02  0.80046289030E+02  0.31723680851E+02  0.93093138272E+02  0.00000000000E+00 0. -1.
         -5    1    3    3    0  503 -0.25771506102E+02 -0.77005696326E+02  0.46628382455E+02  0.93756833585E+02  0.47000000000E+01 0.  1.
         13    1    4    4    0    0 -0.25905236766E+01 -0.80006478476E+02 -0.20416960635E+02  0.82611135403E+02  0.00000000000E+00 0. -1.
        -14    1    4    4    0    0  0.70969630060E+02 -0.64829380740E+02 -0.49015728219E+02  0.10789846436E+03  0.00000000000E+00 0.  1.
</event>
<event>
12    1  0.8407180E-002  0.1806207E+03  0.7818608E-02  0.1167916E+00
         21   -1    0    0  503  502  0.00000000000E+00  0.00000000000E+00  0.54197182606E+02  0.54197182606E+02  0.00000000000E+00 0. -1.
         21   -1    0    0  501  503 -0.00000000000E+00 -0.00000000000E+00 -0.70990328390E+03  0.70990328390E+03  0.00000000000E+00 0. -1.
          6    2    1    2  501    0  0.53694372921E+02  0.24739535900E+01 -0.17006965832E+03  0.24596285945E+03  0.16936597479E+03 0.  0.
         24    2    3    3    0    0  0.63115268558E+02 -0.66032724117E+01 -0.19267805022E+03  0.21942272585E+03  0.83632297896E+02 0.  0.
         -6    2    1    2    0  502 -0.53694372921E+02 -0.24739535900E+01 -0.48563644298E+03  0.51813760706E+03  0.17243728998E+03 0.  0.
        -24    2    5    5    0    0 -0.44451369585E+02 -0.42159957966E+02 -0.45796482176E+03  0.46865810954E+03  0.78455460988E+02 0.  0.
          5    1    3    3  501    0 -0.94208956372E+01  0.90772260017E+01  0.22608391906E+02  0.26540133592E+02  0.47000000000E+01 0. -1.
        -11    1    4    4    0    0  0.10219837482E+02 -0.39401942231E+02 -0.98021329015E+02  0.10613735945E+03  0.00000000000E+00 0.  1.
         12    1    4    4    0    0  0.52895431076E+02  0.32798669820E+02 -0.94656721210E+02  0.11328536640E+03  0.00000000000E+00 0. -1.
         -5    1    5    5    0  502 -0.92430033364E+01  0.39686004376E+02 -0.27671621223E+02  0.49479497523E+02  0.47000000000E+01 0.  1.
         13    1    6    6    0    0 -0.13715338925E+02  0.19831609028E+02 -0.20456813562E+03  0.20598428423E+03  0.00000000000E+00 0. -1.
        -14    1    6    6    0    0 -0.30736030660E+02 -0.61991566994E+02 -0.25339668614E+03  0.26267382531E+03  0.00000000000E+00 0.  1.
</event>
<event>
12    1  0.8407180E-002  0.1805398E+03  0.7818608E-02  0.1168724E+00
         21   -1    0    0  503  502  0.00000000000E+00  0.00000000000E+00  0.72177867167E+03  0.72177867167E+03  0.00000000000E+00 0. -1.
         21   -1    0    0  501  503 -0.00000000000E+00 -0.00000000000E+00 -0.45474206700E+02  0.45474206700E+02  0.00000000000E+00 0. -1.
          6    2    1    2  501    0 -0.13434225215E+02  0.36456273225E+02  0.26776233285E+03  0.32294162503E+03  0.17630963677E+03 0.  0.
         24    2    3    3    0    0 -0.52749309143E+02  0.26903774328E+01  0.68270408012E+02  0.11677438801E+03  0.78649102601E+02 0.  0.
         -6    2    1    2    0  502  0.13434225215E+02 -0.36456273225E+02  0.40854213212E+03  0.44431125334E+03  0.17028293474E+03 0.  0.
        -24    2    5    5    0    0 -0.39045336973E+02  0.26117547157E+02  0.23092850120E+03  0.24876514795E+03  0.79683508708E+02 0.  0.
          5    1    3    3  501    0  0.39315083927E+02  0.33765895792E+02  0.19949192484E+03  0.20616723702E+03  0.47000000000E+01 0. -1.
        -11    1    4    4    0    0 -0.29048652553E+02 -0.29285396989E+02  0.64809281599E+02  0.76822533630E+02  0.00000000000E+00 0.  1.
         12    1    4    4    0    0 -0.23700656589E+02  0.31975774421E+02  0.34611264135E+01  0.39951854383E+02  0.00000000000E+00 0. -1.
         -5    1    5    5    0  502  0.52479562188E+02 -0.62573820382E+02  0.17761363091E+03  0.19554610538E+03  0.47000000000E+01 0.  1.
         13    1    6    6    0    0 -0.33832123594E+02 -0.23280172579E+02  0.80889470603E+02  0.90717613926E+02  0.00000000000E+00 0. -1.
        -14    1    6    6    0    0 -0.52132133795E+01  0.49397719736E+02  0.15003903060E+03  0.15804753403E+03  0.00000000000E+00 0.  1.
</event>
<event>
12    1  0.8407180E-002  0.1890213E+03  0.7818608E-02  0.1160544E+00
         21   -1    0    0  503  502  0.00000000000E+00  0.00000000000E+00  0.59856308917E+03  0.59856308917E+03  0.00000000000E+00 0.  1.
         21   -1    0    0  501  503 -0.00000000000E+00 -0.00000000000E+00 -0.81353589013E+02  0.81353589013E+02  0.00000000000E+00 0.  1.
          6    2    1    2  501    0  0.29691732720E+02 -0.58722464467E+02  0.74141453971E+02  0.19821309779E+03  0.17164367193E+03 0.  0.
         24    2    3    3    0    0  0.15359665430E+02 -0.98769072895E+02  0.91097008981E+02  0.15218354375E+03  0.69784789599E+02 0.  0.
         -6    2    1    2    0  502 -0.29691732720E+02  0.58722464467E+02  0.44306804619E+03  0.48170358040E+03  0.17719796554E+03 0.  0.
        -24    2    5    5    0    0 -0.41549883470E+02  0.61420657206E+02  0.13389422764E+03  0.17225498037E+03  0.79026730411E+02 0.  0.
          5    1    3    3  501    0  0.14332067291E+02  0.40046608428E+02 -0.16955555011E+02  0.46029554040E+02  0.47000000000E+01 0. -1.
        -11    1    4    4    0    0 -0.26199643476E+02 -0.40344507373E+02  0.23077938720E+02  0.53354398591E+02  0.00000000000E+00 0.  1.
         12    1    4    4    0    0  0.41559308905E+02 -0.58424565522E+02  0.68019070261E+02  0.98829145156E+02  0.00000000000E+00 0. -1.
         -5    1    5    5    0  502  0.11858150749E+02 -0.26981927393E+01  0.30917381854E+03  0.30944860002E+03  0.47000000000E+01 0.  1.
         13    1    6    6    0    0 -0.53091872786E+02  0.71840277320E+02  0.95173896621E+02  0.13052908871E+03  0.00000000000E+00 0. -1.
        -14    1    6    6    0    0  0.11541989317E+02 -0.10419620113E+02  0.38720331023E+02  0.41725891665E+02  0.00000000000E+00 0.  1.
</event>
<event>
12    1  0.8407180E-002  0.1922691E+03  0.7818608E-02  0.1156554E+00
         21   -1    0    0  503  502  0.00000000000E+00  0.00000000000E+00  0.24325980948E+04  0.24325980948E+04  0.00000000000E+00 0. -1.
         21   -1    0    0  501  503 -0.00000000000E+00 -0.00000000000E+00 -0.37286633785E+02  0.37286633785E+02  0.00000000000E+00 0. -1.
          6    2    1    2  501    0 -0.79886156548E+02 -0.27914456370E+02  0.24547177876E+03  0.31146446056E+03  0.17202529216E+03 0.  0.
         24    2    3    3    0    0 -0.31491382464E+02  0.64693526898E+01  0.33893914421E+02  0.91665499777E+02  0.78868287169E+02 0.  0.
         -6    2    1    2    0  502  0.79886156548E+02  0.27914456370E+02  0.21498396823E+04  0.21584202680E+04  0.17264524069E+03 0.  0.
        -24    2    5    5    0    0 -0.60141155173E+00  0.60315513202E+02  0.14145743436E+04  0.14180384170E+04  0.78575159422E+02 0.  0.
          5    1    3    3  501    0 -0.48394774085E+02 -0.34383809059E+02  0.21157786434E+03  0.21979896079E+03  0.47000000000E+01 0. -1.
        -13    1    4    4    0    0  0.18438736857E+02  0.22160020930E+02  0.25836370897E+02  0.38711388578E+02  0.00000000000E+00 0.  1.
         14    1    4    4    0    0 -0.49930119321E+02 -0.15690668241E+02  0.80575435244E+01  0.52954111199E+02  0.00000000000E+00 0. -1.
         -5    1    5    5    0  502  0.80487568100E+02 -0.32401056832E+02  0.73526533869E+03  0.74038185106E+03  0.47000000000E+01 0.  1.
         11    1    6    6    0    0 -0.61736763931E+01  0.34365009922E+02  0.12984518366E+04  0.12989211832E+04  0.00000000000E+00 0. -1.
        -12    1    6    6    0    0  0.55722648414E+01  0.25950503280E+02  0.11612250696E+03  0.11911723376E+03  0.00000000000E+00 0.  1.
</event>
<event>
12    1  0.8407180E-002  0.1906517E+03  0.7818608E-02  0.1159101E+00
         21   -1    0    0  503  502  0.00000000000E+00  0.00000000000E+00  0.51611059453E+03  0.51611059453E+03  0.00000000000E+00 0.  1.
         21   -1    0    0  501  503 -0.00000000000E+00 -0.00000000000E+00 -0.10220815349E+03  0.10220815349E+03  0.00000000000E+00 0.  1.
          6    2    1    2  501    0  0.44378967469E+02  0.68531631906E+02  0.31279888076E+02  0.19320069000E+03  0.17228464208E+03 0.  0.
         24    2    3    3    0    0 -0.26261745599E+02  0.71953640024E+01 -0.16202841246E+02  0.88181893178E+02  0.82292537177E+02 0.  0.
         -6    2    1    2    0  502 -0.44378967469E+02 -0.68531631906E+02  0.38262255296E+03  0.42511805801E+03  0.16631075699E+03 0.  0.
        -24    2    5    5    0    0 -0.92150741422E+02 -0.61762069190E+02  0.28730289546E+03  0.31817930698E+03  0.79930002618E+02 0.  0.
          5    1    3    3  501    0  0.70640713068E+02  0.61336267904E+02  0.47482729321E+02  0.10501879683E+03  0.47000000000E+01 0. -1.
        -13    1    4    4    0    0 -0.36225108924E+02  0.18915844858E+02 -0.41711063918E+02  0.58394182556E+02  0.00000000000E+00 0.  1.
         14    1    4    4    0    0  0.99633633246E+01 -0.11720480855E+02  0.25508222672E+02  0.29787710622E+02  0.00000000000E+00 0. -1.
         -5    1    5    5    0  502  0.47771773952E+02 -0.67695627165E+01  0.95319657500E+02  0.10693875103E+03  0.47000000000E+01 0.  1.
         11    1    6    6    0    0 -0.40257193446E+02 -0.29120898932E+02  0.41169505081E+02  0.64525936858E+02  0.00000000000E+00 0. -1.
        -12    1    6    6    0    0 -0.51893547975E+02 -0.32641170258E+02  0.24613339038E+03  0.25365337013E+03  0.00000000000E+00 0.  1.
</event>
<event>
12    1  0.8407180E-002  0.2089740E+03  0.7818608E-02  0.1142457E+00
         21   -1    0    0  501  502  0.00000000000E+00  0.00000000000E+00  0.17440645665E+04  0.17440645665E+04  0.00000000000E+00 0. -1.
         21   -1    0    0  502  503 -0.00000000000E+00 -0.00000000000E+00 -0.26767116873E+02  0.26767116873E+02  0.00000000000E+00 0.  1.
         -6    2    1    2    0  503 -0.11954340603E+03  0.59163232758E+00  0.63001654776E+03  0.66365061879E+03  0.17093951390E+03 0.  0.
        -24    2    3    3    0    0 -0.12532031727E+03 -0.45719683530E+02  0.40363714961E+03  0.43246274587E+03  0.79407849951E+02 0.  0.
          6    2    1    2  501    0  0.11954340603E+03 -0.59163232758E+00  0.10872809018E+04  0.11071810646E+04  0.17140354213E+03 0.  0.
         24    2    5    5    0    0  0.11584326242E+03 -0.52443365373E+02  0.90342315807E+03  0.91605792826E+03  0.82575767496E+02 0.  0.
          5    1    5    5  501    0  0.37001436089E+01  0.51851733046E+02  0.18385774378E+03  0.19112313630E+03  0.47000000000E+01 0. -1.
        -11    1    6    6    0    0  0.25484089446E+02 -0.55261334574E+02  0.39495206018E+03  0.39961279228E+03  0.00000000000E+00 0.  1.
         12    1    6    6    0    0  0.90359172977E+02  0.28179692001E+01  0.50847109789E+03  0.51644513599E+03  0.00000000000E+00 0. -1.
         -5    1    3    3    0  503  0.57769112399E+01  0.46311315857E+02  0.22637939815E+03  0.23118787292E+03  0.47000000000E+01 0.  1.
         11    1    4    4    0    0 -0.19345033193E+02 -0.22863040633E+02  0.19552957674E+03  0.19780991966E+03  0.00000000000E+00 0. -1.
        -12    1    4    4    0    0 -0.10597528408E+03 -0.22856642897E+02  0.20810757287E+03  0.23465282620E+03  0.00000000000E+00 0.  1.
</event>
<event>
12    1  0.8407180E-002  0.1958009E+03  0.7818608E-02  0.1154771E+00
         21   -1    0    0  501  502  0.00000000000E+00  0.00000000000E+00  0.19944740591E+03  0.19944740591E+03  0.00000000000E+00 0.  1.
         21   -1    0    0  502  503 -0.00000000000E+00 -0.00000000000E+00 -0.32046840743E+03  0.32046840743E+03  0.00000000000E+00 0.  1.
         -6    2    1    2    0  503 -0.78503374403E+02 -0.12315662066E+02 -0.22837517616E+03  0.29661575616E+03  0.17178833019E+03 0.  0.
        -24    2    3    3    0    0 -0.11546919153E+03  0.14237785654E+02 -0.18032263346E+03  0.23026295606E+03  0.83480105781E+02 0.  0.
          6    2    1    2  501    0  0.78503374403E+02  0.12315662066E+02  0.10735417464E+03  0.22330005719E+03  0.17895122633E+03 0.  0.
         24    2    5    5    0    0  0.52069125343E+01  0.38298461233E+02  0.11505011342E+03  0.14501343861E+03  0.79362993328E+02 0.  0.
          5    1    5    5  501    0  0.73296461869E+02 -0.25982799167E+02 -0.76959387809E+01  0.78286618580E+02  0.47000000000E+01 0. -1.
        -13    1    6    6    0    0  0.18434671855E+02  0.48502979346E+02  0.11719674987E+03  0.12816963101E+03  0.00000000000E+00 0.  1.
         14    1    6    6    0    0 -0.13227759321E+02 -0.10204518113E+02 -0.21466364559E+01  0.16843807605E+02  0.00000000000E+00 0. -1.
         -5    1    3    3    0  503  0.36965817124E+02 -0.26553447720E+02 -0.48052542693E+02  0.66352800097E+02  0.47000000000E+01 0.  1.
         13    1    4    4    0    0 -0.35276598284E+02  0.34830245693E+02 -0.28108164141E+02  0.56988185556E+02  0.00000000000E+00 0. -1.
        -14    1    4    4    0    0 -0.80192593243E+02 -0.20592460039E+02 -0.15221446932E+03  0.17327477050E+03  0.00000000000E+00 0.  1.
</event>
<event>
12    1  0.8407180E-002  0.3649573E+03  0.7818608E-02  0.1056725E+00
         21   -1    0    0  503  502  0.00000000000E+00  0.00000000000E+00  0.30689659537E+03  0.30689659537E+03  0.00000000000E+00 0.  1.
         21   -1    0    0  501  503 -0.00000000000E+00 -0.00000000000E+00 -0.48179890243E+03  0.48179890243E+03  0.00000000000E+00 0. -1.
          6    2    1    2  501    0 -0.68814462050E+01 -0.32102253008E+03 -0.21313129560E+03  0.42263315353E+03  0.17346761709E+03 0.  0.
         24    2    3    3    0    0 -0.57109900664E+02 -0.23941750650E+03 -0.19541963546E+03  0.32507255485E+03  0.83072551525E+02 0.  0.
         -6    2    1    2    0  502  0.68814462050E+01  0.32102253008E+03  0.38228988537E+02  0.36606234427E+03  0.17157320656E+03 0.  0.
        -24    2    5    5    0    0 -0.26700146242E+02  0.17610765199E+03  0.80630338991E+02  0.21131089917E+03  0.80151367055E+02 0.  0.
          5    1    3    3  501    0  0.50228454459E+02 -0.81605023580E+02 -0.17711660136E+02  0.97560598685E+02  0.47000000000E+01 0. -1.
        -11    1    4    4    0    0 -0.68414183003E+02 -0.13718575838E+03 -0.89885697002E+02  0.17770726283E+03  0.00000000000E+00 0.  1.
         12    1    4    4    0    0  0.11304282338E+02 -0.10223174812E+03 -0.10553393846E+03  0.14736529202E+03  0.00000000000E+00 0. -1.
         -5    1    5    5    0  502  0.33581592447E+02  0.14491487809E+03 -0.42401350453E+02  0.15475144511E+03  0.47000000000E+01 0.  1.
         13    1    6    6    0    0 -0.45664473797E+02  0.65982765961E+02  0.14740739334E+02  0.81585899315E+02  0.00000000000E+00 0. -1.
        -14    1    6    6    0    0  0.18964327555E+02  0.11012488603E+03  0.65889599657E+02  0.12972499985E+03  0.00000000000E+00 0.  1.
</event>
<event>
12    1  0.8407180E-002  0.1805781E+03  0.7818608E-02  0.1167312E+00
         21   -1    0    0  503  502  0.00000000000E+00  0.00000000000E+00  0.36795529918E+03  0.36795529918E+03  0.00000000000E+00 0. -1.
         21   -1    0    0  501  503 -0.00000000000E+00 -0.00000000000E+00 -0.11810128149E+04  0.11810128149E+04  0.00000000000E+00 0. -1.
          6    2    1    2  501    0 -0.32163987284E+02  0.46437386802E+02 -0.11514115689E+04  0.11654424901E+04  0.17122103790E+03 0.  0.
         24    2    3    3    0    0  0.67143647486E+01  0.62377717196E+02 -0.39665639498E+03  0.40950394570E+03  0.80131913537E+02 0.  0.
         -6    2    1    2    0  502  0.32163987284E+02 -0.46437386802E+02  0.33835405321E+03  0.38352562393E+03  0.17151526438E+03 0.  0.
        -24    2    5    5    0    0  0.42888659507E+02 -0.39664870904E+02  0.35145124173E+03  0.36469713719E+03  0.77931299626E+02 0.  0.
          5    1    3    3  501    0 -0.38878352033E+02 -0.15940330394E+02 -0.75475517392E+03  0.75593854442E+03  0.47000000000E+01 0. -1.
        -11    1    4    4    0    0  0.11773926741E+01  0.49985290107E+02 -0.39196773567E+03  0.39514379824E+03  0.00000000000E+00 0.  1.
         12    1    4    4    0    0  0.55369720745E+01  0.12392427088E+02 -0.46886593091E+01  0.14360147458E+02  0.00000000000E+00 0. -1.
         -5    1    5    5    0  502 -0.10724672223E+02 -0.67725158984E+01 -0.13097188519E+02  0.18828486741E+02  0.47000000000E+01 0.  1.
         13    1    6    6    0    0  0.35192161200E+02 -0.71204249999E+01  0.30688785411E+03  0.30898113803E+03  0.00000000000E+00 0. -1.
        -14    1    6    6    0    0  0.76964983073E+01 -0.32544445904E+02  0.44563387625E+02  0.55715999156E+02  0.00000000000E+00 0.  1.
</event>
<event>
12    1  0.8407180E-002  0.1933887E+03  0.7818608E-02  0.1156095E+00
         21   -1    0    0  501  502  0.00000000000E+00  0.00000000000E+00  0.22641867973E+03  0.22641867973E+03  0.00000000000E+00 0. -1.
         21   -1    0    0  502  503 -0.00000000000E+00 -0.00000000000E+00 -0.18463983288E+03  0.18463983288E+03  0.00000000000E+00 0. -1.
         -6    2    1    2    0  503  0.74216176498E+02 -0.30334988023E+02  0.91928842606E+02  0.21412640067E+03  0.17598565570E+03 0.  0.
        -24    2    3    3    0    0 -0.20581882896E+01  0.34552664861E+02  0.18272878168E+02  0.89725929141E+02  0.80738599788E+02 0.  0.
          6    2    1    2  501    0 -0.74216176498E+02  0.30334988023E+02 -0.50149995752E+02  0.19693211194E+03  0.17273963727E+03 0.  0.
         24    2    5    5    0    0 -0.99657102261E+01  0.69236482900E+02 -0.58005072850E+02  0.12126678992E+03  0.80299688144E+02 0.  0.
          5    1    5    5  501    0 -0.64250466272E+02 -0.38901494877E+02  0.78550770985E+01  0.75665322017E+02  0.47000000000E+01 0. -1.
        -13    1    6    6    0    0  0.15601871560E+02  0.61506921540E+02 -0.67758085399E+02  0.92831449038E+02  0.00000000000E+00 0.  1.
         14    1    6    6    0    0 -0.25567581786E+02  0.77295613602E+01  0.97530125491E+01  0.28435340881E+02  0.00000000000E+00 0. -1.
         -5    1    3    3    0  503  0.76274364787E+02 -0.64887652884E+02  0.73655964439E+02  0.12440047153E+03  0.47000000000E+01 0.  1.
         13    1    4    4    0    0  0.26798741844E+02  0.16185192822E+02 -0.20959459920E+02  0.37675349916E+02  0.00000000000E+00 0. -1.
        -14    1    4    4    0    0 -0.28856930134E+02  0.18367472039E+02  0.39232338088E+02  0.52050579225E+02  0.00000000000E+00 0.  1.
</event>
<event>
12    1  0.8407180E-002  0.1817176E+03  0.7818608E-02  0.1167874E+00
         21   -1    0    0  503  502  0.00000000000E+00  0.00000000000E+00  0.37369107404E+02  0.37369107404E+02  0.00000000000E+00 0.  1.
         21   -1    0    0  501  503 -0.00000000000E+00 -0.00000000000E+00 -0.85411696883E+03  0.85411696883E+03  0.00000000000E+00 0.  1.
          6    2    1    2  501    0 -0.53737974781E+02  0.11551224138E+02 -0.36814720309E+03  0.40747799669E+03  0.16578526452E+03 0.  0.
         24    2    3    3    0    0 -0.49695644658E+02 -0.35214054595E+02 -0.12029294154E+03  0.15517429736E+03  0.76804843839E+02 0.  0.
         -6    2    1    2    0  502  0.53737974781E+02 -0.11551224138E+02 -0.44860065833E+03  0.48400807954E+03  0.17320528194E+03 0.  0.
        -24    2    5    5    0    0  0.91226646372E+02  0.27884284599E+02 -0.34792294072E+03  0.36947139254E+03  0.79742729362E+02 0.  0.
          5    1    3    3  501    0 -0.40423301231E+01  0.46765278734E+02 -0.24785426155E+03  0.25230369933E+03  0.47000000000E+01 0. -1.
        -13    1    4    4    0    0 -0.43434229531E+02  0.14925226225E+02 -0.71174933806E+02  0.84706350855E+02  0.00000000000E+00 0.  1.
         14    1    4    4    0    0 -0.62614151271E+01 -0.50139280821E+02 -0.49118007733E+02  0.70467946503E+02  0.00000000000E+00 0. -1.
         -5    1    5    5    0  502 -0.37488671591E+02 -0.39435508737E+02 -0.10067771761E+03  0.11453668701E+03  0.47000000000E+01 0.  1.
         11    1    6    6    0    0  0.15341889604E+02  0.35866095061E+02 -0.19146708367E+03  0.19540060000E+03  0.00000000000E+00 0. -1.
        -12    1    6    6    0    0  0.75884756768E+02 -0.79818104621E+01 -0.15645585705E+03  0.17407079254E+03  0.00000000000E+00 0.  1.
</event>
<event>
12    1  0.8407180E-002  0.2275862E+03  0.7818608E-02  0.1128397E+00
         21   -1    0    0  501  502  0.00000000000E+00  0.00000000000E+00  0.11247120765E+03  0.11247120765E+03  0.00000000000E+00 0. -1.
         21   -1    0    0  502  503 -0.00000000000E+00 -0.00000000000E+00 -0.60942901324E+03  0.60942901324E+03  0.00000000000E+00 0. -1.
         -6    2    1    2    0  503  0.13163747593E+03 -0.69695082290E+02 -0.42710619077E+03  0.48383563033E+03  0.17173057217E+03 0.  0.
        -24    2    3    3    0    0  0.15837221918E+03 -0.31457592647E+02 -0.35398636388E+03  0.39697107372E+03  0.78793068304E+02 0.  0.
          6    2    1    2  501    0 -0.13163747593E+03  0.69695082290E+02 -0.69851614821E+02  0.23806459056E+03  0.17207461063E+03 0.  0.
         24    2    5    5    0    0 -0.10098880889E+03 -0.57362877395E+01 -0.84855106462E+02  0.15514036529E+03  0.81464712189E+02 0.  0.
          5    1    5    5  501    0 -0.30648667040E+02  0.75431370030E+02  0.15003491641E+02  0.82924225274E+02  0.47000000000E+01 0. -1.
        -13    1    6    6    0    0 -0.58861295465E+02  0.58108691986E+01 -0.93475154534E+02  0.11061655762E+03  0.00000000000E+00 0.  1.
         14    1    6    6    0    0 -0.42127513424E+02 -0.11547156938E+02  0.86200480724E+01  0.44523807670E+02  0.00000000000E+00 0. -1.
         -5    1    3    3    0  503 -0.26734743248E+02 -0.38237489644E+02 -0.73119826887E+02  0.86864556609E+02  0.47000000000E+01 0.  1.
         11    1    4    4    0    0  0.12974524684E+03 -0.22550085174E+02 -0.33852657211E+03  0.36323900595E+03  0.00000000000E+00 0. -1.
        -12    1    4    4    0    0  0.28626972333E+02 -0.89075074732E+01 -0.15459791776E+02  0.33732067771E+02  0.00000000000E+00 0.  1.
</event>
<event>
12    1  0.8407180E-002  0.2528862E+03  0.7818608E-02  0.1111895E+00
         21   -1    0    0  501  502  0.00000000000E+00  0.00000000000E+00  0.61369921533E+02  0.61369921533E+02  0.00000000000E+00 0.  1.
         21   -1    0    0  502  503 -0.00000000000E+00 -0.00000000000E+00 -0.44038286132E+04  0.44038286132E+04  0.00000000000E+00 0. -1.
         -6    2    1    2    0  503  0.17004331212E+03 -0.69351497541E+02 -0.41223352592E+04  0.41299288343E+04  0.17011710162E+03 0.  0.
        -24    2    3    3    0    0  0.65500068017E+02  0.21012243655E+02 -0.21088830701E+04  0.21117349131E+04  0.85467926092E+02 0.  0.
          6    2    1    2  501    0 -0.17004331212E+03  0.69351497541E+02 -0.22012343242E+03  0.33526970047E+03  0.17385939245E+03 0.  0.
         24    2    5    5    0    0 -0.45609861282E+02  0.64558847446E+02 -0.45262632180E+02  0.12054885229E+03  0.78963381930E+02 0.  0.
          5    1    5    5  501    0 -0.12443345084E+03  0.47926500948E+01 -0.17486080024E+03  0.21472084818E+03  0.47000000000E+01 0. -1.
        -11    1    6    6    0    0 -0.13180777729E+02  0.74069069299E+02 -0.43056027186E+02  0.86682070842E+02  0.00000000000E+00 0.  1.
         12    1    6    6    0    0 -0.32429083553E+02 -0.95102218528E+01 -0.22066049943E+01  0.33866781444E+02  0.00000000000E+00 0. -1.
         -5    1    3    3    0  503  0.10454324411E+03 -0.90363741196E+02 -0.20134521891E+04  0.20181939212E+04  0.47000000000E+01 0.  1.
         13    1    4    4    0    0  0.68090870644E+02 -0.10006568349E+02 -0.17933911018E+04  0.17947111584E+04  0.00000000000E+00 0. -1.
        -14    1    4    4    0    0 -0.25908026263E+01  0.31018812004E+02 -0.31549196834E+03  0.31702375470E+03  0.00000000000E+00 0.  1.
</event>
<event>
12    1  0.8407180E-002  0.2301075E+03  0.7818608E-02  0.1128262E+00
         21   -1    0    0  503  502  0.00000000000E+00  0.00000000000E+00  0.61182262622E+02  0.61182262622E+02  0.00000000000E+00 0.  1.
         21   -1    0    0  501  503 -0.00000000000E+00 -0.00000000000E+00 -0.85663744185E+03  0.85663744185E+03  0.00000000000E+00 0. -1.
          6    2    1    2  501    0 -0.15116741515E+03  0.12566454396E+02 -0.32535191501E+03  0.39850132886E+03  0.17303160787E+03 0.  0.
         24    2    3    3    0    0 -0.15398115454E+03 -0.23346114048E+02 -0.18948843735E+03  0.25786490305E+03  0.79581425864E+02 0.  0.
         -6    2    1    2    0  502  0.15116741515E+03 -0.12566454396E+02 -0.47010326422E+03  0.51931837561E+03  0.16026538316E+03 0.  0.
        -24    2    5    5    0    0  0.15766340282E+03  0.16467261646E+02 -0.44839030111E+03  0.48218756240E+03  0.79511407397E+02 0.  0.
          5    1    3    3  501    0  0.28137393939E+01  0.35912568444E+02 -0.13586347766E+03  0.14063642580E+03  0.47000000000E+01 0. -1.
        -11    1    4    4    0    0 -0.49697838090E+02 -0.14184302752E+02 -0.12411195646E+03  0.13444272867E+03  0.00000000000E+00 0.  1.
         12    1    4    4    0    0 -0.10428331645E+03 -0.91618112955E+01 -0.65376480889E+02  0.12342217438E+03  0.00000000000E+00 0. -1.
         -5    1    5    5    0  502 -0.64959876689E+01 -0.29033716042E+02 -0.21712963106E+02  0.37130813213E+02  0.47000000000E+01 0.  1.
         11    1    6    6    0    0  0.79620779804E+02 -0.26815059497E+02 -0.16629574776E+03  0.18631369171E+03  0.00000000000E+00 0. -1.
        -12    1    6    6    0    0  0.78042623013E+02  0.43282321143E+02 -0.28209455335E+03  0.29587387069E+03  0.00000000000E+00 0.  1.
</event>
<event>
12    1  0.8407180E-002  0.2058802E+03  0.7818608E-02  0.1144954E+00
         21   -1    0    0  501  502  0.00000000000E+00  0.00000000000E+00  0.13363386611E+04  0.13363386611E+04  0.00000000000E+00 0. -1.
         21   -1    0    0  502  503 -0.00000000000E+00 -0.00000000000E+00 -0.55909145761E+02  0.55909145761E+02  0.00000000000E+00 0. -1.
         -6    2    1    2    0  503  0.61294594574E+02 -0.94413217335E+02  0.18208072952E+03  0.27484552004E+03  0.17238266993E+03 0.  0.
        -24    2    3    3    0    0  0.16296129016E+02  0.14453675774E+02  0.48818132628E+02  0.96918928301E+02  0.80843033253E+02 0.  0.
          6    2    1    2  501    0 -0.61294594574E+02  0.94413217335E+02  0.10983487859E+04  0.11174022869E+04  0.17189221144E+03 0.  0.
         24    2    5    5    0    0 -0.10307195544E+03  0.73031871045E+02  0.72256239991E+03  0.73866754101E+03  0.87039256618E+02 0.  0.
          5    1    5    5  501    0  0.41777360867E+02  0.21381346290E+02  0.37578638595E+03  0.37873474585E+03  0.47000000000E+01 0. -1.
        -13    1    6    6    0    0 -0.45224173567E+02 -0.33847384853E+01  0.11547364237E+03  0.12405984206E+03  0.00000000000E+00 0.  1.
         14    1    6    6    0    0 -0.57847781873E+02  0.76416609530E+02  0.60708875754E+03  0.61460769896E+03  0.00000000000E+00 0. -1.
         -5    1    3    3    0  503  0.44998465558E+02 -0.10886689311E+03  0.13326259689E+03  0.17792659174E+03  0.47000000000E+01 0.  1.
         13    1    4    4    0    0  0.40771116843E+02  0.22412368869E+02  0.59303812888E+01  0.46901680878E+02  0.00000000000E+00 0. -1.
        -14    1    4    4    0    0 -0.24474987827E+02 -0.79586930947E+01  0.42887751339E+02  0.50017247424E+02  0.00000000000E+00 0.  1.
</event>
<event>
12    1  0.8407180E-002  0.2126278E+03  0.7818608E-02  0.1139696E+00
         21   -1    0    0  501  502  0.00000000000E+00  0.00000000000E+00  0.25408725143E+02  0.25408725143E+02  0.00000000000E+00 0.  1.
         21   -1    0    0  502  503 -0.00000000000E+00 -0.00000000000E+00 -0.19876229243E+04  0.19876229243E+04  0.00000000000E+00 0.  1.
         -6    2    1    2    0  503 -0.93607547167E+02  0.81853965047E+02 -0.64680504998E+03  0.68054832857E+03  0.17125072367E+03 0.  0.
        -24    2    3    3    0    0 -0.10018975918E+03  0.35988511326E+02 -0.26274480782E+03  0.29367454428E+03  0.76659918673E+02 0.  0.
          6    2    1    2  501    0  0.93607547167E+02 -0.81853965047E+02 -0.13154091491E+04  0.13324833208E+04  0.17247645110E+03 0.  0.
         24    2    5    5    0    0  0.60964206884E+02 -0.31728293006E+02 -0.11748435945E+04  0.11796470168E+04  0.81155984041E+02 0.  0.
          5    1    5    5  501    0  0.32643340283E+02 -0.50125672041E+02 -0.14056555464E+03  0.15283630398E+03  0.47000000000E+01 0. -1.
        -11    1    6    6    0    0  0.11596495798E+02 -0.51067485980E+02 -0.50483647971E+03  0.50754530644E+03  0.00000000000E+00 0.  1.
         12    1    6    6    0    0  0.49367711086E+02  0.19339192974E+02 -0.67000711478E+03  0.67210171041E+03  0.00000000000E+00 0. -1.
         -5    1    3    3    0  503  0.65822120152E+01  0.45865453721E+02 -0.38406024217E+03  0.38687378429E+03  0.47000000000E+01 0.  1.
         13    1    4    4    0    0 -0.41265321995E+02 -0.22034920929E+02 -0.73148306609E+02  0.86827641333E+02  0.00000000000E+00 0. -1.
        -14    1    4    4    0    0 -0.58924437187E+02  0.58023432255E+02 -0.18959650121E+03  0.20684690295E+03  0.00000000000E+00 0.  1.
</event>
<event>
12    1  0.8407180E-002  0.2134682E+03  0.7818608E-02  0.1138925E+00
         21   -1    0    0  503  502  0.00000000000E+00  0.00000000000E+00  0.10489783812E+03  0.10489783812E+03  0.00000000000E+00 0. -1.
         21   -1    0    0  501  503 -0.00000000000E+00 -0.00000000000E+00 -0.43362694315E+03  0.43362694315E+03  0.00000000000E+00 0. -1.
          6    2    1    2  501    0  0.12595507534E+03 -0.77144975412E+01 -0.16302734419E+03  0.26860116740E+03  0.17217571751E+03 0.  0.
         24    2    3    3    0    0  0.89841063879E+02  0.10913196380E+02 -0.22418876880E+02  0.12216331750E+03  0.78935134687E+02 0.  0.
         -6    2    1    2    0  502 -0.12595507534E+03  0.77144975412E+01 -0.16570176084E+03  0.26992361387E+03  0.17169009669E+03 0.  0.
        -24    2    5    5    0    0 -0.77911645991E+02  0.33019543817E+02 -0.26239242149E+02  0.12018918032E+03  0.81218386970E+02 0.  0.
          5    1    3    3  501    0  0.36114011464E+02 -0.18627693922E+02 -0.14060846731E+03  0.14643784990E+03  0.47000000000E+01 0. -1.
        -11    1    4    4    0    0  0.18792925234E+02  0.39242781055E+02 -0.58589224264E+01  0.43903267256E+02  0.00000000000E+00 0.  1.
         12    1    4    4    0    0  0.71048138645E+02 -0.28329584674E+02 -0.16559954454E+02  0.78260050244E+02  0.00000000000E+00 0. -1.
         -5    1    5    5    0  502 -0.48043429352E+02 -0.25305046276E+02 -0.13946251869E+03  0.14973443355E+03  0.47000000000E+01 0.  1.
         11    1    6    6    0    0 -0.37497408758E+02  0.47689012760E+02 -0.42662914518E+02  0.74164829109E+02  0.00000000000E+00 0. -1.
        -12    1    6    6    0    0 -0.40414237233E+02 -0.14669468942E+02  0.16423672369E+02  0.46024351209E+02  0.00000000000E+00 0.  1.
</event>
<event>
12    1  0.8407180E-002  0.4877991E+03  0.7818608E-02  0.1017015E+00
         21   -1    0    0  503  502  0.00000000000E+00  0.00000000000E+00  0.41400825747E+03  0.41400825747E+03  0.00000000000E+00 0.  1.
         21   -1    0    0  501  503 -0.00000000000E+00 -0.00000000000E+00 -0.11475958492E+04  0.11475958492E+04  0.00000000000E+00 0. -1.
          6    2    1    2  501    0 -0.21907683667E+03 -0.40050652946E+03 -0.91847019293E+03  0.10399689679E+04  0.17189478897E+03 0.  0.
         24    2    3    3    0    0 -0.11392735029E+03 -0.11429771030E+03 -0.27672567390E+03  0.32945505509E+03  0.76942361569E+02 0.  0.
         -6    2    1    2    0  502  0.21907683667E+03  0.40050652946E+03  0.18488260116E+03  0.52163513877E+03  0.17181822161E+03 0.  0.
        -24    2    5    5    0    0  0.23805637478E+03  0.35778451685E+03  0.15135584981E+03  0.46391576348E+03  0.87342110434E+02 0.  0.
          5    1    3    3  501    0 -0.10514948638E+03 -0.28620881916E+03 -0.64174451904E+03  0.71051391286E+03  0.47000000000E+01 0. -1.
        -11    1    4    4    0    0 -0.82989717312E+02 -0.30476224124E+02 -0.15526332392E+03  0.17866950823E+03  0.00000000000E+00 0.  1.
         12    1    4    4    0    0 -0.30937632983E+02 -0.83821486174E+02 -0.12146234998E+03  0.15078554686E+03  0.00000000000E+00 0. -1.
         -5    1    5    5    0  502 -0.18979538109E+02  0.42722012606E+02  0.33526751347E+02  0.57719375290E+02  0.47000000000E+01 0.  1.
         11    1    6    6    0    0  0.27631667515E+02  0.49002554308E+02  0.53538947307E+02  0.77660660937E+02  0.00000000000E+00 0. -1.
        -12    1    6    6    0    0  0.21042470727E+03  0.30878196255E+03  0.97816902501E+02  0.38625510254E+03  0.00000000000E+00 0.  1.
</event>
<event>
12    1  0.8407180E-002  0.5071547E+03  0.7818608E-02  0.1011954E+00
         21   -1    0    0  501  502  0.00000000000E+00  0.00000000000E+00  0.25837765883E+04  0.25837765883E+04  0.00000000000E+00 0. -1.
         21   -1    0    0  502  503 -0.00000000000E+00 -0.00000000000E+00 -0.99528877250E+02  0.99528877250E+02  0.00000000000E+00 0.  1.
         -6    2    1    2    0  503 -0.35387124103E+03 -0.31903922938E+03  0.12747556180E+04  0.13717884107E+04  0.17259974753E+03 0.  0.
        -24    2    3    3    0    0 -0.26513308470E+03 -0.18724441392E+03  0.70453691395E+03  0.77982912638E+03  0.80032369041E+02 0.  0.
          6    2    1    2  501    0  0.35387124103E+03  0.31903922938E+03  0.12094920930E+04  0.13115170549E+04  0.17376701945E+03 0.  0.
         24    2    5    5    0    0  0.27363964942E+03  0.16236794273E+03  0.71473761014E+03  0.78636270740E+03  0.79211423859E+02 0.  0.
          5    1    5    5  501    0  0.80231591604E+02  0.15667128664E+03  0.49475448287E+03  0.52515434747E+03  0.47000000000E+01 0. -1.
        -13    1    6    6    0    0  0.12177809956E+03  0.90216056929E+02  0.25242469609E+03  0.29442667959E+03  0.00000000000E+00 0.  1.
         14    1    6    6    0    0  0.15186154986E+03  0.72151885806E+02  0.46231291406E+03  0.49193602781E+03  0.00000000000E+00 0. -1.
         -5    1    3    3    0  503 -0.88738156326E+02 -0.13179481545E+03  0.57021870409E+03  0.59195928430E+03  0.47000000000E+01 0.  1.
         13    1    4    4    0    0 -0.45864941462E+02 -0.20082326312E+02  0.18508022630E+03  0.19173310318E+03  0.00000000000E+00 0. -1.
        -14    1    4    4    0    0 -0.21926814324E+03 -0.16716208761E+03  0.51945668764E+03  0.58809602321E+03  0.00000000000E+00 0.  1.
</event>
<event>
12    1  0.8407180E-002  0.2384679E+03  0.7818608E-02  0.1121234E+00
         21   -1    0    0  501  502  0.00000000000E+00  0.00000000000E+00  0.26684646009E+03  0.26684646009E+03  0.00000000000E+00 0.  1.
         21   -1    0    0  502  503 -0.00000000000E+00 -0.00000000000E+00 -0.21170284679E+03  0.21170284679E+03  0.00000000000E+00 0. -1.
         -6    2    1    2    0  503  0.16560448850E+02  0.16360737202E+03  0.42091947235E+02  0.23972447212E+03  0.16927631219E+03 0.  0.
        -24    2    3    3    0    0  0.14902768631E+02  0.87735759217E+01  0.24036062269E+02  0.83761792934E+02  0.78353286586E+02 0.  0.
          6    2    1    2  501    0 -0.16560448850E+02 -0.16360737202E+03  0.13051666070E+02  0.23882483476E+03  0.17270013047E+03 0.  0.
         24    2    5    5    0    0 -0.74109386216E+02 -0.98208624867E+02  0.31166174727E+02  0.14972319760E+03  0.79426508973E+02 0.  0.
          5    1    5    5  501    0  0.57548937366E+02 -0.65398747153E+02 -0.18114508657E+02  0.89101637162E+02  0.47000000000E+01 0. -1.
        -11    1    6    6    0    0 -0.22885373227E+02 -0.92037913900E+02  0.19405740146E+02  0.96805478426E+02  0.00000000000E+00 0.  1.
         12    1    6    6    0    0 -0.51224012989E+02 -0.61707109671E+01  0.11760434581E+02  0.52917719170E+02  0.00000000000E+00 0. -1.
         -5    1    3    3    0  503  0.16576802190E+01  0.15483379610E+03  0.18055884966E+02  0.15596267919E+03  0.47000000000E+01 0.  1.
         13    1    4    4    0    0  0.26513444071E+02 -0.10145366248E+02 -0.19810088280E+02  0.34616914514E+02  0.00000000000E+00 0. -1.
        -14    1    4    4    0    0 -0.11610675440E+02  0.18918942170E+02  0.43846150549E+02  0.49144878420E+02  0.00000000000E+00 0.  1.
</event>
<event>
12    1  0.8407180E-002  0.2059567E+03  0.7818608E-02  0.1145642E+00
         21   -1    0    0  503  502  0.00000000000E+00  0.00000000000E+00  0.17479338025E+03  0.17479338025E+03  0.00000000000E+00 0. -1.
         21   -1    0    0  501  503 -0.00000000000E+00 -0.00000000000E+00 -0.27625007566E+03  0.27625007566E+03  0.00000000000E+00 0. -1.
          6    2    1    2  501    0 -0.94966724360E+02 -0.49657688288E+02  0.32847649915E+02  0.20855966858E+03  0.17587951134E+03 0.  0.
         24    2    3    3    0    0 -0.28741469059E+02 -0.33905117758E+01 -0.45730502871E+02  0.95763160841E+02  0.79004661050E+02 0.  0.
         -6    2    1    2    0  502  0.94966724360E+02  0.49657688288E+02 -0.13430434533E+03  0.24248378733E+03  0.17110279133E+03 0.  0.
        -24    2    5    5    0    0  0.25769871063E+02  0.70850027966E+02 -0.26711279971E+02  0.11273141748E+03  0.79442226132E+02 0.  0.
          5    1    3    3  501    0 -0.66225255301E+02 -0.46267176512E+02  0.78578152786E+02  0.11279650774E+03  0.47000000000E+01 0. -1.
        -13    1    4    4    0    0 -0.29047045269E+02  0.30959108357E+02 -0.54125674349E+01  0.42795947417E+02  0.00000000000E+00 0.  1.
         14    1    4    4    0    0  0.30557621025E+00 -0.34349620132E+02 -0.40317935436E+02  0.52967213424E+02  0.00000000000E+00 0. -1.
         -5    1    5    5    0  502  0.69196853297E+02 -0.21192339678E+02 -0.10759306536E+03  0.12975236985E+03  0.47000000000E+01 0.  1.
         13    1    6    6    0    0 -0.14042689780E+02  0.65896793577E+01 -0.33415925687E+02  0.36840807535E+02  0.00000000000E+00 0. -1.
        -14    1    6    6    0    0  0.39812560843E+02  0.64260348608E+02  0.67046457161E+01  0.75890609948E+02  0.00000000000E+00 0.  1.
</event>
<event>
12    1  0.8407180E-002  0.1956500E+03  0.7818608E-02  0.1153756E+00
         21   -1    0    0  501  502  0.00000000000E+00  0.00000000000E+00  0.68582093616E+03  0.68582093616E+03  0.00000000000E+00 0. -1.
         21   -1    0    0  502  503 -0.00000000000E+00 -0.00000000000E+00 -0.62481096136E+02  0.62481096136E+02  0.00000000000E+00 0. -1.
         -6    2    1    2    0  503 -0.87777407558E+02 -0.10222198628E+02  0.43639656193E+03  0.47769768154E+03  0.17304262209E+03 0.  0.
        -24    2    3    3    0    0 -0.12141587797E+03  0.12095989576E+01  0.40421195524E+03  0.42952952198E+03  0.79781118938E+02 0.  0.
          6    2    1    2  501    0  0.87777407558E+02  0.10222198628E+02  0.18694327810E+03  0.27060435076E+03  0.17455531732E+03 0.  0.
         24    2    5    5    0    0  0.12976561272E+03  0.17212713937E+02  0.15058369201E+03  0.21442618617E+03  0.78535019258E+02 0.  0.
          5    1    5    5  501    0 -0.41988205160E+02 -0.69905153085E+01  0.36359586090E+02  0.56178164597E+02  0.47000000000E+01 0. -1.
        -11    1    6    6    0    0  0.22610814357E+02  0.19149353202E+02  0.81996485581E+02  0.87185837735E+02  0.00000000000E+00 0.  1.
         12    1    6    6    0    0  0.10715479836E+03 -0.19366392648E+01  0.68587206427E+02  0.12724034843E+03  0.00000000000E+00 0. -1.
         -5    1    3    3    0  503  0.33638470410E+02 -0.11431797586E+02  0.32184606690E+02  0.48168159560E+02  0.47000000000E+01 0.  1.
         11    1    4    4    0    0 -0.43499646799E+00  0.22433440203E+02  0.65106344834E+02  0.68864247610E+02  0.00000000000E+00 0. -1.
        -12    1    4    4    0    0 -0.12098088150E+03 -0.21223841245E+02  0.33910561041E+03  0.36066527437E+03  0.00000000000E+00 0.  1.
</event>
<event>
12    1  0.8407180E-002  0.2224494E+03  0.7818608E-02  0.1132123E+00
         21   -1    0    0  501  502  0.00000000000E+00  0.00000000000E+00  0.33562228037E+02  0.33562228037E+02  0.00000000000E+00 0. -1.
         21   -1    0    0  502  503 -0.00000000000E+00 -0.00000000000E+00 -0.15776965857E+04  0.15776965857E+04  0.00000000000E+00 0.  1.
         -6    2    1    2    0  503 -0.10249406684E+03 -0.96264622652E+02 -0.98057096498E+03  0.10054865167E+04  0.17237113037E+03 0.  0.
        -24    2    3    3    0    0 -0.32904040911E+02  0.17513492359E+02 -0.36548359916E+03  0.37608776490E+03  0.80463329125E+02 0.  0.
          6    2    1    2  501    0  0.10249406684E+03  0.96264622652E+02 -0.56356339269E+03  0.60577229705E+03  0.17200135749E+03 0.  0.
         24    2    5    5    0    0  0.83766829145E+02  0.20503941441E+01 -0.39085398708E+03  0.40809159725E+03  0.82163414917E+02 0.  0.
          5    1    5    5  501    0  0.18727237693E+02  0.94214228508E+02 -0.17270940561E+03  0.19768069980E+03  0.47000000000E+01 0. -1.
        -11    1    6    6    0    0 -0.71162751995E+01  0.13118035886E+02 -0.14461256424E+03  0.14538059697E+03  0.00000000000E+00 0.  1.
         12    1    6    6    0    0  0.90883104345E+02 -0.11067641742E+02 -0.24624142283E+03  0.26271100028E+03  0.00000000000E+00 0. -1.
         -5    1    3    3    0  503 -0.69590025927E+02 -0.11377811501E+03 -0.61508736582E+03  0.62939875179E+03  0.47000000000E+01 0.  1.
         13    1    4    4    0    0 -0.22116227905E+01 -0.88666683888E+01 -0.80876129758E+00  0.91740491890E+01  0.00000000000E+00 0. -1.
        -14    1    4    4    0    0 -0.30692418121E+02  0.26380160748E+02 -0.36467483786E+03  0.36691371571E+03  0.00000000000E+00 0.  1.
</event>
<event>
12    1  0.8407180E-002  0.1716426E+03  0.7818608E-02  0.1176886E+00
         21   -1    0    0  501  502  0.00000000000E+00  0.00000000000E+00  0.12617085412E+03  0.12617085412E+03  0.00000000000E+00 0. -1.
         21   -1    0    0  502  503 -0.00000000000E+00 -0.00000000000E+00 -0.25057639682E+03  0.25057639682E+03  0.00000000000E+00 0. -1.
         -6    2    1    2    0  503  0.12370583085E+02  0.14627556838E+02 -0.11712439556E+03  0.20779629454E+03  0.17057015930E+03 0.  0.
        -24    2    3    3    0    0  0.61858802338E+02  0.53679037884E+01 -0.12096914341E+03  0.15708439154E+03  0.78655238795E+02 0.  0.
          6    2    1    2  501    0 -0.12370583085E+02 -0.14627556838E+02 -0.72811471338E+01  0.16895095640E+03  0.16770335066E+03 0.  0.
         24    2    5    5    0    0  0.41190163965E+02 -0.40706387928E+02 -0.27612012709E+02  0.10582969889E+03  0.84165683595E+02 0.  0.
          5    1    5    5  501    0 -0.53560747050E+02  0.26078831089E+02  0.20330865575E+02  0.63121257517E+02  0.47000000000E+01 0. -1.
        -13    1    6    6    0    0  0.38244445199E+02  0.18543671427E+02 -0.15781608612E+02  0.45338333770E+02  0.00000000000E+00 0.  1.
         14    1    6    6    0    0  0.29457187654E+01 -0.59250059355E+02 -0.11830404097E+02  0.60491365117E+02  0.00000000000E+00 0. -1.
         -5    1    3    3    0  503 -0.49488219253E+02  0.92596530501E+01  0.38447478500E+01  0.50711902996E+02  0.47000000000E+01 0.  1.
         13    1    4    4    0    0  0.16748937831E+01 -0.25253037358E+02 -0.10056989358E+02  0.27233512442E+02  0.00000000000E+00 0. -1.
        -14    1    4    4    0    0  0.60183908555E+02  0.30620941146E+02 -0.11091215405E+03  0.12985087910E+03  0.00000000000E+00 0.  1.
</event>
<event>
12    1  0.8407180E-002  0.1980092E+03  0.7818608E-02  0.1151440E+00
         21   -1    0    0  501  502  0.00000000000E+00  0.00000000000E+00  0.13311883614E+03  0.13311883614E+03  0.00000000000E+00 0.  1.
         21   -1    0    0  502  503 -0.00000000000E+00 -0.00000000000E+00 -0.51543121740E+03  0.51543121740E+03  0.00000000000E+00 0. -1.
         -6    2    1    2    0  503 -0.81869341313E+02  0.52037681863E+02 -0.40346645894E+03  0.44941403975E+03  0.17256096387E+03 0.  0.
        -24    2    3    3    0    0  0.52691007991E+01  0.66898008256E+02 -0.16867650005E+03  0.19849103923E+03  0.80273433047E+02 0.  0.
          6    2    1    2  501    0  0.81869341313E+02 -0.52037681863E+02  0.21154077683E+02  0.19913601380E+03  0.17261850309E+03 0.  0.
         24    2    5    5    0    0  0.11437692682E+03 -0.56960143802E+01  0.13545039746E+02  0.14182736943E+03  0.82565178185E+02 0.  0.
          5    1    5    5  501    0 -0.32507585509E+02 -0.46341667482E+02  0.76090379374E+01  0.57308644366E+02  0.47000000000E+01 0. -1.
        -13    1    6    6    0    0  0.24630661925E+02  0.28296208386E+02  0.25143093368E+02  0.45161045825E+02  0.00000000000E+00 0.  1.
         14    1    6    6    0    0  0.89746264897E+02 -0.33992222766E+02 -0.11598053623E+02  0.96666323605E+02  0.00000000000E+00 0. -1.
         -5    1    3    3    0  503 -0.87138442112E+02 -0.14860326394E+02 -0.23478995888E+03  0.25092300051E+03  0.47000000000E+01 0.  1.
         11    1    4    4    0    0 -0.15903638483E+02  0.24491176946E+01 -0.10238282013E+03  0.10363959548E+03  0.00000000000E+00 0. -1.
        -12    1    4    4    0    0  0.21172739282E+02  0.64448890562E+02 -0.66293679928E+02  0.94851443751E+02  0.00000000000E+00 0.  1.
</event>
<event>
12    1  0.8407180E-002  0.2172309E+03  0.7818608E-02  0.1136055E+00
         21   -1    0    0  503  502  0.00000000000E+00  0.00000000000E+00  0.46450038107E+03  0.46450038107E+03  0.00000000000E+00 0.  1.
         21   -1    0    0  501  503 -0.00000000000E+00 -0.00000000000E+00 -0.16276983283E+03  0.16276983283E+03  0.00000000000E+00 0. -1.
          6    2    1    2  501    0 -0.91205778974E+02 -0.95743593427E+02 -0.41869451845E+02  0.22076042237E+03  0.17174627590E+03 0.  0.
         24    2    3    3    0    0 -0.10482912259E+03 -0.31981692545E+02  0.12603196137E+02  0.13566908983E+03  0.78963838447E+02 0.  0.
         -6    2    1    2    0  502  0.91205778974E+02  0.95743593427E+02  0.34360000009E+03  0.40650979153E+03  0.17234825426E+03 0.  0.
        -24    2    5    5    0    0  0.25560869297E+02 -0.16277939037E+02  0.11658926913E+03  0.14494901489E+03  0.80615320534E+02 0.  0.
          5    1    3    3  501    0  0.13623343614E+02 -0.63761900881E+02 -0.54472647982E+02  0.85091332540E+02  0.47000000000E+01 0. -1.
        -11    1    4    4    0    0 -0.82565613232E+01 -0.16985404203E+02  0.30925727369E+02  0.36236381913E+02  0.00000000000E+00 0.  1.
         12    1    4    4    0    0 -0.96572561265E+02 -0.14996288342E+02 -0.18322531233E+02  0.99432707919E+02  0.00000000000E+00 0. -1.
         -5    1    5    5    0  502  0.65644909677E+02  0.11202153246E+03  0.22701073096E+03  0.26156077664E+03  0.47000000000E+01 0.  1.
         11    1    6    6    0    0  0.54562649577E+02 -0.12781885835E+02  0.86042142760E+02  0.10268256748E+03  0.00000000000E+00 0. -1.
        -12    1    6    6    0    0 -0.29001780280E+02 -0.34960532022E+01  0.30547126366E+02  0.42266447410E+02  0.00000000000E+00 0.  1.
</event>
<event>
12    1  0.8407180E-002  0.2190142E+03  0.7818608E-02  0.1134787E+00
         21   -1    0    0  503  502  0.00000000000E+00  0.00000000000E+00  0.40535669029E+03  0.40535669029E+03  0.00000000000E+00 0. -1.
         21   -1    0    0  501  503 -0.00000000000E+00 -0.00000000000E+00 -0.12364264439E+03  0.12364264439E+03  0.00000000000E+00 0.  1.
          6    2    1    2  501    0 -0.62946797172E+02  0.11844810437E+03  0.83893115166E+02  0.23453204131E+03  0.17313281297E+03 0.  0.
         24    2    3    3    0    0 -0.74577581058E+02  0.10100937235E+02  0.30213679138E+02  0.11296742634E+03  0.78644316246E+02 0.  0.
         -6    2    1    2    0  502  0.62946797172E+02 -0.11844810437E+03  0.19782093073E+03  0.29446729337E+03  0.17200469041E+03 0.  0.
        -24    2    5    5    0    0 -0.29172070924E+02 -0.60491470754E+02  0.64343752405E+02  0.12217944013E+03  0.79230482518E+02 0.  0.
          5    1    3    3  501    0  0.11630783886E+02  0.10834716714E+03  0.53679436028E+02  0.12156461497E+03  0.47000000000E+01 0. -1.
        -11    1    4    4    0    0 -0.23166805902E+01  0.92915653779E-01 -0.22718392921E+02  0.22836396808E+02  0.00000000000E+00 0.  1.
         12    1    4    4    0    0 -0.72260900468E+02  0.10008021581E+02  0.52932072059E+02  0.90131029534E+02  0.00000000000E+00 0. -1.
         -5    1    5    5    0  502  0.92118868096E+02 -0.57956633619E+02  0.13347717833E+03  0.17228785324E+03  0.47000000000E+01 0.  1.
         13    1    6    6    0    0 -0.32829085943E+02 -0.31809241834E+02  0.77840371286E+02  0.90270150947E+02  0.00000000000E+00 0. -1.
        -14    1    6    6    0    0  0.36570150193E+01 -0.28682228920E+02 -0.13496618882E+02  0.31909289179E+02  0.00000000000E+00 0.  1.
</event>
<event>
12    1  0.8407180E-002  0.2179430E+03  0.7818608E-02  0.1135830E+00
         21   -1    0    0  501  502  0.00000000000E+00  0.00000000000E+00  0.11318507079E+03  0.11318507079E+03  0.00000000000E+00 0.  1.
         21   -1    0    0  502  503 -0.00000000000E+00 -0.00000000000E+00 -0.68668734424E+03  0.68668734424E+03  0.00000000000E+00 0. -1.
         -6    2    1    2    0  503 -0.52464783716E+02 -0.12334742455E+03 -0.53890233419E+03  0.58130447902E+03  0.17184886050E+03 0.  0.
        -24    2    3    3    0    0  0.56755713734E+01  0.25700966030E+00 -0.22966274063E+03  0.24320749105E+03  0.79828761142E+02 0.  0.
          6    2    1    2  501    0  0.52464783716E+02  0.12334742455E+03 -0.34599939265E+02  0.21856793602E+03  0.16913795016E+03 0.  0.
         24    2    5    5    0    0  0.16144766305E+02  0.11945692291E+03 -0.74740602660E+02  0.16409186305E+03  0.82518918582E+02 0.  0.
          5    1    5    5  501    0  0.36320017412E+02  0.38905016376E+01  0.40140663395E+02  0.54476072964E+02  0.47000000000E+01 0. -1.
        -11    1    6    6    0    0  0.20706522310E+02  0.85539230227E+01  0.99118359724E+01  0.24498452147E+02  0.00000000000E+00 0.  1.
         12    1    6    6    0    0 -0.45617560055E+01  0.11090299989E+03 -0.84652438633E+02  0.13959341090E+03  0.00000000000E+00 0. -1.
         -5    1    3    3    0  503 -0.58140355090E+02 -0.12360443421E+03 -0.30923959356E+03  0.33809698796E+03  0.47000000000E+01 0.  1.
         11    1    4    4    0    0  0.48470179124E+01 -0.31083882556E+02 -0.19031004891E+03  0.19289275790E+03  0.00000000000E+00 0. -1.
        -12    1    4    4    0    0  0.82855346096E+00  0.31340892216E+02 -0.39352691726E+02  0.50314733148E+02  0.00000000000E+00 0.  1.
</event>
<event>
12    1  0.8407180E-002  0.2056579E+03  0.7818608E-02  0.1145527E+00
         21   -1    0    0  503  502  0.00000000000E+00  0.00000000000E+00  0.10556110934E+03  0.10556110934E+03  0.00000000000E+00 0. -1.
         21   -1    0    0  501  503 -0.00000000000E+00 -0.00000000000E+00 -0.39621520751E+03  0.39621520751E+03  0.00000000000E+00 0.  1.
          6    2    1    2  501    0 -0.11053659221E+02 -0.11324352291E+03 -0.14754337988E+03  0.25122525706E+03  0.16851944094E+03 0.  0.
         24    2    3    3    0    0 -0.65247504287E+02 -0.47618313105E+02 -0.11046381247E+03  0.15827029310E+03  0.79514094693E+02 0.  0.
         -6    2    1    2    0  502  0.11053659221E+02  0.11324352291E+03 -0.14311071829E+03  0.25055105980E+03  0.17131513948E+03 0.  0.
        -24    2    5    5    0    0 -0.44759074967E+02  0.17441162850E+02 -0.53702902092E+02  0.10804140719E+03  0.80506987404E+02 0.  0.
          5    1    3    3  501    0  0.54193845066E+02 -0.65625209802E+02 -0.37079567408E+02  0.92954963954E+02  0.47000000000E+01 0. -1.
        -13    1    4    4    0    0 -0.42485570993E+02 -0.49322149609E+02 -0.24872127231E+02  0.69687308009E+02  0.00000000000E+00 0.  1.
         14    1    4    4    0    0 -0.22761933294E+02  0.17038365033E+01 -0.85591685237E+02  0.88582985092E+02  0.00000000000E+00 0. -1.
         -5    1    5    5    0  502  0.55812734188E+02  0.95802360057E+02 -0.89407816201E+02  0.14250965261E+03  0.47000000000E+01 0.  1.
         13    1    6    6    0    0 -0.26099716689E+02  0.18473211335E+02  0.16085768867E+02  0.35793947928E+02  0.00000000000E+00 0. -1.
        -14    1    6    6    0    0 -0.18659358278E+02 -0.10320484848E+01 -0.69788670959E+02  0.72247459261E+02  0.00000000000E+00 0.  1.
</event>
<event>
12    1  0.8407180E-002  0.2822285E+03  0.7818608E-02  0.1094558E+00
         21   -1    0    0  501  502  0.00000000000E+00  0.00000000000E+00  0.32316978823E+03  0.32316978823E+03  0.00000000000E+00 0.  1.
         21   -1    0    0  502  503 -0.00000000000E+00 -0.00000000000E+00 -0.25625928174E+03  0.25625928174E+03  0.00000000000E+00 0. -1.
         -6    2    1    2    0  503 -0.19529305566E+03  0.10983664615E+03  0.91510338440E+02  0.29613054244E+03  0.17063320221E+03 0.  0.
        -24    2    3    3    0    0 -0.14302995014E+03  0.66288021363E+02 -0.72974810380E+01  0.17607642918E+03  0.78089610521E+02 0.  0.
          6    2    1    2  501    0  0.19529305566E+03 -0.10983664615E+03 -0.24599831948E+02  0.28329852754E+03  0.17160838425E+03 0.  0.
         24    2    5    5    0    0  0.10452020467E+03 -0.64494817185E+01  0.31009138763E+02  0.13482946049E+03  0.79065464843E+02 0.  0.
          5    1    5    5  501    0  0.90772850987E+02 -0.10338716443E+03 -0.55608970712E+02  0.14846906704E+03  0.47000000000E+01 0. -1.
        -11    1    6    6    0    0  0.10075287511E+03  0.43620920635E+01 -0.98121460959E+00  0.10085203257E+03  0.00000000000E+00 0.  1.
         12    1    6    6    0    0  0.37673295609E+01 -0.10811573782E+02  0.31990353373E+02  0.33977427928E+02  0.00000000000E+00 0. -1.
         -5    1    3    3    0  503 -0.52263105524E+02  0.43548624784E+02  0.98807819478E+02  0.12005411326E+03  0.47000000000E+01 0.  1.
         11    1    4    4    0    0 -0.51399289470E+02  0.60756463704E+02  0.16434602835E+02  0.81260882411E+02  0.00000000000E+00 0. -1.
        -12    1    4    4    0    0 -0.91630660667E+02  0.55315576588E+01 -0.23732083873E+02  0.94815546770E+02  0.00000000000E+00 0.  1.
</event>
<event>
12    1  0.8407180E-002  0.1915305E+03  0.7818608E-02  0.1157214E+00
         21   -1    0    0  501  502  0.00000000000E+00  0.00000000000E+00  0.14051169374E+04  0.14051169374E+04  0.00000000000E+00 0.  1.
         21   -1    0    0  502  503 -0.00000000000E+00 -0.00000000000E+00 -0.26825525196E+02  0.26825525196E+02  0.00000000000E+00 0. -1.
         -6    2    1    2    0  503  0.66480540373E+02  0.52658885307E+02  0.56489526106E+03  0.59630064897E+03  0.17109993439E+03 0.  0.
        -24    2    3    3    0    0 -0.90778988946E+01  0.20263328795E+01  0.38601864937E+03  0.39557281005E+03  0.85912374626E+02 0.  0.
          6    2    1    2  501    0 -0.66480540373E+02 -0.52658885307E+02  0.81339615116E+03  0.83564181364E+03  0.17173037452E+03 0.  0.
         24    2    5    5    0    0  0.28283318034E+02 -0.38997592658E+02  0.48270998878E+03  0.49134216542E+03  0.78021996491E+02 0.  0.
          5    1    5    5  501    0 -0.94763858407E+02 -0.13661292649E+02  0.33068616238E+03  0.34429964823E+03  0.47000000000E+01 0. -1.
        -13    1    6    6    0    0  0.13099881918E+02 -0.50338182968E+02  0.45381974379E+03  0.45679087056E+03  0.00000000000E+00 0.  1.
         14    1    6    6    0    0  0.15183436116E+02  0.11340590310E+02  0.28890244987E+02  0.34551294857E+02  0.00000000000E+00 0. -1.
         -5    1    3    3    0  503  0.75558439268E+02  0.50632552427E+02  0.17887661169E+03  0.20072783892E+03  0.47000000000E+01 0.  1.
         13    1    4    4    0    0 -0.12665133372E+02  0.40197362175E+02  0.12899291200E+03  0.13570337091E+03  0.00000000000E+00 0. -1.
        -14    1    4    4    0    0  0.35872344777E+01 -0.38171029295E+02  0.25702573737E+03  0.25986943914E+03  0.00000000000E+00 0.  1.
</event>
<event>
12    1  0.8407180E-002  0.2079619E+03  0.7818608E-02  0.1143203E+00
         21   -1    0    0  501  502  0.00000000000E+00  0.00000000000E+00  0.17774276577E+03  0.17774276577E+03  0.00000000000E+00 0. -1.
         21   -1    0    0  502  503 -0.00000000000E+00 -0.00000000000E+00 -0.91918079669E+03  0.91918079669E+03  0.00000000000E+00 0. -1.
         -6    2    1    2    0  503 -0.44132943996E+02  0.10831935273E+03 -0.84103030772E+03  0.86634434607E+03  0.17187131391E+03 0.  0.
        -24    2    3    3    0    0  0.30963276447E+02  0.82985000396E+02 -0.61044688255E+03  0.62247536958E+03  0.83576040452E+02 0.  0.
          6    2    1    2  501    0  0.44132943996E+02 -0.10831935273E+03  0.99592276798E+02  0.23057921638E+03  0.17195160513E+03 0.  0.
         24    2    5    5    0    0  0.57450371669E+02 -0.92345828000E+00  0.32753212580E+02  0.10329692173E+03  0.79347861501E+02 0.  0.
          5    1    5    5  501    0 -0.13317427673E+02 -0.10739589445E+03  0.66839064218E+02  0.12728229465E+03  0.47000000000E+01 0. -1.
        -11    1    6    6    0    0  0.69985631634E+02  0.20588847076E+02  0.26602796931E+02  0.77650486565E+02  0.00000000000E+00 0.  1.
         12    1    6    6    0    0 -0.12535259965E+02 -0.21512305356E+02  0.61504156487E+01  0.25646435167E+02  0.00000000000E+00 0. -1.
         -5    1    3    3    0  503 -0.75096220443E+02  0.25334352338E+02 -0.23058342516E+03  0.24386897649E+03  0.47000000000E+01 0.  1.
         13    1    4    4    0    0  0.54096391616E+01  0.25227013343E+02 -0.43912822131E+03  0.43988550914E+03  0.00000000000E+00 0. -1.
        -14    1    4    4    0    0  0.25553637285E+02  0.57757987053E+02 -0.17131866125E+03  0.18258986045E+03  0.00000000000E+00 0.  1.
</event>
<event>
12    1  0.8407180E-002  0.4159679E+03  0.7818608E-02  0.1038429E+00
         21   -1    0    0  503  502  0.00000000000E+00  0.00000000000E+00  0.13451126869E+04  0.13451126869E+04  0.00000000000E+00 0. -1.
         21   -1    0    0  501  503 -0.00000000000E+00 -0.00000000000E+00 -0.14680441457E+03  0.14680441457E+03  0.00000000000E+00 0.  1.
          6    2    1    2  501    0 -0.37032216419E+02 -0.37677686624E+03  0.33590569959E+03  0.53466061450E+03  0.17232858640E+03 0.  0.
         24    2    3    3    0    0 -0.51192451029E+02 -0.14338762047E+03  0.19911399908E+03  0.26372683732E+03  0.82004776372E+02 0.  0.
         -6    2    1    2    0  502  0.37032216419E+02  0.37677686624E+03  0.86240257277E+03  0.95725648700E+03  0.17108358309E+03 0.  0.
        -24    2    5    5    0    0 -0.14678639525E+02  0.15414723563E+03  0.25880535843E+03  0.31181892053E+03  0.79208540834E+02 0.  0.
          5    1    3    3  501    0  0.14160234610E+02 -0.23338924578E+03  0.13679170051E+03  0.27093377718E+03  0.47000000000E+01 0. -1.
        -13    1    4    4    0    0 -0.41997575026E+02 -0.78401263364E+02  0.52966779977E+02  0.10351827948E+03  0.00000000000E+00 0.  1.
         14    1    4    4    0    0 -0.91948760033E+01 -0.64986357103E+02  0.14614721910E+03  0.16020855784E+03  0.00000000000E+00 0. -1.
         -5    1    5    5    0  502  0.51710855944E+02  0.22262963061E+03  0.60359721434E+03  0.64543756647E+03  0.47000000000E+01 0.  1.
         13    1    6    6    0    0 -0.10676395480E+02  0.59378366450E+02  0.17548981250E+03  0.18557060682E+03  0.00000000000E+00 0. -1.
        -14    1    6    6    0    0 -0.40022440450E+01  0.94768869183E+02  0.83315545926E+02  0.12624831372E+03  0.00000000000E+00 0.  1.
</event>
<event>
12    1  0.8407180E-002  0.2588597E+03  0.7818608E-02  0.1107870E+00
         21   -1    0    0  501  502  0.00000000000E+00  0.00000000000E+00  0.47821071321E+03  0.47821071321E+03  0.00000000000E+00 0. -1.
         21   -1    0    0  502  503 -0.00000000000E+00 -0.00000000000E+00 -0.40653954783E+03  0.40653954783E+03  0.00000000000E+00 0.  1.
         -6    2    1    2    0  503  0.89847629791E+01 -0.19309418450E+03 -0.32236697167E+03  0.41343536658E+03  0.17216924191E+03 0.  0.
        -24    2    3    3    0    0 -0.32928611636E+02 -0.19880849730E+03 -0.25998360603E+03  0.33791610645E+03  0.77373816803E+02 0.  0.
          6    2    1    2  501    0 -0.89847629791E+01  0.19309418450E+03  0.39403813704E+03  0.47131489446E+03  0.17177190179E+03 0.  0.
         24    2    5    5    0    0 -0.77520762902E+01  0.11480332567E+03  0.35836764679E+03  0.38514383222E+03  0.81660902295E+02 0.  0.
          5    1    5    5  501    0 -0.12326866888E+01  0.78290858831E+02  0.35670490257E+02  0.86171062243E+02  0.47000000000E+01 0. -1.
        -13    1    6    6    0    0 -0.59372734012E+01 -0.67989049307E+01  0.90642871352E+02  0.91091198536E+02  0.00000000000E+00 0.  1.
         14    1    6    6    0    0 -0.18148028891E+01  0.12160223060E+03  0.26772477543E+03  0.29405263368E+03  0.00000000000E+00 0. -1.
         -5    1    3    3    0  503  0.41913374615E+02  0.57143128050E+01 -0.62383365638E+02  0.75519260131E+02  0.47000000000E+01 0.  1.
         13    1    4    4    0    0 -0.68522912147E+01 -0.26216745865E+02 -0.30069895838E+01  0.27263778993E+02  0.00000000000E+00 0. -1.
        -14    1    4    4    0    0 -0.26076320422E+02 -0.17259175144E+03 -0.25697661645E+03  0.31065232745E+03  0.00000000000E+00 0.  1.
</event>
<event>
12    1  0.8407180E-002  0.1827367E+03  0.7818608E-02  0.1165312E+00
         21   -1    0    0  503  502  0.00000000000E+00  0.00000000000E+00  0.46104232277E+03  0.46104232277E+03  0.00000000000E+00 0. -1.
         21   -1    0    0  501  503 -0.00000000000E+00 -0.00000000000E+00 -0.94898147403E+02  0.94898147403E+02  0.00000000000E+00 0. -1.
          6    2    1    2  501    0 -0.58080411109E+02 -0.56116384213E+01  0.46943258928E+02  0.18813357229E+03  0.17258547686E+03 0.  0.
         24    2    3    3    0    0 -0.73076084696E+02  0.42873775987E+02  0.65909424901E+02  0.13375056862E+03  0.79792778450E+02 0.  0.
         -6    2    1    2    0  502  0.58080411109E+02  0.56116384213E+01  0.31920091644E+03  0.36780689789E+03  0.17317004486E+03 0.  0.
        -24    2    5    5    0    0 -0.24608576953E+02 -0.30105562005E+02  0.19892302087E+03  0.21746711834E+03  0.78801347708E+02 0.  0.
          5    1    3    3  501    0  0.14995673587E+02 -0.48485414408E+02 -0.18966165973E+02  0.54383003672E+02  0.47000000000E+01 0. -1.
        -11    1    4    4    0    0  0.12362931793E+02 -0.72877900409E+01 -0.69541614620E+00  0.14367935475E+02  0.00000000000E+00 0.  1.
         12    1    4    4    0    0 -0.85439016489E+02  0.50161566028E+02  0.66604841047E+02  0.11938263314E+03  0.00000000000E+00 0. -1.
         -5    1    5    5    0  502  0.82688988062E+02  0.35717200426E+02  0.12027789557E+03  0.15033977955E+03  0.47000000000E+01 0.  1.
         13    1    6    6    0    0 -0.26994084473E+02  0.14824000028E+02  0.13990631986E+03  0.14325575001E+03  0.00000000000E+00 0. -1.
        -14    1    6    6    0    0  0.23855075193E+01 -0.44929562033E+02  0.59016701010E+02  0.74211368325E+02  0.00000000000E+00 0.  1.
</event>
<event>
12    1  0.8407180E-002  0.1740446E+03  0.7818608E-02  0.1174067E+00
         21   -1    0    0  501  502  0.00000000000E+00  0.00000000000E+00  0.10797061433E+03  0.10797061433E+03  0.00000000000E+00 0. -1.
         21   -1    0    0  502  503 -0.00000000000E+00 -0.00000000000E+00 -0.19443831610E+04  0.19443831610E+04  0.00000000000E+00 0. -1.
         -6    2    1    2    0  503 -0.12312727991E+02  0.28385408328E+02 -0.18675832219E+04  0.18755399834E+04  0.16978163590E+03 0.  0.
        -24    2    3    3    0    0  0.17308917742E+02  0.44047913073E+02 -0.17643340107E+04  0.17668880365E+04  0.82334773397E+02 0.  0.
          6    2    1    2  501    0  0.12312727991E+02 -0.28385408328E+02  0.31170675223E+02  0.17681379196E+03  0.17127221420E+03 0.  0.
         24    2    5    5    0    0  0.26175487699E+02  0.47805103424E+02  0.12764778473E+02  0.97076490629E+02  0.79312176831E+02 0.  0.
          5    1    5    5  501    0 -0.13862759709E+02 -0.76190511753E+02  0.18405896750E+02  0.79737301328E+02  0.47000000000E+01 0. -1.
        -11    1    6    6    0    0  0.11115212719E+02  0.31850209230E+02 -0.32457351268E+02  0.46813069042E+02  0.00000000000E+00 0.  1.
         12    1    6    6    0    0  0.15060274980E+02  0.15954894194E+02  0.45222129742E+02  0.50263421586E+02  0.00000000000E+00 0. -1.
         -5    1    3    3    0  503 -0.29621645732E+02 -0.15662504744E+02 -0.10324921122E+03  0.10865194691E+03  0.47000000000E+01 0.  1.
         11    1    4    4    0    0 -0.10405897566E+01  0.66180165607E+02 -0.12095768046E+04  0.12113863725E+04  0.00000000000E+00 0. -1.
        -12    1    4    4    0    0  0.18349507499E+02 -0.22132252534E+02 -0.55475720608E+03  0.55550166401E+03  0.00000000000E+00 0.  1.
</event>
<event>
12    1  0.8407180E-002  0.2241368E+03  0.7818608E-02  0.1130954E+00
         21   -1    0    0  503  502  0.00000000000E+00  0.00000000000E+00  0.85875870567E+02  0.85875870567E+02  0.00000000000E+00 0. -1.
         21   -1    0    0  501  503 -0.00000000000E+00 -0.00000000000E+00 -0.93596856273E+03  0.93596856273E+03  0.00000000000E+00 0. -1.
          6    2    1    2  501    0  0.11315144168E+03 -0.88861689212E+02 -0.73828282586E+03  0.77136741653E+03  0.17101611554E+03 0.  0.
         24    2    3    3    0    0  0.74112668115E+01  0.48022908707E+01 -0.32108586399E+03  0.33087982223E+03  0.79418737288E+02 0.  0.
         -6    2    1    2    0  502 -0.11315144168E+03  0.88861689212E+02 -0.11180986631E+03  0.25047701676E+03  0.17186518309E+03 0.  0.
        -24    2    5    5    0    0 -0.17155713723E+02  0.84810816391E+02 -0.98767604302E+02  0.15340086133E+03  0.79306944880E+02 0.  0.
          5    1    3    3  501    0  0.10574017486E+03 -0.93663980083E+02 -0.41719696186E+03  0.44048759430E+03  0.47000000000E+01 0. -1.
        -13    1    4    4    0    0 -0.25595106207E+02 -0.14532755311E+02 -0.58136208793E+02  0.65162329697E+02  0.00000000000E+00 0.  1.
         14    1    4    4    0    0  0.33006373019E+02  0.19335046181E+02 -0.26294965520E+03  0.26571749254E+03  0.00000000000E+00 0. -1.
         -5    1    5    5    0  502 -0.95995727952E+02  0.40508728210E+01 -0.13042262004E+02  0.97076155434E+02  0.47000000000E+01 0.  1.
         13    1    6    6    0    0 -0.48854750064E+02  0.57334630746E+02 -0.60400231650E+02  0.96551719146E+02  0.00000000000E+00 0. -1.
        -14    1    6    6    0    0  0.31699036341E+02  0.27476185646E+02 -0.38367372652E+02  0.56849142182E+02  0.00000000000E+00 0.  1.
</event>
<event>
12    1  0.8407180E-002  0.1853913E+03  0.7818608E-02  0.1162940E+00
         21   -1    0    0  503  502  0.00000000000E+00  0.00000000000E+00  0.42185782915E+03  0.42185782915E+03  0.00000000000E+00 0. -1.
         21   -1    0    0  501  503 -0.00000000000E+00 -0.00000000000E+00 -0.83960821272E+02  0.83960821272E+02  0.00000000000E+00 0. -1.
          6    2    1    2  501    0  0.30400005978E+02 -0.59749170864E+02  0.12188517906E+03  0.22186918010E+03  0.17284621032E+03 0.  0.
         24    2    3    3    0    0 -0.52370198597E+02 -0.33864506900E+02  0.25689669464E+02  0.92267526327E+02  0.62959469254E+02 0.  0.
         -6    2    1    2    0  502 -0.30400005978E+02  0.59749170864E+02  0.21601182882E+03  0.28394947032E+03  0.17167430712E+03 0.  0.
        -24    2    5    5    0    0 -0.71793330151E+02  0.18822120825E+01  0.16182492798E+03  0.19439332912E+03  0.80272249961E+02 0.  0.
          5    1    3    3  501    0  0.82770204575E+02 -0.25884663964E+02  0.96195509600E+02  0.12960165377E+03  0.47000000000E+01 0. -1.
        -11    1    4    4    0    0 -0.22103671375E+02 -0.48807420078E+02  0.23307570114E+02  0.58429268073E+02  0.00000000000E+00 0.  1.
         12    1    4    4    0    0 -0.30266527223E+02  0.14942913178E+02  0.23820993494E+01  0.33838258254E+02  0.00000000000E+00 0. -1.
         -5    1    5    5    0  502  0.41393324173E+02  0.57866958781E+02  0.54186900834E+02  0.89556141200E+02  0.47000000000E+01 0.  1.
         11    1    6    6    0    0 -0.68984272280E+02 -0.51431387378E+01  0.57944493746E+02  0.90237719682E+02  0.00000000000E+00 0. -1.
        -12    1    6    6    0    0 -0.28090578708E+01  0.70253508203E+01  0.10388043424E+03  0.10415560944E+03  0.00000000000E+00 0.  1.
</event>
<event>
12    1  0.8407180E-002  0.1935174E+03  0.7818608E-02  0.1155811E+00
         21   -1    0    0  503  502  0.00000000000E+00  0.00000000000E+00  0.17336720518E+04  0.17336720518E+04  0.00000000000E+00 0. -1.
         21   -1    0    0  501  503 -0.00000000000E+00 -0.00000000000E+00 -0.23574492070E+02  0.23574492070E+02  0.00000000000E+00 0. -1.
          6    2    1    2  501    0  0.68099120285E+02  0.49245776463E+02  0.59002658772E+03  0.62095115762E+03  0.17431674975E+03 0.  0.
         24    2    3    3    0    0  0.13524991809E+02 -0.45281522500E+01  0.47829787218E+03  0.48539538760E+03  0.81464091508E+02 0.  0.
         -6    2    1    2    0  502 -0.68099120285E+02 -0.49245776463E+02  0.11200709720E+04  0.11362953863E+04  0.17188829455E+03 0.  0.
        -24    2    5    5    0    0 -0.95940264207E+02 -0.42155981900E+02  0.10732209980E+04  0.10811373900E+04  0.77929997352E+02 0.  0.
          5    1    3    3  501    0  0.54574128476E+02  0.53773928713E+02  0.11172871554E+03  0.13555577002E+03  0.47000000000E+01 0. -1.
        -13    1    4    4    0    0  0.18195429397E+02  0.36777292833E+02  0.24967189828E+03  0.25302114479E+03  0.00000000000E+00 0.  1.
         14    1    4    4    0    0 -0.46704375879E+01 -0.41305445083E+02  0.22862597390E+03  0.23237424282E+03  0.00000000000E+00 0. -1.
         -5    1    5    5    0  502  0.27841143922E+02 -0.70897945632E+01  0.46849974007E+02  0.55157996213E+02  0.47000000000E+01 0.  1.
         13    1    6    6    0    0 -0.36576177553E+02 -0.55681912991E+02  0.44287636629E+03  0.44785909393E+03  0.00000000000E+00 0. -1.
        -14    1    6    6    0    0 -0.59364086654E+02  0.13525931091E+02  0.63034463171E+03  0.63327829611E+03  0.00000000000E+00 0.  1.
</event>
<event>
12    1  0.8407180E-002  0.3095880E+03  0.7818608E-02  0.1080562E+00
         21   -1    0    0  503  502  0.00000000000E+00  0.00000000000E+00  0.10690218443E+04  0.10690218443E+04  0.00000000000E+00 0.  1.
         21   -1    0    0  501  503 -0.00000000000E+00 -0.00000000000E+00 -0.26514917510E+03  0.26514917510E+03  0.00000000000E+00 0.  1.
          6    2    1    2  501    0  0.15831375758E+03  0.20229800159E+03 -0.14080596915E+03  0.34010445482E+03  0.17279175892E+03 0.  0.
         24    2    3    3    0    0  0.68994968343E+02  0.19292164196E+03 -0.10582183556E+03  0.24360708783E+03  0.78530801396E+02 0.  0.
         -6    2    1    2    0  502 -0.15831375758E+03 -0.20229800159E+03  0.94467863839E+03  0.99406656462E+03  0.17251920990E+03 0.  0.
        -24    2    5    5    0    0 -0.15854635413E+03 -0.14067476914E+03  0.55311470598E+03  0.59765531347E+03  0.79559151985E+02 0.  0.
          5    1    3    3  501    0  0.89318789242E+02  0.93763596291E+01 -0.34984133587E+02  0.96497366981E+02  0.47000000000E+01 0. -1.
        -11    1    4    4    0    0  0.72586603963E+02  0.19191641917E+03 -0.11392234020E+03  0.23468921283E+03  0.00000000000E+00 0.  1.
         12    1    4    4    0    0 -0.35916356202E+01  0.10052227856E+01  0.81005046322E+01  0.89178750033E+01  0.00000000000E+00 0. -1.
         -5    1    5    5    0  502  0.23259654745E+00 -0.61623232450E+02  0.39156393241E+03  0.39641125115E+03  0.47000000000E+01 0.  1.
         11    1    6    6    0    0 -0.70405484458E+02 -0.11452835664E+03  0.33258935029E+03  0.35873298237E+03  0.00000000000E+00 0. -1.
        -12    1    6    6    0    0 -0.88140869675E+02 -0.26146412499E+02  0.22052535569E+03  0.23892233110E+03  0.00000000000E+00 0.  1.
</event>
<event>
12    1  0.8407180E-002  0.2349476E+03  0.7818608E-02  0.1123221E+00
         21   -1    0    0  501  502  0.00000000000E+00  0.00000000000E+00  0.19366449303E+04  0.19366449303E+04  0.00000000000E+00 0.  1.
         21   -1    0    0  502  503 -0.00000000000E+00 -0.00000000000E+00 -0.13535642385E+03  0.13535642385E+03  0.00000000000E+00 0. -1.
         -6    2    1    2    0  503 -0.51546314802E+02  0.15182257755E+03 -0.19847029475E+02  0.23578442137E+03  0.17173605084E+03 0.  0.
        -24    2    3    3    0    0 -0.11602169041E+02  0.25839787762E+02 -0.59302954769E+02  0.97776964524E+02  0.72396059211E+02 0.  0.
          6    2    1    2  501    0  0.51546314802E+02 -0.15182257755E+03  0.18211355359E+04  0.18362169328E+04  0.17161254728E+03 0.  0.
         24    2    5    5    0    0  0.51752679153E+02 -0.15014393235E+03  0.18229023984E+04  0.18309186086E+04  0.63782888429E+02 0.  0.
          5    1    5    5  501    0 -0.20636435036E+00 -0.16786452072E+01 -0.17668625130E+01  0.52983241800E+01  0.47000000000E+01 0. -1.
        -13    1    6    6    0    0  0.19116187169E+02 -0.13103731171E+02  0.12125703385E+03  0.12345203377E+03  0.00000000000E+00 0.  1.
         14    1    6    6    0    0  0.32636491984E+02 -0.13704020117E+03  0.17016453646E+04  0.17074665748E+04  0.00000000000E+00 0. -1.
         -5    1    3    3    0  503 -0.39944145761E+02  0.12598278979E+03  0.39455925294E+02  0.13800745685E+03  0.47000000000E+01 0.  1.
         13    1    4    4    0    0 -0.20457454962E+02 -0.66998605334E+01  0.76216133725E+01  0.22836036983E+02  0.00000000000E+00 0. -1.
        -14    1    4    4    0    0  0.88552859203E+01  0.32539648295E+02 -0.66924568141E+02  0.74940927542E+02  0.00000000000E+00 0.  1.
</event>
<event>
12    1  0.8407180E-002  0.2028365E+03  0.7818608E-02  0.1147643E+00
         21   -1    0    0  503  502  0.00000000000E+00  0.00000000000E+00  0.41069460659E+03  0.41069460659E+03  0.00000000000E+00 0.  1.
         21   -1    0    0  501  503 -0.00000000000E+00 -0.00000000000E+00 -0.12792850167E+03  0.12792850167E+03  0.00000000000E+00 0.  1.
          6    2    1    2  501    0 -0.37875278331E+02  0.93863499572E+02  0.14843692476E+02  0.20337895066E+03  0.17577761263E+03 0.  0.
         24    2    3    3    0    0  0.17827038561E+02  0.30024981816E+02 -0.46312795469E+02  0.98783011565E+02  0.79961900383E+02 0.  0.
         -6    2    1    2    0  502  0.37875278331E+02 -0.93863499572E+02  0.26792241244E+03  0.33524415761E+03  0.17424503684E+03 0.  0.
        -24    2    5    5    0    0 -0.29878546416E+02 -0.64812713621E+02  0.79373673418E+02  0.13274169856E+03  0.78909841735E+02 0.  0.
          5    1    3    3  501    0 -0.55702316893E+02  0.63838517755E+02  0.61156487945E+02  0.10459593909E+03  0.47000000000E+01 0. -1.
        -13    1    4    4    0    0  0.11382914737E+00  0.43430459031E+02 -0.58953778211E+02  0.73224078650E+02  0.00000000000E+00 0.  1.
         14    1    4    4    0    0  0.17713209414E+02 -0.13405477215E+02  0.12640982742E+02  0.25558932916E+02  0.00000000000E+00 0. -1.
         -5    1    5    5    0  502  0.67753824748E+02 -0.29050785950E+02  0.18854873902E+03  0.20250245905E+03  0.47000000000E+01 0.  1.
         11    1    6    6    0    0  0.18068038763E+02 -0.11748678347E+02 -0.50119788843E+01  0.22127028720E+02  0.00000000000E+00 0. -1.
        -12    1    6    6    0    0 -0.47946585180E+02 -0.53064035274E+02  0.84385652302E+02  0.11061466984E+03  0.00000000000E+00 0.  1.
</event>
<event>
12    1  0.8407180E-002  0.2217654E+03  0.7818608E-02  0.1132619E+00
         21   -1    0    0  501  502  0.00000000000E+00  0.00000000000E+00  0.10025416096E+03  0.10025416096E+03  0.00000000000E+00 0. -1.
         21   -1    0    0  502  503 -0.00000000000E+00 -0.00000000000E+00 -0.51206537042E+03  0.51206537042E+03  0.00000000000E+00 0.  1.
         -6    2    1    2    0  503 -0.13760466788E+03  0.23940426791E+02 -0.14247040495E+03  0.26358624753E+03  0.17225476755E+03 0.  0.
        -24    2    3    3    0    0 -0.84273877507E+02 -0.34555917844E+02 -0.27760571281E+02  0.12413578508E+03  0.79641985983E+02 0.  0.
          6    2    1    2  501    0  0.13760466788E+03 -0.23940426791E+02 -0.26934080451E+03  0.34873328385E+03  0.17193674893E+03 0.  0.
         24    2    5    5    0    0  0.14823630075E+03  0.13712706653E+02 -0.25592991508E+03  0.30710718589E+03  0.81563858499E+02 0.  0.
          5    1    5    5  501    0 -0.10631632871E+02 -0.37653133444E+02 -0.13410889435E+02  0.41626097956E+02  0.47000000000E+01 0. -1.
        -11    1    6    6    0    0 -0.21755584903E+01  0.77680259074E+01  0.21386977306E+01  0.83456161681E+01  0.00000000000E+00 0.  1.
         12    1    6    6    0    0  0.15041185924E+03  0.59446807451E+01 -0.25806861281E+03  0.29876156973E+03  0.00000000000E+00 0. -1.
         -5    1    3    3    0  503 -0.53330790369E+02  0.58496344635E+02 -0.11470983367E+03  0.13945046245E+03  0.47000000000E+01 0.  1.
         11    1    4    4    0    0  0.12862794153E+02 -0.90600451288E+01 -0.16953320750E+02  0.23129007234E+02  0.00000000000E+00 0. -1.
        -12    1    4    4    0    0 -0.97136671660E+02 -0.25495872715E+02 -0.10807250531E+02  0.10100677785E+03  0.00000000000E+00 0.  1.
</event>
<event>
12    1  0.8407180E-002  0.2639511E+03  0.7818608E-02  0.1104846E+00
         21   -1    0    0  501  502  0.00000000000E+00  0.00000000000E+00  0.71225371503E+03  0.71225371503E+03  0.00000000000E+00 0. -1.
         21   -1    0    0  502  503 -0.00000000000E+00 -0.00000000000E+00 -0.11750640056E+03  0.11750640056E+03  0.00000000000E+00 0. -1.
         -6    2    1    2    0  503  0.10120075355E+03  0.17258813500E+03  0.12679741016E+03  0.29250106265E+03  0.17161302854E+03 0.  0.
        -24    2    3    3    0    0  0.51011763986E+02  0.21203832287E+02  0.21076303965E+02  0.10109786498E+03  0.82004665396E+02 0.  0.
          6    2    1    2  501    0 -0.10120075355E+03 -0.17258813500E+03  0.46794990431E+03  0.53725905294E+03  0.17216829024E+03 0.  0.
         24    2    5    5    0    0 -0.10204147112E+03 -0.18453426824E+03  0.47246163783E+03  0.52362590786E+03  0.80614726845E+02 0.  0.
          5    1    5    5  501    0  0.84071757536E+00  0.11946133238E+02 -0.45117335193E+01  0.13633145079E+02  0.47000000000E+01 0. -1.
        -13    1    6    6    0    0 -0.56282172170E+02 -0.29310063704E+02  0.14865535626E+03  0.16163284841E+03  0.00000000000E+00 0.  1.
         14    1    6    6    0    0 -0.45759298952E+02 -0.15522420454E+03  0.32380628156E+03  0.36199305946E+03  0.00000000000E+00 0. -1.
         -5    1    3    3    0  503  0.50188989560E+02  0.15138430272E+03  0.10572110619E+03  0.19140319766E+03  0.47000000000E+01 0.  1.
         11    1    4    4    0    0 -0.10136420292E+02  0.29197728561E+02 -0.94064104466E+01  0.32306886680E+02  0.00000000000E+00 0. -1.
        -12    1    4    4    0    0  0.61148184278E+02 -0.79938962739E+01  0.30482714411E+02  0.68790978304E+02  0.00000000000E+00 0.  1.
</event>
<event>
12    1  0.8407180E-002  0.1833235E+03  0.7818608E-02  0.1164972E+00
         21   -1    0    0  503  502  0.00000000000E+00  0.00000000000E+00  0.20784810235E+03  0.20784810235E+03  0.00000000000E+00 0. -1.
         21   -1    0    0  501  503 -0.00000000000E+00 -0.00000000000E+00 -0.53591599233E+03  0.53591599233E+03  0.00000000000E+00 0. -1.
          6    2    1    2  501    0  0.33692700258E+02  0.53074615130E+02 -0.47552156851E+03  0.50963543207E+03  0.17220742923E+03 0.  0.
         24    2    3    3    0    0  0.81798746288E+02  0.20225942610E+02 -0.23651844890E+03  0.26359111058E+03  0.80244459378E+02 0.  0.
         -6    2    1    2    0  502 -0.33692700258E+02 -0.53074615130E+02  0.14745367853E+03  0.23412866260E+03  0.17065031649E+03 0.  0.
        -24    2    5    5    0    0  0.42564624841E+02 -0.46011087021E+02  0.10806281978E+03  0.14788016804E+03  0.79134086617E+02 0.  0.
          5    1    3    3  501    0 -0.48106046030E+02  0.32848672520E+02 -0.23900311962E+03  0.24604432149E+03  0.47000000000E+01 0. -1.
        -11    1    4    4    0    0 -0.27889270343E+01 -0.14635328750E+02 -0.69036724696E+01  0.16420464525E+02  0.00000000000E+00 0.  1.
         12    1    4    4    0    0  0.84587673322E+02  0.34861271360E+02 -0.22961477643E+03  0.24717064606E+03  0.00000000000E+00 0. -1.
         -5    1    5    5    0  502 -0.76257325099E+02 -0.70635281087E+01  0.39390858748E+02  0.86248494558E+02  0.47000000000E+01 0.  1.
         11    1    6    6    0    0  0.48701977421E+02 -0.18448536353E+02  0.10771068114E+03  0.11964038586E+03  0.00000000000E+00 0. -1.
        -12    1    6    6    0    0 -0.61373525796E+01 -0.27562550668E+02  0.35213864491E+00  0.28239782181E+02  0.00000000000E+00 0.  1.
</event>
<event>
12    1  0.8407180E-002  0.2363346E+03  0.7818608E-02  0.1123066E+00
         21   -1    0    0  501  502  0.00000000000E+00  0.00000000000E+00  0.29749903616E+03  0.29749903616E+03  0.00000000000E+00 0. -1.
         21   -1    0    0  502  503 -0.00000000000E+00 -0.00000000000E+00 -0.18755342352E+03  0.18755342352E+03  0.00000000000E+00 0. -1.
         -6    2    1    2    0  503  0.43475812797E+02  0.15675805788E+03  0.87671458854E+02  0.24767054502E+03  0.16489748077E+03 0.  0.
        -24    2    3    3    0    0  0.26350458201E+02  0.11890825458E+02  0.51407498852E+02  0.97281191688E+02  0.77363821910E+02 0.  0.
          6    2    1    2  501    0 -0.43475812797E+02 -0.15675805788E+03  0.22274153793E+02  0.23738191466E+03  0.17143745352E+03 0.  0.
         24    2    5    5    0    0  0.13042107746E+02 -0.10949131597E+03  0.66773566880E+02  0.15118036016E+03  0.78983208437E+02 0.  0.
          5    1    5    5  501    0 -0.56517920542E+02 -0.47266741909E+02 -0.44499413087E+02  0.86201554500E+02  0.47000000000E+01 0. -1.
        -13    1    6    6    0    0 -0.55596315599E+01 -0.95624662318E+02  0.79711787466E+02  0.12461522623E+03  0.00000000000E+00 0.  1.
         14    1    6    6    0    0  0.18601739305E+02 -0.13866653657E+02 -0.12938220586E+02  0.26565133931E+02  0.00000000000E+00 0. -1.
         -5    1    3    3    0  503  0.17125354595E+02  0.14486723243E+03  0.36263960002E+02  0.15038935333E+03  0.47000000000E+01 0.  1.
         13    1    4    4    0    0  0.33555736760E+01  0.38909825284E+02  0.47640440940E+02  0.61602321314E+02  0.00000000000E+00 0. -1.
        -14    1    4    4    0    0  0.22994884525E+02 -0.27018999826E+02  0.37670579126E+01  0.35678870375E+02  0.00000000000E+00 0.  1.
</event>
<event>
12    1  0.8407180E-002  0.1784928E+03  0.7818608E-02  0.1173141E+00
         21   -1    0    0  501  502  0.00000000000E+00  0.00000000000E+00  0.94692771894E+02  0.94692771894E+02  0.00000000000E+00 0.  1.
         21   -1    0    0  502  503 -0.00000000000E+00 -0.00000000000E+00 -0.64049347359E+03  0.64049347359E+03  0.00000000000E+00 0.  1.
         -6    2    1    2    0  503  0.35200800440E+02  0.31884153247E+02 -0.54319369167E+03  0.57176838233E+03  0.17205813196E+03 0.  0.
        -24    2    3    3    0    0  0.50680532316E+02  0.32535005079E+02 -0.54626518624E+03  0.55528900776E+03  0.79455556951E+02 0.  0.
          6    2    1    2  501    0 -0.35200800440E+02 -0.31884153247E+02 -0.26070100220E+01  0.16341786316E+03  0.15634227169E+03 0.  0.
         24    2    5    5    0    0 -0.35268508128E+02  0.73555974767E+01 -0.51225050736E+02  0.10076352170E+03  0.78938640740E+02 0.  0.
          5    1    5    5  501    0  0.67707688243E-01 -0.39239750724E+02  0.48618040714E+02  0.62654341462E+02  0.47000000000E+01 0. -1.
        -11    1    6    6    0    0 -0.26925383946E+02 -0.20504231162E+02  0.80061306883E+01  0.34777836689E+02  0.00000000000E+00 0.  1.
         12    1    6    6    0    0 -0.83431241818E+01  0.27859828639E+02 -0.59231181424E+02  0.65985685006E+02  0.00000000000E+00 0. -1.
         -5    1    3    3    0  503 -0.15479731877E+02 -0.65085183188E+00  0.30714945699E+01  0.16479374562E+02  0.47000000000E+01 0.  1.
         11    1    4    4    0    0  0.21519661228E+02  0.55110739237E+02 -0.40458344829E+03  0.40888636078E+03  0.00000000000E+00 0. -1.
        -12    1    4    4    0    0  0.29160871088E+02 -0.22575734158E+02 -0.14168173795E+03  0.14640264699E+03  0.00000000000E+00 0.  1.
</event>
<event>
12    1  0.8407180E-002  0.3266798E+03  0.7818608E-02  0.1072875E+00
         21   -1    0    0  501  502  0.00000000000E+00  0.00000000000E+00  0.46734777743E+03  0.46734777743E+03  0.00000000000E+00 0. -1.
         21   -1    0    0  502  503 -0.00000000000E+00 -0.00000000000E+00 -0.29151015204E+03  0.29151015204E+03  0.00000000000E+00 0.  1.
         -6    2    1    2    0  503 -0.15076365516E+03  0.23065453514E+03 -0.90685226188E+02  0.33903317238E+03  0.17546648518E+03 0.  0.
        -24    2    3    3    0    0 -0.66611711834E+02  0.19802728631E+03 -0.20585475735E+02  0.22465593712E+03  0.79966255339E+02 0.  0.
          6    2    1    2  501    0  0.15076365516E+03 -0.23065453514E+03  0.26652285158E+03  0.41982475710E+03  0.17113504012E+03 0.  0.
         24    2    5    5    0    0  0.14350230227E+03 -0.11367171301E+03  0.20951020084E+03  0.28940144529E+03  0.79652389676E+02 0.  0.
          5    1    5    5  501    0  0.72613528889E+01 -0.11698282213E+03  0.57012650742E+02  0.13042331181E+03  0.47000000000E+01 0. -1.
        -11    1    6    6    0    0  0.87470543797E+02 -0.97692666075E+02  0.98409784013E+02  0.16394950023E+03  0.00000000000E+00 0.  1.
         12    1    6    6    0    0  0.56031758478E+02 -0.15979046939E+02  0.11110041682E+03  0.12545194505E+03  0.00000000000E+00 0. -1.
         -5    1    3    3    0  503 -0.84151943329E+02  0.32627248834E+02 -0.70099750454E+02  0.11437723526E+03  0.47000000000E+01 0.  1.
         11    1    4    4    0    0 -0.74462348999E+02  0.12529923289E+03  0.83414590019E+01  0.14599355848E+03  0.00000000000E+00 0. -1.
        -12    1    4    4    0    0  0.78506371653E+01  0.72728053424E+02 -0.28926934737E+02  0.78662378631E+02  0.00000000000E+00 0.  1.
</event>
<event>
12    1  0.8407180E-002  0.3429430E+03  0.7818608E-02  0.1065609E+00
         21   -1    0    0  501  502  0.00000000000E+00  0.00000000000E+00  0.98822156286E+03  0.98822156286E+03  0.00000000000E+00 0.  1.
         21   -1    0    0  502  503 -0.00000000000E+00 -0.00000000000E+00 -0.18599244609E+03  0.18599244609E+03  0.00000000000E+00 0. -1.
         -6    2    1    2    0  503  0.13453857317E+03 -0.26338018158E+03  0.48064369336E+02  0.34573688729E+03  0.17249366340E+03 0.  0.
        -24    2    3    3    0    0  0.13314543879E+03 -0.14679017842E+03  0.72511422665E+02  0.22651055598E+03  0.82304685187E+02 0.  0.
          6    2    1    2  501    0 -0.13453857317E+03  0.26338018158E+03  0.75416474743E+03  0.82847712166E+03  0.17360912170E+03 0.  0.
         24    2    5    5    0    0 -0.28427156704E+02  0.10608983327E+03  0.19434554081E+03  0.23735994168E+03  0.80662238491E+02 0.  0.
          5    1    5    5  501    0 -0.10611141646E+03  0.15729034831E+03  0.55981920662E+03  0.59111717999E+03  0.47000000000E+01 0. -1.
        -13    1    6    6    0    0  0.11659969863E+02  0.47611300374E+02  0.13908061572E+03  0.14746595705E+03  0.00000000000E+00 0.  1.
         14    1    6    6    0    0 -0.40087126567E+02  0.58478532900E+02  0.55264925088E+02  0.89893984624E+02  0.00000000000E+00 0. -1.
         -5    1    3    3    0  503  0.13931343775E+01 -0.11659000316E+03 -0.24447053329E+02  0.11922633131E+03  0.47000000000E+01 0.  1.
         11    1    4    4    0    0  0.10086309307E+03 -0.78411759032E+02  0.95485821224E+01  0.12811300839E+03  0.00000000000E+00 0. -1.
        -12    1    4    4    0    0  0.32282345719E+02 -0.68378419384E+02  0.62962840543E+02  0.98397547591E+02  0.00000000000E+00 0.  1.
</event>
<event>
12    1  0.8407180E-002  0.2047081E+03  0.7818608E-02  0.1146572E+00
         21   -1    0    0  503  502  0.00000000000E+00  0.00000000000E+00  0.43548611473E+02  0.43548611473E+02  0.00000000000E+00 0. -1.
         21   -1    0    0  501  503 -0.00000000000E+00 -0.00000000000E+00 -0.10193940251E+04  0.10193940251E+04  0.00000000000E+00 0.  1.
          6    2    1    2  501    0  0.20154880842E+01 -0.11165464980E+03 -0.34873627375E+03  0.40437901348E+03  0.17156507482E+03 0.  0.
         24    2    3    3    0    0  0.26494233842E+02 -0.13085936195E+03 -0.33567753649E+03  0.37031069122E+03  0.81390923890E+02 0.  0.
         -6    2    1    2    0  502 -0.20154880842E+01  0.11165464980E+03 -0.62710913991E+03  0.65856362313E+03  0.16724039386E+03 0.  0.
        -24    2    5    5    0    0  0.25579550977E+02  0.57027778254E+01 -0.18649175141E+03  0.20452281174E+03  0.79772000580E+02 0.  0.
          5    1    3    3  501    0 -0.24478745758E+02  0.19204712153E+02 -0.13058737265E+02  0.34068322261E+02  0.47000000000E+01 0. -1.
        -13    1    4    4    0    0  0.53769741764E+02 -0.61142373286E+02 -0.18086811419E+03  0.19835032057E+03  0.00000000000E+00 0.  1.
         14    1    4    4    0    0 -0.27275507922E+02 -0.69716988663E+02 -0.15480942230E+03  0.17196037065E+03  0.00000000000E+00 0. -1.
         -5    1    5    5    0  502 -0.27595039061E+02  0.10595187197E+03 -0.44061738851E+03  0.45404081139E+03  0.47000000000E+01 0.  1.
         11    1    6    6    0    0 -0.12736794734E+02  0.33777805219E+02 -0.71186772384E+02  0.79816806676E+02  0.00000000000E+00 0. -1.
        -12    1    6    6    0    0  0.38316345711E+02 -0.28075027394E+02 -0.11530497902E+03  0.12470600507E+03  0.00000000000E+00 0.  1.
</event>
<event>
12    1  0.8407180E-002  0.2198473E+03  0.7818608E-02  0.1135453E+00
         21   -1    0    0  501  502  0.00000000000E+00  0.00000000000E+00  0.10409182551E+03  0.10409182551E+03  0.00000000000E+00 0. -1.
         21   -1    0    0  502  503 -0.00000000000E+00 -0.00000000000E+00 -0.75954872347E+03  0.75954872347E+03  0.00000000000E+00 0. -1.
         -6    2    1    2    0  503  0.79922727172E+02  0.11154076135E+03 -0.54754151351E+02  0.22656311778E+03  0.17176683465E+03 0.  0.
        -24    2    3    3    0    0  0.17150996919E+02  0.11055253063E+03 -0.79813358362E+02  0.15880383373E+03  0.79576797551E+02 0.  0.
          6    2    1    2  501    0 -0.79922727172E+02 -0.11154076135E+03 -0.60070274660E+03  0.63707743121E+03  0.16184832348E+03 0.  0.
         24    2    5    5    0    0 -0.10709993700E+03 -0.86204286658E+02 -0.55850822116E+03  0.58065929883E+03  0.79575201327E+02 0.  0.
          5    1    5    5  501    0  0.27177209827E+02 -0.25336474693E+02 -0.42194525441E+02  0.56418132379E+02  0.47000000000E+01 0. -1.
        -13    1    6    6    0    0 -0.15227095836E+02 -0.40824988592E+02 -0.29014699731E+03  0.29340045022E+03  0.00000000000E+00 0.  1.
         14    1    6    6    0    0 -0.91872841162E+02 -0.45379298065E+02 -0.26836122385E+03  0.28725884861E+03  0.00000000000E+00 0. -1.
         -5    1    3    3    0  503  0.62771730253E+02  0.98823071898E+00  0.25059207011E+02  0.67759284050E+02  0.47000000000E+01 0.  1.
         11    1    4    4    0    0  0.47438143449E+02  0.50558793134E+02 -0.32205883649E+02  0.76444672533E+02  0.00000000000E+00 0. -1.
        -12    1    4    4    0    0 -0.30287146530E+02  0.59993737498E+02 -0.47607474712E+02  0.82359161193E+02  0.00000000000E+00 0.  1.
</event>
<event>
12    1  0.8407180E-002  0.1932855E+03  0.7818608E-02  0.1155940E+00
         21   -1    0    0  501  502  0.00000000000E+00  0.00000000000E+00  0.82450197023E+02  0.82450197023E+02  0.00000000000E+00 0.  1.
         21   -1    0    0  502  503 -0.00000000000E+00 -0.00000000000E+00 -0.45696908514E+03  0.45696908514E+03  0.00000000000E+00 0.  1.
         -6    2    1    2    0  503  0.13641551327E+01  0.83588877403E+02 -0.15031055975E+03  0.24339789104E+03  0.17222168170E+03 0.  0.
        -24    2    3    3    0    0 -0.38842566847E+01 -0.21934241131E+02 -0.89241032667E+02  0.12127397238E+03  0.79039332492E+02 0.  0.
          6    2    1    2  501    0 -0.13641551327E+01 -0.83588877403E+02 -0.22420832837E+03  0.29602139112E+03  0.17427084709E+03 0.  0.
         24    2    5    5    0    0  0.47027175412E+02  0.51783157784E+01 -0.11793372325E+03  0.14926405008E+03  0.78313621961E+02 0.  0.
          5    1    5    5  501    0 -0.48391330544E+02 -0.88767193181E+02 -0.10627460512E+03  0.14675734105E+03  0.47000000000E+01 0. -1.
        -13    1    6    6    0    0  0.17122737575E+02 -0.15286453692E+02  0.28795644869E+01  0.23133432520E+02  0.00000000000E+00 0.  1.
         14    1    6    6    0    0  0.29904437837E+02  0.20464769470E+02 -0.12081328773E+03  0.12613061756E+03  0.00000000000E+00 0. -1.
         -5    1    3    3    0  503  0.52484118174E+01  0.10552311853E+03 -0.61069527080E+02  0.12212391866E+03  0.47000000000E+01 0.  1.
         11    1    4    4    0    0 -0.26174918026E+02 -0.35178495792E+02 -0.21693435077E+02  0.48920936472E+02  0.00000000000E+00 0. -1.
        -12    1    4    4    0    0  0.22290661341E+02  0.13244254661E+02 -0.67547597590E+02  0.72353035906E+02  0.00000000000E+00 0.  1.
</event>
<event>
12    1  0.8407180E-002  0.1797078E+03  0.7818608E-02  0.1168474E+00
         21   -1    0    0  501  502  0.00000000000E+00  0.00000000000E+00  0.17140062923E+03  0.17140062923E+03  0.00000000000E+00 0.  1.
         21   -1    0    0  502  503 -0.00000000000E+00 -0.00000000000E+00 -0.20612735206E+03  0.20612735206E+03  0.00000000000E+00 0.  1.
         -6    2    1    2    0  503 -0.37617427312E+02  0.36408351509E+02  0.40438111230E+02  0.18420131974E+03  0.17191348539E+03 0.  0.
        -24    2    3    3    0    0 -0.80101616570E+02 -0.10567700338E+02  0.42732491626E+02  0.12064811396E+03  0.78752500237E+02 0.  0.
          6    2    1    2  501    0  0.37617427312E+02 -0.36408351509E+02 -0.75164834061E+02  0.19332666155E+03  0.17024924930E+03 0.  0.
         24    2    5    5    0    0 -0.32936200076E+02 -0.57188123172E+02 -0.32936871802E+02  0.10838607028E+03  0.79419317547E+02 0.  0.
          5    1    5    5  501    0  0.70553627388E+02  0.20779771663E+02 -0.42227962260E+02  0.84940591266E+02  0.47000000000E+01 0. -1.
        -11    1    6    6    0    0 -0.19451728082E+02 -0.29522136395E+02 -0.58515960777E+02  0.68366979811E+02  0.00000000000E+00 0.  1.
         12    1    6    6    0    0 -0.13484471994E+02 -0.27665986777E+02  0.25579088976E+02  0.40019090471E+02  0.00000000000E+00 0. -1.
         -5    1    3    3    0  503  0.42484189258E+02  0.46976051847E+02 -0.22943803965E+01  0.63553205784E+02  0.47000000000E+01 0.  1.
         13    1    4    4    0    0 -0.71962979035E+02  0.25029381436E+02  0.26270268982E+02  0.80593221297E+02  0.00000000000E+00 0. -1.
        -14    1    4    4    0    0 -0.81386375352E+01 -0.35597081774E+02  0.16462222644E+02  0.40054892661E+02  0.00000000000E+00 0.  1.
</event>
<event>
12    1  0.8407180E-002  0.1798897E+03  0.7818608E-02  0.1168929E+00
         21   -1    0    0  503  502  0.00000000000E+00  0.00000000000E+00  0.14083537735E+03  0.14083537735E+03  0.00000000000E+00 0. -1.
         21   -1    0    0  501  503 -0.00000000000E+00 -0.00000000000E+00 -0.95767377519E+03  0.95767377519E+03  0.00000000000E+00 0. -1.
          6    2    1    2  501    0 -0.19098333935E+01  0.37113132971E+02 -0.88787688011E+03  0.90510085692E+03  0.17175906052E+03 0.  0.
         24    2    3    3    0    0 -0.39864750959E+02  0.74830442229E+02 -0.71455691258E+03  0.72364818450E+03  0.76722357652E+02 0.  0.
         -6    2    1    2    0  502  0.19098333935E+01 -0.37113132971E+02  0.71038482272E+02  0.19340829562E+03  0.17600929166E+03 0.  0.
        -24    2    5    5    0    0 -0.15245874638E+02  0.26295130089E+02  0.91497600654E+02  0.12444749757E+03  0.78686073528E+02 0.  0.
          5    1    3    3  501    0  0.37954917566E+02 -0.37717309257E+02 -0.17331996753E+03  0.18145267242E+03  0.47000000000E+01 0. -1.
        -13    1    4    4    0    0 -0.50072958794E+02  0.29018306985E+02 -0.24460385304E+03  0.25135713291E+03  0.00000000000E+00 0.  1.
         14    1    4    4    0    0  0.10208207835E+02  0.45812135244E+02 -0.46995305954E+03  0.47229105159E+03  0.00000000000E+00 0. -1.
         -5    1    5    5    0  502  0.17155708031E+02 -0.63408263060E+02 -0.20459118382E+02  0.68960798047E+02  0.47000000000E+01 0.  1.
         13    1    6    6    0    0 -0.41628541058E+02  0.81303577382E+01  0.21684144876E+02  0.47636543605E+02  0.00000000000E+00 0. -1.
        -14    1    6    6    0    0  0.26382666421E+02  0.18164772351E+02  0.69813455778E+02  0.76810953970E+02  0.00000000000E+00 0.  1.
</event>
<event>
12    1  0.8407180E-002  0.1998207E+03  0.7818608E-02  0.1150010E+00
         21   -1    0    0  503  502  0.00000000000E+00  0.00000000000E+00  0.91816245747E+02  0.91816245747E+02  0.00000000000E+00 0. -1.
         21   -1    0    0  501  503 -0.00000000000E+00 -0.00000000000E+00 -0.49430728283E+03  0.49430728283E+03  0.00000000000E+00 0.  1.
          6    2    1    2  501    0  0.78645046929E+02  0.65098127600E+02 -0.98324026370E+02  0.22219237244E+03  0.17111115273E+03 0.  0.
         24    2    3    3    0    0  0.76473543260E+02 -0.21606794193E+02 -0.59893900928E+02  0.12721119835E+03  0.79248679753E+02 0.  0.
         -6    2    1    2    0  502 -0.78645046929E+02 -0.65098127600E+02 -0.30416701071E+03  0.36393115613E+03  0.17177166930E+03 0.  0.
        -24    2    5    5    0    0 -0.20794110470E+02 -0.83067192278E+02 -0.26954895954E+03  0.29400178032E+03  0.80298516668E+02 0.  0.
          5    1    3    3  501    0  0.21715036684E+01  0.86704921793E+02 -0.38430125442E+02  0.94981174096E+02  0.47000000000E+01 0. -1.
        -11    1    4    4    0    0  0.32725316102E+02 -0.48842097162E+02 -0.20208592924E+02  0.62168191201E+02  0.00000000000E+00 0.  1.
         12    1    4    4    0    0  0.43748227158E+02  0.27235302970E+02 -0.39685308004E+02  0.65043007147E+02  0.00000000000E+00 0. -1.
         -5    1    5    5    0  502 -0.57850936458E+02  0.17969064678E+02 -0.34618051173E+02  0.69929375812E+02  0.47000000000E+01 0.  1.
         11    1    6    6    0    0 -0.21001188907E+02 -0.11969937317E+02 -0.12326576879E+02  0.27134366262E+02  0.00000000000E+00 0. -1.
        -12    1    6    6    0    0  0.20707843630E+00 -0.71097254961E+02 -0.25722238266E+03  0.26686741406E+03  0.00000000000E+00 0.  1.
</event>
<event>
12    1  0.8407180E-002  0.1789194E+03  0.7818608E-02  0.1168861E+00
         21   -1    0    0  503  502  0.00000000000E+00  0.00000000000E+00  0.47085560491E+02  0.47085560491E+02  0.00000000000E+00 0. -1.
         21   -1    0    0  501  503 -0.00000000000E+00 -0.00000000000E+00 -0.75075333690E+03  0.75075333690E+03  0.00000000000E+00 0. -1.
          6    2    1    2  501    0  0.40513775371E+02  0.48598918537E+02 -0.22912857793E+03  0.29069041205E+03  0.16732540021E+03 0.  0.
         24    2    3    3    0    0  0.19181268265E+01  0.76618851547E+02 -0.21344357509E+03  0.24026373214E+03  0.79337088491E+02 0.  0.
         -6    2    1    2    0  502 -0.40513775371E+02 -0.48598918537E+02 -0.47453919848E+03  0.50714848535E+03  0.16735864010E+03 0.  0.
        -24    2    5    5    0    0  0.39745210248E+01 -0.10243859505E+02 -0.41727012047E+03  0.42497697954E+03  0.79814448750E+02 0.  0.
          5    1    3    3  501    0  0.38595648545E+02 -0.28019933011E+02 -0.15685002835E+02  0.50426679907E+02  0.47000000000E+01 0. -1.
        -13    1    4    4    0    0  0.18451490206E+02  0.21867159346E+02 -0.15813160413E+03  0.16069920465E+03  0.00000000000E+00 0.  1.
         14    1    4    4    0    0 -0.16533363380E+02  0.54751692201E+02 -0.55311970960E+02  0.79564527492E+02  0.00000000000E+00 0. -1.
         -5    1    5    5    0  502 -0.44488296396E+02 -0.38355059032E+02 -0.57269078010E+02  0.82171505801E+02  0.47000000000E+01 0.  1.
         13    1    6    6    0    0  0.22870876357E+02 -0.35471112311E+02 -0.14901836520E+03  0.15487979197E+03  0.00000000000E+00 0. -1.
        -14    1    6    6    0    0 -0.18896355332E+02  0.25227252806E+02 -0.26825175527E+03  0.27009718757E+03  0.00000000000E+00 0.  1.
</event>
<event>
12    1  0.8407180E-002  0.1847733E+03  0.7818608E-02  0.1163520E+00
         21   -1    0    0  501  502  0.00000000000E+00  0.00000000000E+00  0.12120457031E+04  0.12120457031E+04  0.00000000000E+00 0.  1.
         21   -1    0    0  502  503 -0.00000000000E+00 -0.00000000000E+00 -0.33161512930E+02  0.33161512930E+02  0.00000000000E+00 0. -1.
         -6    2    1    2    0  503 -0.36511304234E+02 -0.55436383319E+02  0.83654596773E+03  0.85670900300E+03  0.17243808093E+03 0.  0.
        -24    2    3    3    0    0 -0.55503280948E+02 -0.16719142181E+02  0.25429971364E+03  0.27284899379E+03  0.80112952426E+02 0.  0.
          6    2    1    2  501    0  0.36511304234E+02  0.55436383319E+02  0.34233822247E+03  0.38849821306E+03  0.17125751095E+03 0.  0.
         24    2    5    5    0    0  0.23767241845E+02 -0.25761812126E+02  0.25152580833E+03  0.26592357200E+03  0.78876873300E+02 0.  0.
          5    1    5    5  501    0  0.12744062388E+02  0.81198195445E+02  0.90812414142E+02  0.12257464106E+03  0.47000000000E+01 0. -1.
        -11    1    6    6    0    0  0.20242678912E+02 -0.40116081056E+02  0.66200760720E+02  0.80010041425E+02  0.00000000000E+00 0.  1.
         12    1    6    6    0    0  0.35245629333E+01  0.14354268931E+02  0.18532504761E+03  0.18591353058E+03  0.00000000000E+00 0. -1.
         -5    1    3    3    0  503  0.18991976714E+02 -0.38717241138E+02  0.58224625409E+03  0.58386000920E+03  0.47000000000E+01 0.  1.
         11    1    4    4    0    0 -0.34877260872E+02  0.29580047377E+02  0.15118580946E+03  0.15795110481E+03  0.00000000000E+00 0. -1.
        -12    1    4    4    0    0 -0.20626020076E+02 -0.46299189558E+02  0.10311390418E+03  0.11489788898E+03  0.00000000000E+00 0.  1.
</event>
<event>
12    1  0.8407180E-002  0.2171577E+03  0.7818608E-02  0.1136021E+00
         21   -1    0    0  503  502  0.00000000000E+00  0.00000000000E+00  0.14581265502E+03  0.14581265502E+03  0.00000000000E+00 0. -1.
         21   -1    0    0  501  503 -0.00000000000E+00 -0.00000000000E+00 -0.55027194125E+03  0.55027194125E+03  0.00000000000E+00 0.  1.
          6    2    1    2  501    0 -0.10311159818E+03  0.84955982198E+02 -0.42570422274E+03  0.47789015752E+03  0.17118819120E+03 0.  0.
         24    2    3    3    0    0 -0.10183631327E+03  0.50775621811E+02 -0.42040026421E+03  0.44295957831E+03  0.80796085325E+02 0.  0.
         -6    2    1    2    0  502  0.10311159818E+03 -0.84955982198E+02  0.21244936508E+02  0.21819443875E+03  0.17119563424E+03 0.  0.
        -24    2    5    5    0    0  0.10977055563E+03 -0.72903849316E+02 -0.35793467719E+02  0.15932963451E+03  0.82098806172E+02 0.  0.
          5    1    3    3  501    0 -0.12752849181E+01  0.34180360387E+02 -0.53039585337E+01  0.34930579210E+02  0.47000000000E+01 0. -1.
        -11    1    4    4    0    0 -0.76378678826E+02 -0.67258788261E+01 -0.23063881158E+03  0.24304979208E+03  0.00000000000E+00 0.  1.
         12    1    4    4    0    0 -0.25457634439E+02  0.57501500637E+02 -0.18976145263E+03  0.19990978623E+03  0.00000000000E+00 0. -1.
         -5    1    5    5    0  502 -0.66589574442E+01 -0.12052132882E+02  0.57038404227E+02  0.58864804238E+02  0.47000000000E+01 0.  1.
         13    1    6    6    0    0  0.37430303947E+02  0.17487358218E+01  0.18789670569E+02  0.41918223372E+02  0.00000000000E+00 0. -1.
        -14    1    6    6    0    0  0.72340251680E+02 -0.74652585137E+02 -0.54583138287E+02  0.11741141114E+03  0.00000000000E+00 0.  1.
</event>
<event>
12    1  0.8407180E-002  0.2591043E+03  0.7818608E-02  0.1107865E+00
         21   -1    0    0  501  502  0.00000000000E+00  0.00000000000E+00  0.19078353196E+03  0.19078353196E+03  0.00000000000E+00 0.  1.
         21   -1    0    0  502  503 -0.00000000000E+00 -0.00000000000E+00 -0.37631509634E+03  0.37631509634E+03  0.00000000000E+00 0.  1.
         -6    2    1    2    0  503 -0.17638591069E+03 -0.77806860576E+02 -0.16718579704E+03  0.30734570435E+03  0.17130205548E+03 0.  0.
        -24    2    3    3    0    0 -0.15937187425E+02 -0.51447083663E+02 -0.60795772985E+02  0.11297606204E+03  0.78528136485E+02 0.  0.
          6    2    1    2  501    0  0.17638591069E+03  0.77806860576E+02 -0.18345767338E+02  0.25975292395E+03  0.17311590706E+03 0.  0.
         24    2    5    5    0    0  0.12811118947E+03  0.83132343658E+02 -0.72787848248E+02  0.18664451367E+03  0.78832989306E+02 0.  0.
          5    1    5    5  501    0  0.48274721223E+02 -0.53254830822E+01  0.54442080910E+02  0.73108410276E+02  0.47000000000E+01 0. -1.
        -13    1    6    6    0    0  0.90979106711E+02  0.13484804720E+02 -0.48992246429E+02  0.10420785972E+03  0.00000000000E+00 0.  1.
         14    1    6    6    0    0  0.37132082757E+02  0.69647538938E+02 -0.23795601818E+02  0.82436653958E+02  0.00000000000E+00 0. -1.
         -5    1    3    3    0  503 -0.16044872327E+03 -0.26359776912E+02 -0.10639002405E+03  0.19436964232E+03  0.47000000000E+01 0.  1.
         11    1    4    4    0    0 -0.33326201796E+02 -0.53446008256E+01  0.12136805805E+01  0.33773858303E+02  0.00000000000E+00 0. -1.
        -12    1    4    4    0    0  0.17389014371E+02 -0.46102482838E+02 -0.62009453565E+02  0.79202203733E+02  0.00000000000E+00 0.  1.
</event>
<event>
12    1  0.8407180E-002  0.2022022E+03  0.7818608E-02  0.1148309E+00
         21   -1    0    0  503  502  0.00000000000E+00  0.00000000000E+00  0.50866368020E+02  0.50866368020E+02  0.00000000000E+00 0. -1.
         21   -1    0    0  501  503 -0.00000000000E+00 -0.00000000000E+00 -0.90047807549E+03  0.90047807549E+03  0.00000000000E+00 0.  1.
          6    2    1    2  501    0 -0.10550496199E+03 -0.18571672917E+01 -0.26087114229E+03  0.32884852887E+03  0.17015538776E+03 0.  0.
         24    2    3    3    0    0 -0.11475017216E+03 -0.38980604639E+02 -0.14049009691E+03  0.20244714597E+03  0.80995617364E+02 0.  0.
         -6    2    1    2    0  502  0.10550496199E+03  0.18571672917E+01 -0.58874056518E+03  0.62249591464E+03  0.17248467927E+03 0.  0.
        -24    2    5    5    0    0  0.84137258002E+02 -0.21511088692E+02 -0.57602936862E+03  0.58805293743E+03  0.80340640911E+02 0.  0.
          5    1    3    3  501    0  0.92452101745E+01  0.37123437348E+02 -0.12038104538E+03  0.12640138290E+03  0.47000000000E+01 0. -1.
        -13    1    4    4    0    0 -0.11115548877E+02  0.58130798041E+01  0.87637352964E+01  0.15301973075E+02  0.00000000000E+00 0.  1.
         14    1    4    4    0    0 -0.10363462329E+03 -0.44793684443E+02 -0.14925383220E+03  0.18714517289E+03  0.00000000000E+00 0. -1.
         -5    1    5    5    0  502  0.21367703986E+02  0.23368255983E+02 -0.12711196557E+02  0.34442977212E+02  0.47000000000E+01 0.  1.
         11    1    6    6    0    0  0.71284088742E+02  0.11569681994E+02 -0.25378118931E+03  0.26385634519E+03  0.00000000000E+00 0. -1.
        -12    1    6    6    0    0  0.12853169260E+02 -0.33080770685E+02 -0.32224817931E+03  0.32419659224E+03  0.00000000000E+00 0.  1.
</event>
<event>
12    1  0.8407180E-002  0.2149873E+03  0.7818608E-02  0.1140973E+00
         21   -1    0    0  503  502  0.00000000000E+00  0.00000000000E+00  0.12855153600E+03  0.12855153600E+03  0.00000000000E+00 0.  1.
         21   -1    0    0  501  503 -0.00000000000E+00 -0.00000000000E+00 -0.38795001406E+03  0.38795001406E+03  0.00000000000E+00 0.  1.
          6    2    1    2  501    0 -0.43034253513E+02 -0.94984643487E+02 -0.36600432095E+02  0.21808059603E+03  0.18800405651E+03 0.  0.
         24    2    3    3    0    0 -0.12192229389E+02 -0.14026976682E+03 -0.37060925285E+02  0.16308718823E+03  0.73482384567E+02 0.  0.
         -6    2    1    2    0  502  0.43034253513E+02  0.94984643487E+02 -0.22279804596E+03  0.29842095403E+03  0.16894397606E+03 0.  0.
        -24    2    5    5    0    0  0.37150936721E+02  0.13011320442E+03 -0.20264448094E+03  0.25722768525E+03  0.82411518242E+02 0.  0.
          5    1    3    3  501    0 -0.30842024124E+02  0.45285123333E+02  0.46049319024E+00  0.54993407799E+02  0.47000000000E+01 0. -1.
        -13    1    4    4    0    0 -0.20662340602E+02 -0.42415501539E+02 -0.44144060971E+02  0.64611958714E+02  0.00000000000E+00 0.  1.
         14    1    4    4    0    0  0.84701112124E+01 -0.97854265281E+02  0.70831356852E+01  0.98475229519E+02  0.00000000000E+00 0. -1.
         -5    1    5    5    0  502  0.58833167914E+01 -0.35128560934E+02 -0.20153565021E+02  0.41193268781E+02  0.47000000000E+01 0.  1.
         13    1    6    6    0    0 -0.26499951671E+02  0.38770052333E+02 -0.65125686007E+02  0.80291465140E+02  0.00000000000E+00 0. -1.
        -14    1    6    6    0    0  0.63650888392E+02  0.91343152088E+02 -0.13751879493E+03  0.17693622011E+03  0.00000000000E+00 0.  1.
</event>
<event>
12    1  0.8407180E-002  0.2256141E+03  0.7818608E-02  0.1129913E+00
         21   -1    0    0  501  502  0.00000000000E+00  0.00000000000E+00  0.18248167367E+03  0.18248167367E+03  0.00000000000E+00 0.  1.
         21   -1    0    0  502  503 -0.00000000000E+00 -0.00000000000E+00 -0.28938810577E+03  0.28938810577E+03  0.00000000000E+00 0. -1.
         -6    2    1    2    0  503 -0.41366991013E+02  0.13695121791E+03 -0.10049340438E+03  0.24698311170E+03  0.17445592312E+03 0.  0.
        -24    2    3    3    0    0  0.20745816699E+02  0.11034305665E+03 -0.11432988563E+03  0.17784894258E+03  0.77155327520E+02 0.  0.
          6    2    1    2  501    0  0.41366991013E+02 -0.13695121791E+03 -0.64130277318E+01  0.22488666774E+03  0.17339556617E+03 0.  0.
         24    2    5    5    0    0  0.41722320633E+01 -0.15639136828E+03 -0.25055036712E+02  0.17872408507E+03  0.82697497692E+02 0.  0.
          5    1    5    5  501    0  0.37194758949E+02  0.19440150374E+02  0.18642008980E+02  0.46162582669E+02  0.47000000000E+01 0. -1.
        -11    1    6    6    0    0  0.35851007859E+02 -0.12963557528E+03 -0.27113314033E+02  0.13720717525E+03  0.00000000000E+00 0.  1.
         12    1    6    6    0    0 -0.31678775796E+02 -0.26755793005E+02  0.20582773212E+01  0.41516909817E+02  0.00000000000E+00 0. -1.
         -5    1    3    3    0  503 -0.62112807712E+02  0.26608161255E+02  0.13836481254E+02  0.69134169126E+02  0.47000000000E+01 0.  1.
         13    1    4    4    0    0 -0.32532534886E+01  0.76153250384E+02 -0.26685327636E+02  0.80758949432E+02  0.00000000000E+00 0. -1.
        -14    1    4    4    0    0  0.23999070188E+02  0.34189806271E+02 -0.87644557994E+02  0.97089993144E+02  0.00000000000E+00 0.  1.
</event>
<event>
12    1  0.8407180E-002  0.2812762E+03  0.7818608E-02  0.1095002E+00
         21   -1    0    0  501  502  0.00000000000E+00  0.00000000000E+00  0.63393305043E+03  0.63393305043E+03  0.00000000000E+00 0.  1.
         21   -1    0    0  502  503 -0.00000000000E+00 -0.00000000000E+00 -0.18692604439E+03  0.18692604439E+03  0.00000000000E+00 0. -1.
         -6    2    1    2    0  503  0.80455874438E+02  0.20779586509E+03 -0.13171790156E+02  0.28152538336E+03  0.17155400357E+03 0.  0.
        -24    2    3    3    0    0 -0.25906674926E+02  0.44896501930E+02  0.27062190452E+02  0.82804328561E+02  0.58628857955E+02 0.  0.
          6    2    1    2  501    0 -0.80455874438E+02 -0.20779586509E+03  0.46017879620E+03  0.53933371145E+03  0.17165097889E+03 0.  0.
         24    2    5    5    0    0 -0.58636267700E+02 -0.19638827285E+03  0.27413305233E+03  0.35160694935E+03  0.80448435951E+02 0.  0.
          5    1    5    5  501    0 -0.21819606737E+02 -0.11407592246E+02  0.18604574386E+03  0.18772676210E+03  0.47000000000E+01 0. -1.
        -11    1    6    6    0    0 -0.24660476809E+02 -0.42451089573E+02  0.12624327254E+03  0.13545330555E+03  0.00000000000E+00 0.  1.
         12    1    6    6    0    0 -0.33975790891E+02 -0.15393718328E+03  0.14788977980E+03  0.21615364380E+03  0.00000000000E+00 0. -1.
         -5    1    3    3    0  503  0.10636254936E+03  0.16289936316E+03 -0.40233980608E+02  0.19872105480E+03  0.47000000000E+01 0.  1.
         11    1    4    4    0    0 -0.98421239173E+01  0.21378892538E+02 -0.17908020152E+02  0.29574002690E+02  0.00000000000E+00 0. -1.
        -12    1    4    4    0    0 -0.16064551008E+02  0.23517609392E+02  0.44970210604E+02  0.53230325871E+02  0.00000000000E+00 0.  1.
</event>
<event>
12    1  0.8407180E-002  0.2091461E+03  0.7818608E-02  0.1142448E+00
         21   -1    0    0  501  502  0.00000000000E+00  0.00000000000E+00  0.58111081847E+02  0.58111081847E+02  0.00000000000E+00 0.  1.
         21   -1    0    0  502  503 -0.00000000000E+00 -0.00000000000E+00 -0.94914215471E+03  0.94914215471E+03  0.00000000000E+00 0. -1.
         -6    2    1    2    0  503  0.95389854611E+02  0.70511011449E+02 -0.67761560263E+03  0.70915796047E+03  0.17225295603E+03 0.  0.
        -24    2    3    3    0    0  0.82020371091E+02  0.44750424972E+01 -0.57597098788E+03  0.58712022043E+03  0.78868289433E+02 0.  0.
          6    2    1    2  501    0 -0.95389854611E+02 -0.70511011449E+02 -0.21341547024E+03  0.29809527610E+03  0.17100761269E+03 0.  0.
         24    2    5    5    0    0  0.36805090458E+01 -0.48850849966E+02 -0.49140028218E+02  0.10498232883E+03  0.78781947837E+02 0.  0.
          5    1    5    5  501    0 -0.99070363657E+02 -0.21660161483E+02 -0.16427544202E+03  0.19311294726E+03  0.47000000000E+01 0. -1.
        -11    1    6    6    0    0 -0.15837283266E+02 -0.39891183722E+02  0.82499242368E+01  0.43705689903E+02  0.00000000000E+00 0.  1.
         12    1    6    6    0    0  0.19517792312E+02 -0.89596662443E+01 -0.57389952455E+02  0.61276638932E+02  0.00000000000E+00 0. -1.
         -5    1    3    3    0  503  0.13369483519E+02  0.66035968952E+02 -0.10164461476E+03  0.12203774004E+03  0.47000000000E+01 0.  1.
         13    1    4    4    0    0  0.58510826240E+02  0.32634387010E+02 -0.47481417194E+03  0.47951748443E+03  0.00000000000E+00 0. -1.
        -14    1    4    4    0    0  0.23509544851E+02 -0.28159344513E+02 -0.10115681594E+03  0.10760273599E+03  0.00000000000E+00 0.  1.
</event>
<event>
12    1  0.8407180E-002  0.1812726E+03  0.7818608E-02  0.1167037E+00
         21   -1    0    0  501  502  0.00000000000E+00  0.00000000000E+00  0.71257245711E+03  0.71257245711E+03  0.00000000000E+00 0.  1.
         21   -1    0    0  502  503 -0.00000000000E+00 -0.00000000000E+00 -0.54935245301E+02  0.54935245301E+02  0.00000000000E+00 0.  1.
         -6    2    1    2    0  503  0.49576532938E+02  0.24077935849E+02  0.48819419426E+03  0.52076227013E+03  0.17269102776E+03 0.  0.
        -24    2    3    3    0    0 -0.16138513039E+02 -0.14636435526E+02  0.37338125596E+03  0.38284428501E+03  0.81740488216E+02 0.  0.
          6    2    1    2  501    0 -0.49576532938E+02 -0.24077935849E+02  0.16944301755E+03  0.24674543228E+03  0.17068916937E+03 0.  0.
         24    2    5    5    0    0  0.35088563632E+02  0.23473269339E+01  0.89431529907E+02  0.12720296600E+03  0.83341938874E+02 0.  0.
          5    1    5    5  501    0 -0.84665096570E+02 -0.26425262783E+02  0.80011487638E+02  0.11954246628E+03  0.47000000000E+01 0. -1.
        -11    1    6    6    0    0  0.30179880178E+02  0.40989173968E+02  0.57856698425E+02  0.77060593709E+02  0.00000000000E+00 0.  1.
         12    1    6    6    0    0  0.49086834543E+01 -0.38641847034E+02  0.31574831482E+02  0.50142372287E+02  0.00000000000E+00 0. -1.
         -5    1    3    3    0  503  0.65715045977E+02  0.38714371376E+02  0.11481293830E+03  0.13791798512E+03  0.47000000000E+01 0.  1.
         13    1    4    4    0    0  0.12710382311E+02 -0.11121982225E+02  0.13052056275E+02  0.21344987236E+02  0.00000000000E+00 0. -1.
        -14    1    4    4    0    0 -0.28848895350E+02 -0.35144533010E+01  0.36032919968E+03  0.36149929777E+03  0.00000000000E+00 0.  1.
</event>
<event>
12    1  0.8407180E-002  0.1991030E+03  0.7818608E-02  0.1150790E+00
         21   -1    0    0  503  502  0.00000000000E+00  0.00000000000E+00  0.33375890909E+03  0.33375890909E+03  0.00000000000E+00 0. -1.
         21   -1    0    0  501  503 -0.00000000000E+00 -0.00000000000E+00 -0.15278382196E+03  0.15278382196E+03  0.00000000000E+00 0. -1.
          6    2    1    2  501    0 -0.20027184480E+02  0.95908489754E+02  0.20687671797E+03  0.28712364125E+03  0.17332767350E+03 0.  0.
         24    2    3    3    0    0 -0.32274273568E+02  0.12760189582E+03  0.19449465075E+03  0.25065627546E+03  0.87615790264E+02 0.  0.
         -6    2    1    2    0  502  0.20027184480E+02 -0.95908489754E+02 -0.25901630835E+02  0.19941908980E+03  0.17174851491E+03 0.  0.
        -24    2    5    5    0    0  0.41636431310E+02 -0.10567585504E+03  0.22187846398E+02  0.14559484997E+03  0.88343539994E+02 0.  0.
          5    1    3    3  501    0  0.12247089087E+02 -0.31693406067E+02  0.12382067217E+02  0.36467365792E+02  0.47000000000E+01 0. -1.
        -13    1    4    4    0    0 -0.27857186455E+02  0.46765034958E+02  0.19462302330E+02  0.57808066424E+02  0.00000000000E+00 0.  1.
         14    1    4    4    0    0 -0.44170871127E+01  0.80836860863E+02  0.17503234843E+03  0.19284820903E+03  0.00000000000E+00 0. -1.
         -5    1    5    5    0  502 -0.21609246829E+02  0.97673652862E+01 -0.48089477233E+02  0.53824239834E+02  0.47000000000E+01 0.  1.
         13    1    6    6    0    0 -0.12123140877E+02 -0.60874510165E+02 -0.18344262582E+02  0.64723940719E+02  0.00000000000E+00 0. -1.
        -14    1    6    6    0    0  0.53759572187E+02 -0.44801344875E+02  0.40532108980E+02  0.80870909248E+02  0.00000000000E+00 0.  1.
</event>
<event>
12    1  0.8407180E-002  0.1789580E+03  0.7818608E-02  0.1168854E+00
         21   -1    0    0  503  502  0.00000000000E+00  0.00000000000E+00  0.99938483476E+02  0.99938483476E+02  0.00000000000E+00 0.  1.
         21   -1    0    0  501  503 -0.00000000000E+00 -0.00000000000E+00 -0.34685778400E+03  0.34685778400E+03  0.00000000000E+00 0.  1.
          6    2    1    2  501    0 -0.50593803577E+02 -0.87968897372E+01 -0.18536966116E+03  0.25754951740E+03  0.17126799002E+03 0.  0.
         24    2    3    3    0    0 -0.41578302182E+02  0.29134039228E+02 -0.19576032406E+03  0.21692821125E+03  0.78474179867E+02 0.  0.
         -6    2    1    2    0  502  0.50593803577E+02  0.87968897372E+01 -0.61549639365E+02  0.18924675007E+03  0.17143178258E+03 0.  0.
        -24    2    5    5    0    0  0.23109358545E+02  0.48217905747E+02 -0.90129790089E+02  0.13313680232E+03  0.82115894823E+02 0.  0.
          5    1    3    3  501    0 -0.90155013950E+01 -0.37930928965E+02  0.10390662905E+02  0.40621306148E+02  0.47000000000E+01 0. -1.
        -11    1    4    4    0    0 -0.18325589425E+02 -0.26333374726E+02 -0.85670489006E+02  0.91480634775E+02  0.00000000000E+00 0.  1.
         12    1    4    4    0    0 -0.23252712757E+02  0.55467413954E+02 -0.11008983506E+03  0.12544757648E+03  0.00000000000E+00 0. -1.
         -5    1    5    5    0  502  0.27484445032E+02 -0.39421016010E+02  0.28580150724E+02  0.56109947758E+02  0.47000000000E+01 0.  1.
         11    1    6    6    0    0  0.53171768342E+02  0.21975561968E+02 -0.60060806161E+02  0.83171285364E+02  0.00000000000E+00 0. -1.
        -12    1    6    6    0    0 -0.30062409797E+02  0.26242343779E+02 -0.30068983928E+02  0.49965516952E+02  0.00000000000E+00 0.  1.
</event>
<event>
12    1  0.8407180E-002  0.2078029E+03  0.7818608E-02  0.1143379E+00
         21   -1    0    0  503  502  0.00000000000E+00  0.00000000000E+00  0.16783370088E+03  0.16783370088E+03  0.00000000000E+00 0. -1.
         21   -1    0    0  501  503 -0.00000000000E+00 -0.00000000000E+00 -0.45843879973E+03  0.45843879973E+03  0.00000000000E+00 0.  1.
          6    2    1    2  501    0 -0.10297839346E+02 -0.11542059337E+03 -0.35297622813E+03  0.40960258791E+03  0.17249377824E+03 0.  0.
         24    2    3    3    0    0  0.41553550847E+02 -0.13283947136E+02 -0.13282187220E+03  0.16138797995E+03  0.80630450205E+02 0.  0.
         -6    2    1    2    0  502  0.10297839346E+02  0.11542059337E+03  0.62371129272E+02  0.21666991270E+03  0.17212708803E+03 0.  0.
        -24    2    5    5    0    0 -0.12825383295E+02  0.14574121829E+03  0.61850330231E+02  0.17824615764E+03  0.80877909224E+02 0.  0.
          5    1    3    3  501    0 -0.51851390193E+02 -0.10213664623E+03 -0.22015435593E+03  0.24821460796E+03  0.47000000000E+01 0. -1.
        -11    1    4    4    0    0  0.10161445835E+02 -0.45487037514E+02 -0.63918580475E+02  0.79106956035E+02  0.00000000000E+00 0.  1.
         12    1    4    4    0    0  0.31392105012E+02  0.32203090378E+02 -0.68903291720E+02  0.82281023917E+02  0.00000000000E+00 0. -1.
         -5    1    5    5    0  502  0.23123222641E+02 -0.30320624920E+02  0.52079904099E+00  0.38423755054E+02  0.47000000000E+01 0.  1.
         11    1    6    6    0    0  0.23039858865E+02  0.25309463967E+02  0.36536266110E+02  0.50062988365E+02  0.00000000000E+00 0. -1.
        -12    1    6    6    0    0 -0.35865242159E+02  0.12043175432E+03  0.25314064121E+02  0.12818316928E+03  0.00000000000E+00 0.  1.
</event>
<event>
12    1  0.8407180E-002  0.2044880E+03  0.7818608E-02  0.1148406E+00
         21   -1    0    0  501  502  0.00000000000E+00  0.00000000000E+00  0.96426184428E+02  0.96426184428E+02  0.00000000000E+00 0.  1.
         21   -1    0    0  502  503 -0.00000000000E+00 -0.00000000000E+00 -0.47347387549E+03  0.47347387549E+03  0.00000000000E+00 0. -1.
         -6    2    1    2    0  503  0.83809633023E+02 -0.70254130714E+02 -0.28823819984E+03  0.34695959498E+03  0.15918543661E+03 0.  0.
        -24    2    3    3    0    0  0.11234481788E+03 -0.49970472367E+02 -0.26995129691E+03  0.30718291350E+03  0.79807477273E+02 0.  0.
          6    2    1    2  501    0 -0.83809633023E+02  0.70254130714E+02 -0.88809491215E+02  0.22294046494E+03  0.17278781122E+03 0.  0.
         24    2    5    5    0    0 -0.81969324164E+02 -0.18105766799E+02 -0.56449835308E+02  0.12870620601E+03  0.79573328844E+02 0.  0.
          5    1    5    5  501    0 -0.18403088596E+01  0.88359897513E+02 -0.32359655907E+02  0.94234258928E+02  0.47000000000E+01 0. -1.
        -11    1    6    6    0    0 -0.40320782056E+02  0.25610575788E+02 -0.26585092991E+01  0.47840722502E+02  0.00000000000E+00 0.  1.
         12    1    6    6    0    0 -0.41648542108E+02 -0.43716342587E+02 -0.53791326009E+02  0.80865483506E+02  0.00000000000E+00 0. -1.
         -5    1    3    3    0  503 -0.28535184857E+02 -0.20283658347E+02 -0.18286902932E+02  0.39776681480E+02  0.47000000000E+01 0.  1.
         13    1    4    4    0    0 -0.33387277280E+01  0.35067829266E+01 -0.69361494073E+02  0.69530291884E+02  0.00000000000E+00 0. -1.
        -14    1    4    4    0    0  0.11568354561E+03 -0.53477255294E+02 -0.20058980284E+03  0.23765262161E+03  0.00000000000E+00 0.  1.
</event>
<event>
12    1  0.8407180E-002  0.2010154E+03  0.7818608E-02  0.1148893E+00
         21   -1    0    0  501  502  0.00000000000E+00  0.00000000000E+00  0.41490413770E+03  0.41490413770E+03  0.00000000000E+00 0.  1.
         21   -1    0    0  502  503 -0.00000000000E+00 -0.00000000000E+00 -0.37726440697E+03  0.37726440697E+03  0.00000000000E+00 0.  1.
         -6    2    1    2    0  503  0.56564275863E+02 -0.86929403502E+02 -0.32234142705E+03  0.37988311438E+03  0.17219450194E+03 0.  0.
        -24    2    3    3    0    0  0.52649897591E+02 -0.58283505681E+02 -0.97875763644E+02  0.15351431382E+03  0.88419458754E+02 0.  0.
          6    2    1    2  501    0 -0.56564275863E+02  0.86929403502E+02  0.35998115778E+03  0.41228543030E+03  0.17215284946E+03 0.  0.
         24    2    5    5    0    0  0.31323490133E+02  0.44090659986E+02  0.12623554650E+03  0.15887170108E+03  0.79872754262E+02 0.  0.
          5    1    5    5  501    0 -0.87887765995E+02  0.42838743517E+02  0.23374561129E+03  0.25341372921E+03  0.47000000000E+01 0. -1.
        -11    1    6    6    0    0  0.24731342703E+02  0.56264982410E+02  0.13061371231E+03  0.14435140941E+03  0.00000000000E+00 0.  1.
         12    1    6    6    0    0  0.65921474298E+01 -0.12174322424E+02 -0.43781658108E+01  0.14520291667E+02  0.00000000000E+00 0. -1.
         -5    1    3    3    0  503  0.39143782712E+01 -0.28645897821E+02 -0.22446566341E+03  0.22636880056E+03  0.47000000000E+01 0.  1.
         11    1    4    4    0    0  0.73994506508E+02 -0.51188304723E+02 -0.55995656026E+02  0.10597614367E+03  0.00000000000E+00 0. -1.
        -12    1    4    4    0    0 -0.21344608917E+02 -0.70952009575E+01 -0.41880107618E+02  0.47538170143E+02  0.00000000000E+00 0.  1.
</event>
<event>
12    1  0.8407180E-002  0.1844297E+03  0.7818608E-02  0.1163752E+00
         21   -1    0    0  501  502  0.00000000000E+00  0.00000000000E+00  0.43057321986E+03  0.43057321986E+03  0.00000000000E+00 0.  1.
         21   -1    0    0  502  503 -0.00000000000E+00 -0.00000000000E+00 -0.12245329817E+03  0.12245329817E+03  0.00000000000E+00 0.  1.
         -6    2    1    2    0  503  0.63937942967E+02 -0.22080635004E+02 -0.11050435540E+02  0.18476041967E+03  0.17157705428E+03 0.  0.
        -24    2    3    3    0    0 -0.24004772598E+02  0.14681139548E+02 -0.22255632572E+02  0.88671941014E+02  0.81090289037E+02 0.  0.
          6    2    1    2  501    0 -0.63937942967E+02  0.22080635004E+02  0.31917035723E+03  0.36826609837E+03  0.17080570036E+03 0.  0.
         24    2    5    5    0    0 -0.10197325174E+03  0.41083696477E+02  0.27328641650E+03  0.30553471008E+03  0.81114606808E+02 0.  0.
          5    1    5    5  501    0  0.38035308770E+02 -0.19003061473E+02  0.45883940735E+02  0.62731388283E+02  0.47000000000E+01 0. -1.
        -13    1    6    6    0    0 -0.78301165458E+02  0.49554336123E+02  0.26213358643E+03  0.27803007369E+03  0.00000000000E+00 0.  1.
         14    1    6    6    0    0 -0.23672086278E+02 -0.84706396460E+01  0.11152830071E+02  0.27504636397E+02  0.00000000000E+00 0. -1.
         -5    1    3    3    0  503  0.87942715565E+02 -0.36761774552E+02  0.11205197032E+02  0.96088478652E+02  0.47000000000E+01 0.  1.
         13    1    4    4    0    0 -0.59481543218E+01  0.47720912481E+02 -0.14510399266E+02  0.50231640573E+02  0.00000000000E+00 0. -1.
        -14    1    4    4    0    0 -0.18056618276E+02 -0.33039772933E+02 -0.77452333059E+01  0.38440300441E+02  0.00000000000E+00 0.  1.
</event>
<event>
12    1  0.8407180E-002  0.2125780E+03  0.7818608E-02  0.1139889E+00
         21   -1    0    0  503  502  0.00000000000E+00  0.00000000000E+00  0.11305098536E+03  0.11305098536E+03  0.00000000000E+00 0. -1.
         21   -1    0    0  501  503 -0.00000000000E+00 -0.00000000000E+00 -0.76599125855E+03  0.76599125855E+03  0.00000000000E+00 0. -1.
          6    2    1    2  501    0  0.11492924274E+03  0.34859849146E+02 -0.63248436528E+03  0.66725248609E+03  0.17540087784E+03 0.  0.
         24    2    3    3    0    0  0.52179743991E+02  0.30712002979E+02 -0.15189080705E+03  0.18253920750E+03  0.81140570619E+02 0.  0.
         -6    2    1    2    0  502 -0.11492924274E+03 -0.34859849146E+02 -0.20455907903E+02  0.21178975782E+03  0.17324121169E+03 0.  0.
        -24    2    5    5    0    0 -0.12527304642E+03 -0.64022485097E+02 -0.49053416987E+02  0.16939446166E+03  0.80597960061E+02 0.  0.
          5    1    3    3  501    0  0.62749498752E+02  0.41478461662E+01 -0.48059355824E+03  0.48471327859E+03  0.47000000000E+01 0. -1.
        -13    1    4    4    0    0 -0.22303436568E+01  0.44730698890E+02 -0.74006872429E+02  0.86503335327E+02  0.00000000000E+00 0.  1.
         14    1    4    4    0    0  0.54410087648E+02 -0.14018695911E+02 -0.77883934618E+02  0.96035872176E+02  0.00000000000E+00 0. -1.
         -5    1    5    5    0  502  0.10343803678E+02  0.29162635951E+02  0.28597509084E+02  0.42395296154E+02  0.47000000000E+01 0.  1.
         13    1    6    6    0    0 -0.92304516746E+02 -0.25248357888E+01 -0.29258800094E+02  0.96863698001E+02  0.00000000000E+00 0. -1.
        -14    1    6    6    0    0 -0.32968529676E+02 -0.61497649308E+02 -0.19794616893E+02  0.72530763661E+02  0.00000000000E+00 0.  1.
</event>
<event>
12    1  0.8407180E-002  0.2577024E+03  0.7818608E-02  0.1108692E+00
         21   -1    0    0  503  502  0.00000000000E+00  0.00000000000E+00  0.75694858208E+02  0.75694858208E+02  0.00000000000E+00 0. -1.
         21   -1    0    0  501  503 -0.00000000000E+00 -0.00000000000E+00 -0.21722487585E+04  0.21722487585E+04  0.00000000000E+00 0. -1.
          6    2    1    2  501    0  0.18424052397E+03 -0.41050507948E+02 -0.19181353242E+04  0.19353691278E+04  0.17544464618E+03 0.  0.
         24    2    3    3    0    0  0.74297262234E+02 -0.77264020709E+02 -0.11545764527E+04  0.11630717889E+04  0.90550477762E+02 0.  0.
         -6    2    1    2    0  502 -0.18424052397E+03  0.41050507948E+02 -0.17841857608E+03  0.31257448894E+03  0.17389625634E+03 0.  0.
        -24    2    5    5    0    0 -0.51688705659E+02  0.52776135003E+02 -0.13698589532E+03  0.17312474207E+03  0.75828741793E+02 0.  0.
          5    1    3    3  501    0  0.10994326174E+03  0.36213512761E+02 -0.76355887159E+03  0.77229733891E+03  0.47000000000E+01 0. -1.
        -13    1    4    4    0    0 -0.16294812229E+01 -0.31200870447E+02 -0.10010600007E+03  0.10486830206E+03  0.00000000000E+00 0.  1.
         14    1    4    4    0    0  0.75926743457E+02 -0.46063150262E+02 -0.10544704526E+04  0.10582034868E+04  0.00000000000E+00 0. -1.
         -5    1    5    5    0  502 -0.13255181831E+03 -0.11725627055E+02 -0.41432680768E+02  0.13944974687E+03  0.47000000000E+01 0.  1.
         13    1    6    6    0    0 -0.25179475113E+02  0.54919445450E+01  0.34005863313E-01  0.25771468298E+02  0.00000000000E+00 0. -1.
        -14    1    6    6    0    0 -0.26509230546E+02  0.47284190458E+02 -0.13701990118E+03  0.14735327377E+03  0.00000000000E+00 0.  1.
</event>
<event>
12    1  0.8407180E-002  0.2029758E+03  0.7818608E-02  0.1147595E+00
         21   -1    0    0  501  502  0.00000000000E+00  0.00000000000E+00  0.42801505513E+03  0.42801505513E+03  0.00000000000E+00 0.  1.
         21   -1    0    0  502  503 -0.00000000000E+00 -0.00000000000E+00 -0.13837806930E+03  0.13837806930E+03  0.00000000000E+00 0.  1.
         -6    2    1    2    0  503 -0.28173572109E+02 -0.10350545053E+03 -0.13274211207E+02  0.20176402017E+03  0.17036838527E+03 0.  0.
        -24    2    3    3    0    0  0.26866756407E+02 -0.49579107123E+01 -0.23757292821E+02  0.88304598492E+02  0.80541229654E+02 0.  0.
          6    2    1    2  501    0  0.28173572109E+02  0.10350545053E+03  0.30291119703E+03  0.36462910426E+03  0.17231384718E+03 0.  0.
         24    2    5    5    0    0  0.58574294170E+02  0.21958587228E+02  0.22809019397E+03  0.24976236705E+03  0.80268150102E+02 0.  0.
          5    1    5    5  501    0 -0.30400722060E+02  0.81546863306E+02  0.74821003068E+02  0.11486673721E+03  0.47000000000E+01 0. -1.
        -11    1    6    6    0    0  0.54802575908E+01 -0.32139887252E+01  0.15873691886E+03  0.15886400585E+03  0.00000000000E+00 0.  1.
         12    1    6    6    0    0  0.53094036579E+02  0.25172575953E+02  0.69353275106E+02  0.90898361197E+02  0.00000000000E+00 0. -1.
         -5    1    3    3    0  503 -0.55040328516E+02 -0.98547539822E+02  0.10483081613E+02  0.11345942168E+03  0.47000000000E+01 0.  1.
         13    1    4    4    0    0 -0.18525750803E+01  0.30967160234E+02  0.84532924025E+01  0.32153618768E+02  0.00000000000E+00 0. -1.
        -14    1    4    4    0    0  0.28719331488E+02 -0.35925070947E+02 -0.32210585223E+02  0.56150979725E+02  0.00000000000E+00 0.  1.
</event>
<event>
12    1  0.8407180E-002  0.1983450E+03  0.7818608E-02  0.1151230E+00
         21   -1    0    0  503  502  0.00000000000E+00  0.00000000000E+00  0.10211179812E+03  0.10211179812E+03  0.00000000000E+00 0.  1.
         21   -1    0    0  501  503 -0.00000000000E+00 -0.00000000000E+00 -0.41791884528E+03  0.41791884528E+03  0.00000000000E+00 0.  1.
          6    2    1    2  501    0  0.70330680965E+00 -0.98021166253E+02 -0.23130254174E+03  0.30443434440E+03  0.17196150895E+03 0.  0.
         24    2    3    3    0    0  0.20708161337E+01 -0.11521310762E+03 -0.24464348427E+03  0.28212955394E+03  0.80425756821E+02 0.  0.
         -6    2    1    2    0  502 -0.70330680965E+00  0.98021166253E+02 -0.84504505415E+02  0.21559629900E+03  0.17243001198E+03 0.  0.
        -24    2    5    5    0    0 -0.52273316584E+02  0.43147025022E+02 -0.29260883827E+01  0.10447579950E+03  0.79451024490E+02 0.  0.
          5    1    3    3  501    0 -0.13675093240E+01  0.17191941367E+02  0.13340942534E+02  0.22304790459E+02  0.47000000000E+01 0. -1.
        -13    1    4    4    0    0  0.27468828571E+02 -0.47449221663E+02 -0.16799879184E+03  0.17671887063E+03  0.00000000000E+00 0.  1.
         14    1    4    4    0    0 -0.25398012437E+02 -0.67763885957E+02 -0.76644692437E+02  0.10541068330E+03  0.00000000000E+00 0. -1.
         -5    1    5    5    0  502  0.51570009774E+02  0.54874141230E+02 -0.81578417032E+02  0.11112049950E+03  0.47000000000E+01 0.  1.
         11    1    6    6    0    0 -0.13939913480E+02 -0.96309483587E+01 -0.29516841156E+02  0.34034104453E+02  0.00000000000E+00 0. -1.
        -12    1    6    6    0    0 -0.38333403104E+02  0.52777973381E+02  0.26590752773E+02  0.70441695045E+02  0.00000000000E+00 0.  1.
</event>
<event>
12    1  0.8407180E-002  0.1831415E+03  0.7818608E-02  0.1164798E+00
         21   -1    0    0  503  502  0.00000000000E+00  0.00000000000E+00  0.90926226017E+02  0.90926226017E+02  0.00000000000E+00 0. -1.
         21   -1    0    0  501  503 -0.00000000000E+00 -0.00000000000E+00 -0.37358862597E+03  0.37358862597E+03  0.00000000000E+00 0. -1.
          6    2    1    2  501    0  0.51923923198E+02 -0.35786886466E+02 -0.16743954272E+03  0.24814218353E+03  0.17193530103E+03 0.  0.
         24    2    3    3    0    0 -0.29948100331E+02 -0.89499594059E+00 -0.44536511260E+02  0.96327436546E+02  0.79986151708E+02 0.  0.
         -6    2    1    2    0  502 -0.51923923198E+02  0.35786886466E+02 -0.11522285723E+03  0.21637266845E+03  0.17194193724E+03 0.  0.
        -24    2    5    5    0    0  0.97092707231E+01  0.38666119191E+02 -0.25522289667E+01  0.87828119568E+02  0.78217172046E+02 0.  0.
          5    1    3    3  501    0  0.81872023529E+02 -0.34891890525E+02 -0.12290303146E+03  0.15181474699E+03  0.47000000000E+01 0. -1.
        -13    1    4    4    0    0 -0.29961417940E+02  0.11231131331E+02 -0.65052430173E+02  0.72495817448E+02  0.00000000000E+00 0.  1.
         14    1    4    4    0    0  0.13317609000E-01 -0.12126127272E+02  0.20515918913E+02  0.23831619098E+02  0.00000000000E+00 0. -1.
         -5    1    5    5    0  502 -0.61633193921E+02 -0.28792327253E+01 -0.11267062826E+03  0.12854454888E+03  0.47000000000E+01 0.  1.
         13    1    6    6    0    0 -0.12797080572E+02  0.41515275107E+02 -0.29568089996E+02  0.52550502228E+02  0.00000000000E+00 0. -1.
        -14    1    6    6    0    0  0.22506351296E+02 -0.28491559161E+01  0.27015861029E+02  0.35277617340E+02  0.00000000000E+00 0.  1.
</event>
<event>
12    1  0.8407180E-002  0.1782237E+03  0.7818608E-02  0.1170138E+00
         21   -1    0    0  501  502  0.00000000000E+00  0.00000000000E+00  0.45236239706E+03  0.45236239706E+03  0.00000000000E+00 0.  1.
         21   -1    0    0  502  503 -0.00000000000E+00 -0.00000000000E+00 -0.70691558906E+02  0.70691558906E+02  0.00000000000E+00 0.  1.
         -6    2    1    2    0  503  0.44377387327E+02  0.19570476841E+02  0.15485120531E+03  0.23609867358E+03  0.17149732304E+03 0.  0.
        -24    2    3    3    0    0  0.64035215494E+02  0.51712645336E+02  0.15861943636E+03  0.19794321828E+03  0.85127466540E+02 0.  0.
          6    2    1    2  501    0 -0.44377387327E+02 -0.19570476841E+02  0.22681963285E+03  0.28695528239E+03  0.16894919999E+03 0.  0.
         24    2    5    5    0    0 -0.75654361362E+02 -0.30772078537E+01  0.82346538596E+02  0.13814385142E+03  0.81053807214E+02 0.  0.
          5    1    5    5  501    0  0.31276974035E+02 -0.16493268987E+02  0.14447309425E+03  0.14881143098E+03  0.47000000000E+01 0. -1.
        -13    1    6    6    0    0  0.68049013885E-02 -0.16764394578E+02 -0.87707026765E+01  0.18920100351E+02  0.00000000000E+00 0.  1.
         14    1    6    6    0    0 -0.75661166264E+02  0.13687186724E+02  0.91117241273E+02  0.11922375106E+03  0.00000000000E+00 0. -1.
         -5    1    3    3    0  503 -0.19657828166E+02 -0.32142168495E+02 -0.37682310536E+01  0.38155455299E+02  0.47000000000E+01 0.  1.
         11    1    4    4    0    0  0.34332671720E+02  0.18479979245E+02  0.66260695414E+01  0.39549295542E+02  0.00000000000E+00 0. -1.
        -12    1    4    4    0    0  0.29702543774E+02  0.33232666091E+02  0.15199336682E+03  0.15839392273E+03  0.00000000000E+00 0.  1.
</event>
<event>
12    1  0.8407180E-002  0.1821287E+03  0.7818608E-02  0.1166537E+00
         21   -1    0    0  501  502  0.00000000000E+00  0.00000000000E+00  0.99290941233E+03  0.99290941233E+03  0.00000000000E+00 0.  1.
         21   -1    0    0  502  503 -0.00000000000E+00 -0.00000000000E+00 -0.58494147336E+02  0.58494147336E+02  0.00000000000E+00 0.  1.
         -6    2    1    2    0  503 -0.25048432038E+02  0.43344462342E+02  0.12126097495E+03  0.21880379458E+03  0.17511342071E+03 0.  0.
        -24    2    3    3    0    0 -0.31822724144E+02  0.30667490127E+01  0.14636152864E+03  0.17063416701E+03  0.81683726422E+02 0.  0.
          6    2    1    2  501    0  0.25048432038E+02 -0.43344462342E+02  0.81315429005E+03  0.83259976509E+03  0.17174487776E+03 0.  0.
         24    2    5    5    0    0 -0.39888563969E+02 -0.59391436576E+02  0.50831359510E+03  0.52047117279E+03  0.85959818927E+02 0.  0.
          5    1    5    5  501    0  0.64936996007E+02  0.16046974234E+02  0.30484069495E+03  0.31212859230E+03  0.47000000000E+01 0. -1.
        -11    1    6    6    0    0 -0.67304417129E+02 -0.41922059919E+02  0.35446964789E+03  0.36323005788E+03  0.00000000000E+00 0.  1.
         12    1    6    6    0    0  0.27415853161E+02 -0.17469376657E+02  0.15384394721E+03  0.15724111491E+03  0.00000000000E+00 0. -1.
         -5    1    3    3    0  503  0.67742921063E+01  0.40277713329E+02 -0.25100553695E+02  0.48169627572E+02  0.47000000000E+01 0.  1.
         13    1    4    4    0    0  0.68893836395E+01 -0.32940159974E+02  0.71064165980E+02  0.78629723594E+02  0.00000000000E+00 0. -1.
        -14    1    4    4    0    0 -0.38712107784E+02  0.36006908986E+02  0.75297362662E+02  0.92004443413E+02  0.00000000000E+00 0.  1.
</event>
<event>
12    1  0.8407180E-002  0.2462676E+03  0.7818608E-02  0.1115709E+00
         21   -1    0    0  503  502  0.00000000000E+00  0.00000000000E+00  0.73503558516E+03  0.73503558516E+03  0.00000000000E+00 0. -1.
         21   -1    0    0  501  503 -0.00000000000E+00 -0.00000000000E+00 -0.19981819108E+03  0.19981819108E+03  0.00000000000E+00 0.  1.
          6    2    1    2  501    0  0.14430433100E+03  0.10061416749E+03  0.62579443028E+03  0.67245726412E+03  0.17214282576E+03 0.  0.
         24    2    3    3    0    0  0.69954128814E+02  0.39152523091E+02  0.15558195243E+03  0.19242877473E+03  0.79978679801E+02 0.  0.
         -6    2    1    2    0  502 -0.14430433100E+03 -0.10061416749E+03 -0.90577036201E+02  0.26239651212E+03  0.17233914077E+03 0.  0.
        -24    2    5    5    0    0 -0.88570252353E+02  0.97485979883E+01 -0.58332500308E+02  0.13453710644E+03  0.82206007398E+02 0.  0.
          5    1    3    3  501    0  0.74350202187E+02  0.61461644395E+02  0.47021247785E+03  0.48002848939E+03  0.47000000000E+01 0. -1.
        -13    1    4    4    0    0  0.82570116097E+02  0.13729887922E+02  0.10345188737E+03  0.13307376486E+03  0.00000000000E+00 0.  1.
         14    1    4    4    0    0 -0.12615987283E+02  0.25422635169E+02  0.52130065056E+02  0.59355009871E+02  0.00000000000E+00 0. -1.
         -5    1    5    5    0  502 -0.55734078649E+02 -0.11036276547E+03 -0.32244535893E+02  0.12785940568E+03  0.47000000000E+01 0.  1.
         13    1    6    6    0    0  0.11702068165E+02  0.15114527896E+02 -0.15481596347E+01  0.19177699318E+02  0.00000000000E+00 0. -1.
        -14    1    6    6    0    0 -0.10027232052E+03 -0.53659299080E+01 -0.56784340673E+02  0.11535940712E+03  0.00000000000E+00 0.  1.
</event>
<event>
12    1  0.8407180E-002  0.1948016E+03  0.7818608E-02  0.1154294E+00
         21   -1    0    0  501  502  0.00000000000E+00  0.00000000000E+00  0.57365309346E+02  0.57365309346E+02  0.00000000000E+00 0.  1.
         21   -1    0    0  502  503 -0.00000000000E+00 -0.00000000000E+00 -0.81147287038E+03  0.81147287038E+03  0.00000000000E+00 0. -1.
         -6    2    1    2    0  503  0.14379415936E+02  0.91288667956E+02 -0.56437163142E+03  0.59690549337E+03  0.17099836597E+03 0.  0.
        -24    2    3    3    0    0  0.68518018771E+02  0.24254017961E+02 -0.34152898898E+03  0.35793778445E+03  0.78704707230E+02 0.  0.
          6    2    1    2  501    0 -0.14379415936E+02 -0.91288667956E+02 -0.18973592961E+03  0.27193268635E+03  0.17148549333E+03 0.  0.
         24    2    5    5    0    0 -0.27109521167E+01  0.20074054030E+02 -0.77525840059E+02  0.11334200853E+03  0.80161325544E+02 0.  0.
          5    1    5    5  501    0 -0.11668463819E+02 -0.11136272199E+03 -0.11221008955E+03  0.15859067783E+03  0.47000000000E+01 0. -1.
        -13    1    6    6    0    0 -0.34901649058E+02  0.92486489759E+01 -0.95401108543E+01  0.37345365575E+02  0.00000000000E+00 0.  1.
         14    1    6    6    0    0  0.32190696941E+02  0.10825405055E+02 -0.67985729205E+02  0.75996642950E+02  0.00000000000E+00 0. -1.
         -5    1    3    3    0  503 -0.54138602835E+02  0.67034649995E+02 -0.22284264244E+03  0.23896770892E+03  0.47000000000E+01 0.  1.
         13    1    4    4    0    0  0.55468246527E+02  0.40664160642E+02 -0.32207381819E+03  0.32933545921E+03  0.00000000000E+00 0. -1.
        -14    1    4    4    0    0  0.13049772244E+02 -0.16410142681E+02 -0.19455170795E+02  0.28602325239E+02  0.00000000000E+00 0.  1.
</event>
<event>
12    1  0.8407180E-002  0.1958541E+03  0.7818608E-02  0.1153548E+00
         21   -1    0    0  501  502  0.00000000000E+00  0.00000000000E+00  0.65330240212E+02  0.65330240212E+02  0.00000000000E+00 0. -1.
         21   -1    0    0  502  503 -0.00000000000E+00 -0.00000000000E+00 -0.10512805736E+04  0.10512805736E+04  0.00000000000E+00 0. -1.
         -6    2    1    2    0  503  0.35622126698E+02 -0.85464775060E+02 -0.86453569666E+03  0.88617571498E+03  0.17120824550E+03 0.  0.
        -24    2    3    3    0    0  0.82650578746E+02 -0.83790575337E+02 -0.59462806671E+03  0.61215619569E+03  0.85444084149E+02 0.  0.
          6    2    1    2  501    0 -0.35622126698E+02  0.85464775060E+02 -0.12141463674E+03  0.23043509885E+03  0.17258521686E+03 0.  0.
         24    2    5    5    0    0  0.68053805678E-01  0.40882560680E+02 -0.14299604470E+03  0.16920430600E+03  0.80689776117E+02 0.  0.
          5    1    5    5  501    0 -0.35690180504E+02  0.44582214381E+02  0.21581407958E+02  0.61230792849E+02  0.47000000000E+01 0. -1.
        -13    1    6    6    0    0  0.17935708095E+02  0.60141350535E+02 -0.86192343688E+02  0.10661984702E+03  0.00000000000E+00 0.  1.
         14    1    6    6    0    0 -0.17867654290E+02 -0.19258789856E+02 -0.56803701011E+02  0.62584458974E+02  0.00000000000E+00 0. -1.
         -5    1    3    3    0  503 -0.47028452048E+02 -0.16741997234E+01 -0.26990762995E+03  0.27401951929E+03  0.47000000000E+01 0.  1.
         11    1    4    4    0    0  0.52334934500E+01 -0.73949145083E+01 -0.26283303238E+03  0.26298911978E+03  0.00000000000E+00 0. -1.
        -12    1    4    4    0    0  0.77417085296E+02 -0.76395660829E+02 -0.33179503434E+03  0.34916707591E+03  0.00000000000E+00 0.  1.
</event>
<event>
12    1  0.8407180E-002  0.2547288E+03  0.7818608E-02  0.1110444E+00
         21   -1    0    0  503  502  0.00000000000E+00  0.00000000000E+00  0.16889987243E+03  0.16889987243E+03  0.00000000000E+00 0.  1.
         21   -1    0    0  501  503 -0.00000000000E+00 -0.00000000000E+00 -0.49302188180E+03  0.49302188180E+03  0.00000000000E+00 0.  1.
          6    2    1    2  501    0  0.16014273795E+03  0.98502836303E+02 -0.60592679699E+01  0.25480082924E+03  0.17186693275E+03 0.  0.
         24    2    3    3    0    0  0.16103134327E+02  0.22320185511E+01 -0.10359665979E+02  0.81433989311E+02  0.79119397709E+02 0.  0.
         -6    2    1    2    0  502 -0.16014273795E+03 -0.98502836303E+02 -0.31806274140E+03  0.40712092499E+03  0.17098255706E+03 0.  0.
        -24    2    5    5    0    0 -0.48813100130E+02 -0.54262539198E+02 -0.63160653617E+02  0.12543198928E+03  0.80104768050E+02 0.  0.
          5    1    3    3  501    0  0.14403960363E+03  0.96270817752E+02  0.43003980093E+01  0.17336683993E+03  0.47000000000E+01 0. -1.
        -11    1    4    4    0    0  0.26558491207E+02  0.20984012766E+02  0.23595528032E+02  0.41260528234E+02  0.00000000000E+00 0.  1.
         12    1    4    4    0    0 -0.10455356880E+02 -0.18751994215E+02 -0.33955194012E+02  0.40173461077E+02  0.00000000000E+00 0. -1.
         -5    1    5    5    0  502 -0.11132963782E+03 -0.44240297105E+02 -0.25490208779E+03  0.28168893572E+03  0.47000000000E+01 0.  1.
         13    1    6    6    0    0  0.32793450269E+01 -0.47091664743E+02 -0.54564529198E+02  0.72150307267E+02  0.00000000000E+00 0. -1.
        -14    1    6    6    0    0 -0.52092445157E+02 -0.71708744546E+01 -0.85961244189E+01  0.53281682011E+02  0.00000000000E+00 0.  1.
</event>
<event>
12    1  0.8407180E-002  0.1891324E+03  0.7818608E-02  0.1159476E+00
         21   -1    0    0  503  502  0.00000000000E+00  0.00000000000E+00  0.12714052022E+04  0.12714052022E+04  0.00000000000E+00 0. -1.
         21   -1    0    0  501  503 -0.00000000000E+00 -0.00000000000E+00 -0.54847288938E+02  0.54847288938E+02  0.00000000000E+00 0. -1.
          6    2    1    2  501    0 -0.60551649046E+02  0.37254319250E+02  0.14337459708E+03  0.23653074221E+03  0.17417270285E+03 0.  0.
         24    2    3    3    0    0 -0.69418236893E+01  0.43169773243E+02  0.15609174849E+03  0.18091759709E+03  0.80341301663E+02 0.  0.
         -6    2    1    2    0  502  0.60551649046E+02 -0.37254319250E+02  0.10731833162E+04  0.10897217489E+04  0.17526172839E+03 0.  0.
        -24    2    5    5    0    0  0.55867098227E-01 -0.41319668425E+02  0.92815557419E+03  0.93245953908E+03  0.79376973994E+02 0.  0.
          5    1    3    3  501    0 -0.53609825357E+02 -0.59154539925E+01 -0.12717151408E+02  0.55613145125E+02  0.47000000000E+01 0. -1.
        -11    1    4    4    0    0 -0.22018296010E+02  0.23180681201E+02  0.15227020943E+03  0.15559037894E+03  0.00000000000E+00 0.  1.
         12    1    4    4    0    0  0.15076472321E+02  0.19989092042E+02  0.38215390589E+01  0.25327218147E+02  0.00000000000E+00 0. -1.
         -5    1    5    5    0  502  0.60495781948E+02  0.40653491750E+01  0.14502774200E+03  0.15726220985E+03  0.47000000000E+01 0.  1.
         13    1    6    6    0    0 -0.23281867264E+02  0.15211298462E+02  0.24564631695E+03  0.24721557794E+03  0.00000000000E+00 0. -1.
        -14    1    6    6    0    0  0.23337734363E+02 -0.56530966887E+02  0.68250925724E+03  0.68524396114E+03  0.00000000000E+00 0.  1.
</event>
<event>
12    1  0.8407180E-002  0.2036554E+03  0.7818608E-02  0.1147519E+00
         21   -1    0    0  501  502  0.00000000000E+00  0.00000000000E+00  0.14118887296E+03  0.14118887296E+03  0.00000000000E+00 0. -1.
         21   -1    0    0  502  503 -0.00000000000E+00 -0.00000000000E+00 -0.45828637749E+03  0.45828637749E+03  0.00000000000E+00 0.  1.
         -6    2    1    2    0  503  0.94727258967E+02 -0.41052731413E+02 -0.34220830330E+03  0.39822359350E+03  0.17554750703E+03 0.  0.
        -24    2    3    3    0    0  0.86133649877E+01 -0.66239345641E+01 -0.55347411007E+02  0.96707082649E+02  0.78554804842E+02 0.  0.
          6    2    1    2  501    0 -0.94727258967E+02  0.41052731413E+02  0.25110798764E+02  0.20125165695E+03  0.17091839241E+03 0.  0.
         24    2    5    5    0    0 -0.10077785946E+03 -0.12006576954E+02  0.54326000647E+02  0.14019825416E+03  0.80024379261E+02 0.  0.
          5    1    5    5  501    0  0.60506004947E+01  0.53059308367E+02 -0.29215201883E+02  0.61053402786E+02  0.47000000000E+01 0. -1.
        -11    1    6    6    0    0 -0.61722688307E+02 -0.33502322415E+02  0.39844355502E+00  0.70230012219E+02  0.00000000000E+00 0.  1.
         12    1    6    6    0    0 -0.39055171155E+02  0.21495745460E+02  0.53927557092E+02  0.69968241944E+02  0.00000000000E+00 0. -1.
         -5    1    3    3    0  503  0.86113893979E+02 -0.34428796849E+02 -0.28686089230E+03  0.30151651085E+03  0.47000000000E+01 0.  1.
         11    1    4    4    0    0 -0.25939909094E+02  0.20756453372E+02 -0.34651593546E+02  0.48004605776E+02  0.00000000000E+00 0. -1.
        -12    1    4    4    0    0  0.34553274081E+02 -0.27380387936E+02 -0.20695817460E+02  0.48702476874E+02  0.00000000000E+00 0.  1.
</event>
<event>
12    1  0.8407180E-002  0.2033359E+03  0.7818608E-02  0.1147693E+00
         21   -1    0    0  501  502  0.00000000000E+00  0.00000000000E+00  0.45214163436E+03  0.45214163436E+03  0.00000000000E+00 0. -1.
         21   -1    0    0  502  503 -0.00000000000E+00 -0.00000000000E+00 -0.91115646794E+02  0.91115646794E+02  0.00000000000E+00 0. -1.
         -6    2    1    2    0  503  0.66463239049E+02  0.76338887174E+02  0.15016716844E+03  0.25277589890E+03  0.17635330659E+03 0.  0.
        -24    2    3    3    0    0  0.14861936142E+02  0.14304771723E+02  0.15087357011E+03  0.17194573779E+03  0.79856114012E+02 0.  0.
          6    2    1    2  501    0 -0.66463239049E+02 -0.76338887174E+02  0.21085881913E+03  0.29048138226E+03  0.17225853823E+03 0.  0.
         24    2    5    5    0    0  0.30778552008E+02 -0.41360270636E+02  0.81513749596E+02  0.12485618322E+03  0.79287980584E+02 0.  0.
          5    1    5    5  501    0 -0.97241791057E+02 -0.34978616538E+02  0.12934506953E+03  0.16562519903E+03  0.47000000000E+01 0. -1.
        -13    1    6    6    0    0  0.30202277720E+02 -0.39682865243E+02  0.97106391737E+02  0.10916299139E+03  0.00000000000E+00 0.  1.
         14    1    6    6    0    0  0.57627428788E+00 -0.16774053922E+01 -0.15592642141E+02  0.15693191831E+02  0.00000000000E+00 0. -1.
         -5    1    3    3    0  503  0.51601302907E+02  0.62034115450E+02 -0.70640167452E+00  0.80830161108E+02  0.47000000000E+01 0.  1.
         13    1    4    4    0    0 -0.22484253010E+02  0.16766578438E+02  0.16684314875E+02  0.32634738374E+02  0.00000000000E+00 0. -1.
        -14    1    4    4    0    0  0.37346189151E+02 -0.24618067149E+01  0.13418925524E+03  0.13931099941E+03  0.00000000000E+00 0.  1.
</event>
<event>
12    1  0.8407180E-002  0.1821551E+03  0.7818608E-02  0.1166271E+00
         21   -1    0    0  501  502  0.00000000000E+00  0.00000000000E+00  0.27140598356E+03  0.27140598356E+03  0.00000000000E+00 0.  1.
         21   -1    0    0  502  503 -0.00000000000E+00 -0.00000000000E+00 -0.17774712870E+03  0.17774712870E+03  0.00000000000E+00 0.  1.
         -6    2    1    2    0  503 -0.34193383582E+02 -0.50105018778E+02 -0.80139072288E+02  0.19900438852E+03  0.17175789750E+03 0.  0.
        -24    2    3    3    0    0  0.28449761228E+02 -0.47103625339E+02 -0.92325704267E+02  0.13494366769E+03  0.81594223731E+02 0.  0.
          6    2    1    2  501    0  0.34193383582E+02  0.50105018778E+02  0.17379792715E+03  0.25014872374E+03  0.16937816895E+03 0.  0.
         24    2    5    5    0    0  0.12698943716E+02  0.50081587238E+02  0.19139436955E+03  0.22197539806E+03  0.99859121250E+02 0.  0.
          5    1    5    5  501    0  0.21494439867E+02  0.23431540054E-01 -0.17596442404E+02  0.28173325673E+02  0.47000000000E+01 0. -1.
        -13    1    6    6    0    0  0.26551239509E+02 -0.24126090307E+02  0.48013356025E+02  0.59935956735E+02  0.00000000000E+00 0.  1.
         14    1    6    6    0    0 -0.13852295793E+02  0.74207677545E+02  0.14338101353E+03  0.16203944133E+03  0.00000000000E+00 0. -1.
         -5    1    3    3    0  503 -0.62643144810E+02 -0.30013934392E+01  0.12186631979E+02  0.64060720830E+02  0.47000000000E+01 0.  1.
         13    1    4    4    0    0  0.21389906648E+02 -0.16126241423E+02 -0.98930218834E+02  0.10249278983E+03  0.00000000000E+00 0. -1.
        -14    1    4    4    0    0  0.70598545802E+01 -0.30977383915E+02  0.66045145665E+01  0.32450877856E+02  0.00000000000E+00 0.  1.
</event>
<event>
12    1  0.8407180E-002  0.1879404E+03  0.7818608E-02  0.1160594E+00
         21   -1    0    0  501  502  0.00000000000E+00  0.00000000000E+00  0.37063316986E+03  0.37063316986E+03  0.00000000000E+00 0. -1.
         21   -1    0    0  502  503 -0.00000000000E+00 -0.00000000000E+00 -0.14117136968E+03  0.14117136968E+03  0.00000000000E+00 0. -1.
         -6    2    1    2    0  503  0.21159853868E+02  0.71214090422E+02  0.26175158496E+03  0.32223512218E+03  0.17263370369E+03 0.  0.
        -24    2    3    3    0    0 -0.38294377472E+02 -0.42564184329E+01  0.15250529499E+03  0.17667604413E+03  0.80448636572E+02 0.  0.
          6    2    1    2  501    0 -0.21159853868E+02 -0.71214090422E+02 -0.32289784788E+02  0.18956941735E+03  0.17139062898E+03 0.  0.
         24    2    5    5    0    0 -0.35648705201E+02  0.18853103704E+02  0.57601077893E+01  0.90615334083E+02  0.80942511868E+02 0.  0.
          5    1    5    5  501    0  0.14488851333E+02 -0.90067194126E+02 -0.38049892577E+02  0.98954083270E+02  0.47000000000E+01 0. -1.
        -11    1    6    6    0    0 -0.82146172022E+01  0.22911309529E+02  0.39834418308E+02  0.46681783621E+02  0.00000000000E+00 0.  1.
         12    1    6    6    0    0 -0.27434087998E+02 -0.40582058256E+01 -0.34074310519E+02  0.43933550462E+02  0.00000000000E+00 0. -1.
         -5    1    3    3    0  503  0.59454231340E+02  0.75470508855E+02  0.10924628997E+03  0.14555907805E+03  0.47000000000E+01 0.  1.
         11    1    4    4    0    0  0.12993908929E+02 -0.26681244435E+02  0.31100559005E+02  0.42988082584E+02  0.00000000000E+00 0. -1.
        -12    1    4    4    0    0 -0.51288286400E+02  0.22424826002E+02  0.12140473599E+03  0.13368796155E+03  0.00000000000E+00 0.  1.
</event>
<event>
12    1  0.8407180E-002  0.1925293E+03  0.7818608E-02  0.1158412E+00
         21   -1    0    0  503  502  0.00000000000E+00  0.00000000000E+00  0.13160002109E+04  0.13160002109E+04  0.00000000000E+00 0.  1.
         21   -1    0    0  501  503 -0.00000000000E+00 -0.00000000000E+00 -0.90687963523E+02  0.90687963523E+02  0.00000000000E+00 0.  1.
          6    2    1    2  501    0  0.23549920141E+02 -0.58386581436E+02  0.17531069417E+02  0.18365796378E+03  0.17163716857E+03 0.  0.
         24    2    3    3    0    0  0.39589802946E+02 -0.84751368878E+02 -0.30254083293E+02  0.12658002867E+03  0.79731092294E+02 0.  0.
         -6    2    1    2    0  502 -0.23549920141E+02  0.58386581436E+02  0.12077811779E+04  0.12230302106E+04  0.18194485613E+03 0.  0.
        -24    2    5    5    0    0 -0.64094173383E+02  0.71807192717E+02  0.56394523555E+03  0.57776223528E+03  0.80688511171E+02 0.  0.
          5    1    3    3  501    0 -0.16039882806E+02  0.26364787442E+02  0.47785152709E+02  0.57077935113E+02  0.47000000000E+01 0. -1.
        -11    1    4    4    0    0 -0.10123113075E+02 -0.52725109408E+02  0.10573519194E+02  0.54719410529E+02  0.00000000000E+00 0.  1.
         12    1    4    4    0    0  0.49712916021E+02 -0.32026259470E+02 -0.40827602487E+02  0.71860618143E+02  0.00000000000E+00 0. -1.
         -5    1    5    5    0  502  0.40544253243E+02 -0.13420611281E+02  0.64383594237E+03  0.64526797531E+03  0.47000000000E+01 0.  1.
         11    1    6    6    0    0  0.98367962138E+01  0.86048927417E+01  0.21835073798E+03  0.21874151758E+03  0.00000000000E+00 0. -1.
        -12    1    6    6    0    0 -0.73930969597E+02  0.63202299976E+02  0.34559449757E+03  0.35902071770E+03  0.00000000000E+00 0.  1.
</event>
<event>
12    1  0.8407180E-002  0.1984796E+03  0.7818608E-02  0.1152293E+00
         21   -1    0    0  501  502  0.00000000000E+00  0.00000000000E+00  0.14505733552E+04  0.14505733552E+04  0.00000000000E+00 0.  1.
         21   -1    0    0  502  503 -0.00000000000E+00 -0.00000000000E+00 -0.33280794263E+02  0.33280794263E+02  0.00000000000E+00 0.  1.
         -6    2    1    2    0  503  0.84237179229E+01  0.85857727426E+02  0.10384619599E+04  0.10561781105E+04  0.17223951551E+03 0.  0.
        -24    2    3    3    0    0 -0.69996234285E+01  0.82736222385E+01  0.81616685337E+03  0.82018154867E+03  0.80324297065E+02 0.  0.
          6    2    1    2  501    0 -0.84237179229E+01 -0.85857727426E+02  0.37883060104E+03  0.42767603889E+03  0.17875027715E+03 0.  0.
         24    2    5    5    0    0 -0.30457233788E+02 -0.11846859129E+03  0.22675979042E+03  0.27052462877E+03  0.82468915398E+02 0.  0.
          5    1    5    5  501    0  0.22033515865E+02  0.32610863861E+02  0.15207081061E+03  0.15715141012E+03  0.47000000000E+01 0. -1.
        -11    1    6    6    0    0 -0.20286149443E+02 -0.11341743879E+03  0.23121000028E+03  0.25832751985E+03  0.00000000000E+00 0.  1.
         12    1    6    6    0    0 -0.10171084345E+02 -0.50511525013E+01 -0.44502098570E+01  0.12197108925E+02  0.00000000000E+00 0. -1.
         -5    1    3    3    0  503  0.15423341351E+02  0.77584105188E+02  0.22229510649E+03  0.23599656185E+03  0.47000000000E+01 0.  1.
         13    1    4    4    0    0  0.11382534103E+02 -0.23116814827E+02  0.10612016486E+03  0.10920365654E+03  0.00000000000E+00 0. -1.
        -14    1    4    4    0    0 -0.18382157532E+02  0.31390437065E+02  0.71004668850E+03  0.71097789214E+03  0.00000000000E+00 0.  1.
</event>
<event>
12    1  0.8407180E-002  0.2796029E+03  0.7818608E-02  0.1095919E+00
         21   -1    0    0  501  502  0.00000000000E+00  0.00000000000E+00  0.28964327075E+03  0.28964327075E+03  0.00000000000E+00 0. -1.
         21   -1    0    0  502  503 -0.00000000000E+00 -0.00000000000E+00 -0.31427832736E+03  0.31427832736E+03  0.00000000000E+00 0.  1.
         -6    2    1    2    0  503  0.48996468773E+02 -0.21452345726E+03  0.10126154322E+03  0.29728215627E+03  0.17234213830E+03 0.  0.
        -24    2    3    3    0    0 -0.34039485956E+01 -0.17225062197E+03  0.12379625325E+03  0.22612950698E+03  0.78276292559E+02 0.  0.
          6    2    1    2  501    0 -0.48996468773E+02  0.21452345726E+03 -0.12589659983E+03  0.30663944184E+03  0.17250166890E+03 0.  0.
         24    2    5    5    0    0 -0.55659887453E+02  0.22772038153E+03 -0.82349022141E+02  0.26041129585E+03  0.77962082588E+02 0.  0.
          5    1    5    5  501    0  0.66634186800E+01 -0.13196924270E+02 -0.43547577692E+02  0.46228145988E+02  0.47000000000E+01 0. -1.
        -13    1    6    6    0    0 -0.35346531832E+02  0.64476708820E+02 -0.58970417729E+02  0.94255681314E+02  0.00000000000E+00 0.  1.
         14    1    6    6    0    0 -0.20313355621E+02  0.16324367271E+03 -0.23378604412E+02  0.16615561453E+03  0.00000000000E+00 0. -1.
         -5    1    3    3    0  503  0.52400417369E+02 -0.42272835296E+02 -0.22534710031E+02  0.71152649287E+02  0.47000000000E+01 0.  1.
         11    1    4    4    0    0 -0.39480843986E+02 -0.71733513916E+02  0.62364814343E+02  0.10292620720E+03  0.00000000000E+00 0. -1.
        -12    1    4    4    0    0  0.36076895390E+02 -0.10051710805E+03  0.61431438906E+02  0.12320329978E+03  0.00000000000E+00 0.  1.
</event>
<event>
12    1  0.8407180E-002  0.2909633E+03  0.7818608E-02  0.1089983E+00
         21   -1    0    0  501  502  0.00000000000E+00  0.00000000000E+00  0.71135308390E+03  0.71135308390E+03  0.00000000000E+00 0. -1.
         21   -1    0    0  502  503 -0.00000000000E+00 -0.00000000000E+00 -0.13517698911E+03  0.13517698911E+03  0.00000000000E+00 0.  1.
         -6    2    1    2    0  503  0.18465053361E+03  0.14239057895E+03  0.43682844113E+03  0.52486067127E+03  0.17403660744E+03 0.  0.
        -24    2    3    3    0    0  0.15489417759E+03  0.11254926275E+03  0.43558005823E+03  0.48243905725E+03  0.79736528879E+02 0.  0.
          6    2    1    2  501    0 -0.18465053361E+03 -0.14239057895E+03  0.13934765367E+03  0.32166940174E+03  0.17228621215E+03 0.  0.
         24    2    5    5    0    0 -0.12384587527E+03 -0.12494005091E+03  0.16297948097E+03  0.25397685661E+03  0.83630827645E+02 0.  0.
          5    1    5    5  501    0 -0.60804658340E+02 -0.17450528046E+02 -0.23631827306E+02  0.67692545134E+02  0.47000000000E+01 0. -1.
        -13    1    6    6    0    0 -0.10112715382E+02 -0.63242336363E+02  0.40277697373E+02  0.75658132588E+02  0.00000000000E+00 0.  1.
         14    1    6    6    0    0 -0.11373315988E+03 -0.61697714544E+02  0.12270178360E+03  0.17831872402E+03  0.00000000000E+00 0. -1.
         -5    1    3    3    0  503  0.29756356016E+02  0.29841316202E+02  0.12483829012E+01  0.42421614018E+02  0.47000000000E+01 0.  1.
         11    1    4    4    0    0  0.60009696355E+02 -0.11509057192E+00  0.13297095614E+03  0.14588506462E+03  0.00000000000E+00 0. -1.
        -12    1    4    4    0    0  0.94884481234E+02  0.11266435332E+03  0.30260910209E+03  0.33655399263E+03  0.00000000000E+00 0.  1.
</event>
<event>
12    1  0.8407180E-002  0.2450701E+03  0.7818608E-02  0.1116694E+00
         21   -1    0    0  501  502  0.00000000000E+00  0.00000000000E+00  0.40445954457E+03  0.40445954457E+03  0.00000000000E+00 0.  1.
         21   -1    0    0  502  503 -0.00000000000E+00 -0.00000000000E+00 -0.17680829585E+03  0.17680829585E+03  0.00000000000E+00 0. -1.
         -6    2    1    2    0  503 -0.85898828277E+01  0.17175857701E+03 -0.45291222366E+01  0.24367775720E+03  0.17257908778E+03 0.  0.
        -24    2    3    3    0    0  0.33101007475E+02  0.17883334782E+03 -0.22847358105E+02  0.19735464761E+03  0.73142410233E+02 0.  0.
          6    2    1    2  501    0  0.85898828277E+01 -0.17175857701E+03  0.23218037096E+03  0.33759008323E+03  0.17459823817E+03 0.  0.
         24    2    5    5    0    0  0.60067444514E+02 -0.49672160923E+02  0.92017775019E+02  0.14465829308E+03  0.79895740663E+02 0.  0.
          5    1    5    5  501    0 -0.51477561686E+02 -0.12208641609E+03  0.14016259594E+03  0.19293179015E+03  0.47000000000E+01 0. -1.
        -13    1    6    6    0    0  0.19326958794E+02 -0.32459557579E+02  0.93042100745E+02  0.10041905559E+03  0.00000000000E+00 0.  1.
         14    1    6    6    0    0  0.40740485719E+02 -0.17212603344E+02 -0.10243257260E+01  0.44239237490E+02  0.00000000000E+00 0. -1.
         -5    1    3    3    0  503 -0.41690890302E+02 -0.70747708036E+01  0.18318235869E+02  0.46323109583E+02  0.47000000000E+01 0.  1.
         11    1    4    4    0    0  0.21858416898E+02  0.75276988773E+02 -0.45668076941E+02  0.90719285048E+02  0.00000000000E+00 0. -1.
        -12    1    4    4    0    0  0.11242590577E+02  0.10355635904E+03  0.22820718835E+02  0.10663536256E+03  0.00000000000E+00 0.  1.
</event>
<event>
12    1  0.8407180E-002  0.1789834E+03  0.7818608E-02  0.1168986E+00
         21   -1    0    0  503  502  0.00000000000E+00  0.00000000000E+00  0.56979150161E+02  0.56979150161E+02  0.00000000000E+00 0.  1.
         21   -1    0    0  501  503 -0.00000000000E+00 -0.00000000000E+00 -0.96926769064E+03  0.96926769064E+03  0.00000000000E+00 0.  1.
          6    2    1    2  501    0 -0.43650430011E+02 -0.18781122531E+02 -0.79027996429E+03  0.81029468810E+03  0.17256004463E+03 0.  0.
         24    2    3    3    0    0  0.31729918697E+02  0.27933942374E+01 -0.57267837194E+03  0.57895035656E+03  0.78793444376E+02 0.  0.
         -6    2    1    2    0  502  0.43650430011E+02  0.18781122531E+02 -0.12200857619E+03  0.21595215270E+03  0.17172987215E+03 0.  0.
        -24    2    5    5    0    0  0.52812938712E+02 -0.52230403274E+02 -0.67774116125E+02  0.12600741955E+03  0.75942856437E+02 0.  0.
          5    1    3    3  501    0 -0.75380348708E+02 -0.21574516769E+02 -0.21760159235E+03  0.23134433154E+03  0.47000000000E+01 0. -1.
        -13    1    4    4    0    0  0.53084039000E+01  0.37795517607E+02 -0.34349195757E+03  0.34560585240E+03  0.00000000000E+00 0.  1.
         14    1    4    4    0    0  0.26421514797E+02 -0.35002123369E+02 -0.22918641438E+03  0.23334450416E+03  0.00000000000E+00 0. -1.
         -5    1    5    5    0  502 -0.91625087006E+01  0.71011525805E+02 -0.54234460064E+02  0.89944733149E+02  0.47000000000E+01 0.  1.
         13    1    6    6    0    0  0.68991614075E+02 -0.24256901455E+02 -0.39767099254E+02  0.83244593001E+02  0.00000000000E+00 0. -1.
        -14    1    6    6    0    0 -0.16178675363E+02 -0.27973501819E+02 -0.28007016872E+02  0.42762826550E+02  0.00000000000E+00 0.  1.
</event>
<event>
12    1  0.8407180E-002  0.2458281E+03  0.7818608E-02  0.1116035E+00
         21   -1    0    0  503  502  0.00000000000E+00  0.00000000000E+00  0.43450236376E+03  0.43450236376E+03  0.00000000000E+00 0.  1.
         21   -1    0    0  501  503 -0.00000000000E+00 -0.00000000000E+00 -0.13914882254E+03  0.13914882254E+03  0.00000000000E+00 0. -1.
          6    2    1    2  501    0  0.65456631071E+01 -0.17509512153E+03  0.16074893974E+03  0.29338368644E+03  0.17185057042E+03 0.  0.
         24    2    3    3    0    0 -0.39245441963E+02 -0.16207250397E+03  0.81712102577E+02  0.20099686108E+03  0.76910137160E+02 0.  0.
         -6    2    1    2    0  502 -0.65456631071E+01  0.17509512153E+03  0.13460460148E+03  0.28026749986E+03  0.17242484001E+03 0.  0.
        -24    2    5    5    0    0 -0.31788932338E+02  0.73197776099E+02  0.13377679452E+03  0.17518150217E+03  0.80149094221E+02 0.  0.
          5    1    3    3  501    0  0.45791105070E+02 -0.13022617560E+02  0.79036837159E+02  0.92386825358E+02  0.47000000000E+01 0. -1.
        -11    1    4    4    0    0  0.17309084535E+02 -0.89454557630E+02  0.47925183112E+02  0.10294923732E+03  0.00000000000E+00 0.  1.
         12    1    4    4    0    0 -0.56554526498E+02 -0.72617946341E+02  0.33786919465E+02  0.98047623760E+02  0.00000000000E+00 0. -1.
         -5    1    5    5    0  502  0.25243269231E+02  0.10189734543E+03  0.82780695800E+00  0.10508599770E+03  0.47000000000E+01 0.  1.
         11    1    6    6    0    0  0.45660533285E+01  0.75899649448E+02  0.81652574099E+02  0.11157395971E+03  0.00000000000E+00 0. -1.
        -12    1    6    6    0    0 -0.36354985667E+02 -0.27018733485E+01  0.52124220420E+02  0.63607542453E+02  0.00000000000E+00 0.  1.
</event>
<event>
12    1  0.8407180E-002  0.2158121E+03  0.7818608E-02  0.1137162E+00
         21   -1    0    0  501  502  0.00000000000E+00  0.00000000000E+00  0.35829768398E+03  0.35829768398E+03  0.00000000000E+00 0. -1.
         21   -1    0    0  502  503 -0.00000000000E+00 -0.00000000000E+00 -0.13088600069E+03  0.13088600069E+03  0.00000000000E+00 0. -1.
         -6    2    1    2    0  503  0.70192640235E+02 -0.10995394767E+03  0.89810112461E+02  0.23375352150E+03  0.17192432975E+03 0.  0.
        -24    2    3    3    0    0  0.89639380670E+02 -0.88348469261E+02  0.18784005738E+02  0.15686548441E+03  0.91723883149E+02 0.  0.
          6    2    1    2  501    0 -0.70192640235E+02  0.10995394767E+03  0.13760157083E+03  0.25543016318E+03  0.17115343589E+03 0.  0.
         24    2    5    5    0    0 -0.80037385769E+02  0.88260302909E+02  0.16540670392E+03  0.21851473735E+03  0.78698465976E+02 0.  0.
          5    1    5    5  501    0  0.98447455346E+01  0.21693644759E+02 -0.27805133095E+02  0.36915425827E+02  0.47000000000E+01 0. -1.
        -13    1    6    6    0    0 -0.40944926713E+02 -0.53979848001E+01  0.48434454893E+02  0.63651564664E+02  0.00000000000E+00 0.  1.
         14    1    6    6    0    0 -0.39092459056E+02  0.93658287709E+02  0.11697224903E+03  0.15486317269E+03  0.00000000000E+00 0. -1.
         -5    1    3    3    0  503 -0.19446740435E+02 -0.21605478408E+02  0.71026106723E+02  0.76888037087E+02  0.47000000000E+01 0.  1.
         13    1    4    4    0    0  0.55491479909E+02 -0.92495993318E+02  0.41577037454E+02  0.11560044622E+03  0.00000000000E+00 0. -1.
        -14    1    4    4    0    0  0.34147900762E+02  0.41475240573E+01 -0.22793031715E+02  0.41265038192E+02  0.00000000000E+00 0.  1.
</event>
<event>
12    1  0.8407180E-002  0.3197715E+03  0.7818608E-02  0.1075844E+00
         21   -1    0    0  503  502  0.00000000000E+00  0.00000000000E+00  0.47156962627E+03  0.47156962627E+03  0.00000000000E+00 0.  1.
         21   -1    0    0  501  503 -0.00000000000E+00 -0.00000000000E+00 -0.42763027584E+03  0.42763027584E+03  0.00000000000E+00 0. -1.
          6    2    1    2  501    0  0.23254466319E+03 -0.13502266955E+03 -0.29407166260E+03  0.43443291540E+03  0.17304818279E+03 0.  0.
         24    2    3    3    0    0  0.41916523745E+02 -0.15398565626E+02 -0.11494650324E+03  0.14675787911E+03  0.79567994114E+02 0.  0.
         -6    2    1    2    0  502 -0.23254466319E+03  0.13502266955E+03  0.33801101303E+03  0.46476698670E+03  0.17160642565E+03 0.  0.
        -24    2    5    5    0    0 -0.18147630836E+03  0.96563717517E+02  0.15204686205E+03  0.26806461430E+03  0.80512031053E+02 0.  0.
          5    1    3    3  501    0  0.19062813945E+03 -0.11962410393E+03 -0.17912515936E+03  0.28767503630E+03  0.47000000000E+01 0. -1.
        -13    1    4    4    0    0  0.35611263567E+02 -0.24165641809E+01 -0.52040934521E+01  0.36070548428E+02  0.00000000000E+00 0.  1.
         14    1    4    4    0    0  0.63052601781E+01 -0.12982001445E+02 -0.10974240978E+03  0.11068733068E+03  0.00000000000E+00 0. -1.
         -5    1    5    5    0  502 -0.51068354831E+02  0.38458952037E+02  0.18596415098E+03  0.19670237240E+03  0.47000000000E+01 0.  1.
         11    1    6    6    0    0 -0.44320804002E+02 -0.11687113474E+02  0.26953564593E+02  0.53173460796E+02  0.00000000000E+00 0. -1.
        -12    1    6    6    0    0 -0.13715550436E+03  0.10825083099E+03  0.12509329746E+03  0.21489115351E+03  0.00000000000E+00 0.  1.
</event>
<event>
12    1  0.8407180E-002  0.2345951E+03  0.7818608E-02  0.1123754E+00
         21   -1    0    0  501  502  0.00000000000E+00  0.00000000000E+00  0.37400751868E+03  0.37400751868E+03  0.00000000000E+00 0. -1.
         21   -1    0    0  502  503 -0.00000000000E+00 -0.00000000000E+00 -0.16053230912E+03  0.16053230912E+03  0.00000000000E+00 0. -1.
         -6    2    1    2    0  503  0.10525379645E+03 -0.11709342874E+03  0.26040236611E+02  0.23426205700E+03  0.17149747726E+03 0.  0.
        -24    2    3    3    0    0  0.11079241744E+02 -0.11162753917E+03  0.18078887188E+02  0.13947705931E+03  0.80892192539E+02 0.  0.
          6    2    1    2  501    0 -0.10525379645E+03  0.11709342874E+03  0.18743497295E+03  0.30027777080E+03  0.17391273050E+03 0.  0.
         24    2    5    5    0    0  0.17379166885E+02  0.38707464429E+02  0.76631629816E+02  0.11729505592E+03  0.78009103380E+02 0.  0.
          5    1    5    5  501    0 -0.12263296333E+03  0.78385964310E+02  0.11080334313E+03  0.18298271488E+03  0.47000000000E+01 0. -1.
        -11    1    6    6    0    0 -0.91695866071E+01  0.92948620261E-01 -0.13143137018E+02  0.16025979180E+02  0.00000000000E+00 0.  1.
         12    1    6    6    0    0  0.26548753492E+02  0.38614515809E+02  0.89774766834E+02  0.10126907674E+03  0.00000000000E+00 0. -1.
         -5    1    3    3    0  503  0.94174554701E+02 -0.54658895686E+01  0.79613494229E+01  0.94784997687E+02  0.47000000000E+01 0.  1.
         13    1    4    4    0    0  0.44312707563E+02 -0.55192297074E+02 -0.25072999500E+01  0.70824376177E+02  0.00000000000E+00 0. -1.
        -14    1    4    4    0    0 -0.33233465819E+02 -0.56435242097E+02  0.20586187138E+02  0.68652683136E+02  0.00000000000E+00 0.  1.
</event>
<event>
12    1  0.8407180E-002  0.2018152E+03  0.7818608E-02  0.1148872E+00
         21   -1    0    0  503  502  0.00000000000E+00  0.00000000000E+00  0.54889574394E+03  0.54889574394E+03  0.00000000000E+00 0.  1.
         21   -1    0    0  501  503 -0.00000000000E+00 -0.00000000000E+00 -0.73169144015E+02  0.73169144015E+02  0.00000000000E+00 0. -1.
          6    2    1    2  501    0  0.44724342359E+02  0.91901389283E+02  0.22400835292E+03  0.29943283037E+03  0.17039408902E+03 0.  0.
         24    2    3    3    0    0  0.37121847235E+02  0.10083826032E+03  0.79733372681E+02  0.15460525869E+03  0.77453140726E+02 0.  0.
         -6    2    1    2    0  502 -0.44724342359E+02 -0.91901389283E+02  0.25171824700E+03  0.32263205759E+03  0.17402079346E+03 0.  0.
        -24    2    5    5    0    0 -0.43087386714E+02 -0.91488112874E+02  0.81969824323E+02  0.15281018790E+03  0.80033141478E+02 0.  0.
          5    1    3    3  501    0  0.76024951244E+01 -0.89368710370E+01  0.14427498024E+03  0.14482757168E+03  0.47000000000E+01 0. -1.
        -13    1    4    4    0    0 -0.11857862414E+02  0.62736244748E+02  0.64398106581E+02  0.90683854336E+02  0.00000000000E+00 0.  1.
         14    1    4    4    0    0  0.48979709649E+02  0.38102015572E+02  0.15335266100E+02  0.63921404352E+02  0.00000000000E+00 0. -1.
         -5    1    5    5    0  502 -0.16369556452E+01 -0.41327640872E+00  0.16974842268E+03  0.16982186969E+03  0.47000000000E+01 0.  1.
         13    1    6    6    0    0 -0.65528150715E+02 -0.52689989126E+02  0.51240164057E+02  0.98466887342E+02  0.00000000000E+00 0. -1.
        -14    1    6    6    0    0  0.22440764000E+02 -0.38798123748E+02  0.30729660266E+02  0.54343300556E+02  0.00000000000E+00 0.  1.
</event>
<event>
12    1  0.8407180E-002  0.1912377E+03  0.7818608E-02  0.1158201E+00
         21   -1    0    0  501  502  0.00000000000E+00  0.00000000000E+00  0.28713647186E+03  0.28713647186E+03  0.00000000000E+00 0. -1.
         21   -1    0    0  502  503 -0.00000000000E+00 -0.00000000000E+00 -0.14881813563E+03  0.14881813563E+03  0.00000000000E+00 0.  1.
         -6    2    1    2    0  503 -0.54895900773E+01 -0.79724717100E+02 -0.18856829109E+02  0.18841496040E+03  0.16958316893E+03 0.  0.
        -24    2    3    3    0    0  0.33094236505E+02  0.79384190190E+01 -0.29196895391E+02  0.91965263261E+02  0.80292614604E+02 0.  0.
          6    2    1    2  501    0  0.54895900773E+01  0.79724717100E+02  0.15717516533E+03  0.24753964709E+03  0.17374026064E+03 0.  0.
         24    2    5    5    0    0  0.50161866320E+02  0.27582040058E+02  0.12954139225E+03  0.17337640519E+03  0.10000711878E+03 0.  0.
          5    1    5    5  501    0 -0.44672276243E+02  0.52142677043E+02  0.27633773086E+02  0.74163241898E+02  0.47000000000E+01 0. -1.
        -13    1    6    6    0    0 -0.21485782216E+02  0.35484265156E+02  0.33652431005E+02  0.53415896731E+02  0.00000000000E+00 0.  1.
         14    1    6    6    0    0  0.71647648535E+02 -0.79022250982E+01  0.95888961243E+02  0.11996050846E+03  0.00000000000E+00 0. -1.
         -5    1    3    3    0  503 -0.38583826582E+02 -0.87663136119E+02  0.10340066282E+02  0.96449697141E+02  0.47000000000E+01 0.  1.
         13    1    4    4    0    0 -0.15289582719E+02  0.30268255963E+02 -0.11989301756E+02  0.35967791361E+02  0.00000000000E+00 0. -1.
        -14    1    4    4    0    0  0.48383819223E+02 -0.22329836944E+02 -0.17207593634E+02  0.55997471901E+02  0.00000000000E+00 0.  1.
</event>
<event>
12    1  0.8407180E-002  0.2340857E+03  0.7818608E-02  0.1123974E+00
         21   -1    0    0  501  502  0.00000000000E+00  0.00000000000E+00  0.53778681566E+02  0.53778681566E+02  0.00000000000E+00 0.  1.
         21   -1    0    0  502  503 -0.00000000000E+00 -0.00000000000E+00 -0.10246511002E+04  0.10246511002E+04  0.00000000000E+00 0. -1.
         -6    2    1    2    0  503  0.14183930145E+03  0.67546994943E+02 -0.53816531655E+03  0.58646277592E+03  0.17215021242E+03 0.  0.
        -24    2    3    3    0    0  0.11368190724E+03 -0.20885410649E+02 -0.33321913875E+03  0.36143354447E+03  0.78990102111E+02 0.  0.
          6    2    1    2  501    0 -0.14183930145E+03 -0.67546994943E+02 -0.43270710211E+03  0.49196700588E+03  0.17353707009E+03 0.  0.
         24    2    5    5    0    0 -0.15130163363E+03 -0.89714255693E+02 -0.29001363981E+03  0.34717599317E+03  0.74043412529E+02 0.  0.
          5    1    5    5  501    0  0.94623321869E+01  0.22167260750E+02 -0.14269346230E+03  0.14479101271E+03  0.47000000000E+01 0. -1.
        -13    1    6    6    0    0 -0.35571453657E+02 -0.25785213461E+02 -0.23866615629E+02  0.49998208869E+02  0.00000000000E+00 0.  1.
         14    1    6    6    0    0 -0.11573017998E+03 -0.63929042232E+02 -0.26614702418E+03  0.29717778430E+03  0.00000000000E+00 0. -1.
         -5    1    3    3    0  503  0.28157394212E+02  0.88432405592E+02 -0.20494617780E+03  0.22502923144E+03  0.47000000000E+01 0.  1.
         13    1    4    4    0    0 -0.42929287743E+00 -0.25772296154E+02 -0.62606356499E+02  0.67704884725E+02  0.00000000000E+00 0. -1.
        -14    1    4    4    0    0  0.11411120011E+03  0.48868855057E+01 -0.27061278225E+03  0.29372865975E+03  0.00000000000E+00 0.  1.
</event>
<event>
12    1  0.8407180E-002  0.1902664E+03  0.7818608E-02  0.1158307E+00
         21   -1    0    0  501  502  0.00000000000E+00  0.00000000000E+00  0.42555318308E+03  0.42555318308E+03  0.00000000000E+00 0. -1.
         21   -1    0    0  502  503 -0.00000000000E+00 -0.00000000000E+00 -0.12520458251E+03  0.12520458251E+03  0.00000000000E+00 0. -1.
         -6    2    1    2    0  503 -0.78788397402E+02 -0.18034094245E+02 -0.59674967339E+01  0.19035993312E+03  0.17224532795E+03 0.  0.
        -24    2    3    3    0    0 -0.33245905979E+02 -0.36829265723E+02 -0.64563467529E+02  0.11365951077E+03  0.79299167525E+02 0.  0.
          6    2    1    2  501    0  0.78788397402E+02  0.18034094245E+02  0.30631609730E+03  0.36039783247E+03  0.17182609249E+03 0.  0.
         24    2    5    5    0    0  0.39502832510E+02  0.75618585140E+02  0.22347282951E+03  0.25202612851E+03  0.79362583921E+02 0.  0.
          5    1    5    5  501    0  0.39285564892E+02 -0.57584490895E+02  0.82843267789E+02  0.10837170396E+03  0.47000000000E+01 0. -1.
        -13    1    6    6    0    0  0.31276802069E+02  0.19258539281E+02  0.22354876081E+02  0.42998490293E+02  0.00000000000E+00 0.  1.
         14    1    6    6    0    0  0.82260304409E+01  0.56360045859E+02  0.20111795343E+03  0.20902763822E+03  0.00000000000E+00 0. -1.
         -5    1    3    3    0  503 -0.45542491423E+02  0.18795171478E+02  0.58595970795E+02  0.76700422354E+02  0.47000000000E+01 0.  1.
         11    1    4    4    0    0 -0.13113127012E+02 -0.60705837102E+02 -0.39372608681E+02  0.73534720184E+02  0.00000000000E+00 0. -1.
        -12    1    4    4    0    0 -0.20132778967E+02  0.23876571379E+02 -0.25190858848E+02  0.40124790582E+02  0.00000000000E+00 0.  1.
</event>
<event>
12    1  0.8407180E-002  0.2200326E+03  0.7818608E-02  0.1134446E+00
         21   -1    0    0  503  502  0.00000000000E+00  0.00000000000E+00  0.37480410657E+02  0.37480410657E+02  0.00000000000E+00 0. -1.
         21   -1    0    0  501  503 -0.00000000000E+00 -0.00000000000E+00 -0.13455887139E+04  0.13455887139E+04  0.00000000000E+00 0. -1.
          6    2    1    2  501    0  0.11448859081E+03 -0.66118656271E+02 -0.81862087311E+03  0.84767592409E+03  0.17588355310E+03 0.  0.
         24    2    3    3    0    0 -0.13836667212E+01 -0.14809122835E+02 -0.17794686468E+03  0.19457231564E+03  0.77279199734E+02 0.  0.
         -6    2    1    2    0  502 -0.11448859081E+03  0.66118656271E+02 -0.48948743016E+03  0.53539320050E+03  0.17195528698E+03 0.  0.
        -24    2    5    5    0    0 -0.58219843909E+02  0.42659921187E+02 -0.45117591299E+03  0.46323818350E+03  0.76292143040E+02 0.  0.
          5    1    3    3  501    0  0.11587225754E+03 -0.51309533436E+02 -0.64067400844E+03  0.65310360845E+03  0.47000000000E+01 0. -1.
        -11    1    4    4    0    0 -0.31925461133E+02 -0.22866321311E+02 -0.13892495023E+03  0.14436843670E+03  0.00000000000E+00 0.  1.
         12    1    4    4    0    0  0.30541794412E+02  0.80571984756E+01 -0.39021914441E+02  0.50203878932E+02  0.00000000000E+00 0. -1.
         -5    1    5    5    0  502 -0.56268746905E+02  0.23458735084E+02 -0.38311517172E+02  0.72155016998E+02  0.47000000000E+01 0.  1.
         13    1    6    6    0    0 -0.36811549663E+02  0.42165512613E+02 -0.13242232691E+03  0.14376610625E+03  0.00000000000E+00 0. -1.
        -14    1    6    6    0    0 -0.21408294245E+02  0.49440857381E+00 -0.31875358609E+03  0.31947207725E+03  0.00000000000E+00 0.  1.
</event>
<event>
12    1  0.8407180E-002  0.1860088E+03  0.7818608E-02  0.1163006E+00
         21   -1    0    0  501  502  0.00000000000E+00  0.00000000000E+00  0.27113724436E+02  0.27113724436E+02  0.00000000000E+00 0.  1.
         21   -1    0    0  502  503 -0.00000000000E+00 -0.00000000000E+00 -0.15497369444E+04  0.15497369444E+04  0.00000000000E+00 0.  1.
         -6    2    1    2    0  503 -0.68360932286E+02  0.16538296330E+02 -0.11016549068E+04  0.11166185642E+04  0.16806770046E+03 0.  0.
        -24    2    3    3    0    0 -0.26158076945E+01  0.55538481655E+02 -0.43549162905E+03  0.44606726976E+03  0.78941020897E+02 0.  0.
          6    2    1    2  501    0  0.68360932286E+02 -0.16538296330E+02 -0.42096831312E+03  0.46023210459E+03  0.17219912060E+03 0.  0.
         24    2    5    5    0    0 -0.10518885482E+01 -0.43250632004E+02 -0.32891921066E+03  0.34179724554E+03  0.82254399767E+02 0.  0.
          5    1    5    5  501    0  0.69412820835E+02  0.26712335674E+02 -0.92049102458E+02  0.11843485904E+03  0.47000000000E+01 0. -1.
        -11    1    6    6    0    0  0.39875337045E+02 -0.29830108941E+02 -0.16981624686E+03  0.17696732919E+03  0.00000000000E+00 0.  1.
         12    1    6    6    0    0 -0.40927225593E+02 -0.13420523063E+02 -0.15910296381E+03  0.16482991636E+03  0.00000000000E+00 0. -1.
         -5    1    3    3    0  503 -0.65745124592E+02 -0.39000185325E+02 -0.66616327776E+03  0.67055129445E+03  0.47000000000E+01 0.  1.
         13    1    4    4    0    0 -0.28165805116E+02  0.62189088350E+02 -0.34983506136E+03  0.35643423719E+03  0.00000000000E+00 0. -1.
        -14    1    4    4    0    0  0.25549997422E+02 -0.66506066952E+01 -0.85656567691E+02  0.89633032562E+02  0.00000000000E+00 0.  1.
</event>
<event>
12    1  0.8407180E-002  0.2499018E+03  0.7818608E-02  0.1114598E+00
         21   -1    0    0  501  502  0.00000000000E+00  0.00000000000E+00  0.18412546121E+02  0.18412546121E+02  0.00000000000E+00 0. -1.
         21   -1    0    0  502  503 -0.00000000000E+00 -0.00000000000E+00 -0.36474733082E+04  0.36474733082E+04  0.00000000000E+00 0.  1.
         -6    2    1    2    0  503  0.16601485197E+03 -0.65927388269E+02 -0.12651028647E+04  0.12895488224E+04  0.17476714617E+03 0.  0.
        -24    2    3    3    0    0  0.19126619928E+03 -0.69942931755E+02 -0.11941954854E+04  0.12140259677E+04  0.79255411909E+02 0.  0.
          6    2    1    2  501    0 -0.16601485197E+03  0.65927388269E+02 -0.23639578973E+04  0.23763370319E+04  0.16362578429E+03 0.  0.
         24    2    5    5    0    0 -0.61818020303E+02 -0.64855909942E+01 -0.14391600816E+04  0.14428630316E+04  0.82513374287E+02 0.  0.
          5    1    5    5  501    0 -0.10419683167E+03  0.72412979263E+02 -0.92479781575E+03  0.93347400034E+03  0.47000000000E+01 0. -1.
        -13    1    6    6    0    0 -0.69723308837E+02 -0.27116510678E+02 -0.84903471059E+03  0.85232422512E+03  0.00000000000E+00 0.  1.
         14    1    6    6    0    0  0.79052885342E+01  0.20630919684E+02 -0.59012537099E+03  0.59053880645E+03  0.00000000000E+00 0. -1.
         -5    1    3    3    0  503 -0.25251347311E+02  0.40155434861E+01 -0.70907379335E+02  0.75522854651E+02  0.47000000000E+01 0.  1.
         11    1    4    4    0    0  0.90270255304E+02 -0.75056268668E+02 -0.64709451308E+03  0.65765756387E+03  0.00000000000E+00 0. -1.
        -12    1    4    4    0    0  0.10099594398E+03  0.51133369124E+01 -0.54710097231E+03  0.55636840386E+03  0.00000000000E+00 0.  1.
</event>
<event>
12    1  0.8407180E-002  0.1839859E+03  0.7818608E-02  0.1164657E+00
         21   -1    0    0  501  502  0.00000000000E+00  0.00000000000E+00  0.16338724769E+03  0.16338724769E+03  0.00000000000E+00 0.  1.
         21   -1    0    0  502  503 -0.00000000000E+00 -0.00000000000E+00 -0.23231898976E+03  0.23231898976E+03  0.00000000000E+00 0.  1.
         -6    2    1    2    0  503  0.31817772056E+02  0.52259822204E+02  0.34289026486E+02  0.18715384430E+03  0.17351473846E+03 0.  0.
        -24    2    3    3    0    0 -0.36510803041E+02  0.62941604089E+02  0.47314034584E+01  0.11179710792E+03  0.84743866418E+02 0.  0.
          6    2    1    2  501    0 -0.31817772056E+02 -0.52259822204E+02 -0.10322076855E+03  0.20855239316E+03  0.17057583063E+03 0.  0.
         24    2    5    5    0    0 -0.85473519578E+02 -0.38014254839E+02 -0.61830259448E+02  0.13914677612E+03  0.82389551534E+02 0.  0.
          5    1    5    5  501    0  0.53655747522E+02 -0.14245567364E+02 -0.41390509104E+02  0.69405617032E+02  0.47000000000E+01 0. -1.
        -13    1    6    6    0    0 -0.90855414818E+02 -0.26865080951E+02 -0.75173979622E+02  0.12094447564E+03  0.00000000000E+00 0.  1.
         14    1    6    6    0    0  0.53818952394E+01 -0.11149173888E+02  0.13343720173E+02  0.18202300481E+02  0.00000000000E+00 0. -1.
         -5    1    3    3    0  503  0.68328575097E+02 -0.10681781886E+02  0.29557623028E+02  0.75356736382E+02  0.47000000000E+01 0.  1.
         13    1    4    4    0    0 -0.43343651362E+02  0.76073991169E+02  0.20755282457E+02  0.89981698115E+02  0.00000000000E+00 0. -1.
        -14    1    4    4    0    0  0.68328483210E+01 -0.13132387080E+02 -0.16023878998E+02  0.21815409800E+02  0.00000000000E+00 0.  1.
</event>
<event>
12    1  0.8407180E-002  0.1935501E+03  0.7818608E-02  0.1155402E+00
         21   -1    0    0  501  502  0.00000000000E+00  0.00000000000E+00  0.54740813037E+03  0.54740813037E+03  0.00000000000E+00 0.  1.
         21   -1    0    0  502  503 -0.00000000000E+00 -0.00000000000E+00 -0.94349318974E+02  0.94349318974E+02  0.00000000000E+00 0.  1.
         -6    2    1    2    0  503 -0.86917859762E+02 -0.15165668738E+02  0.58021059556E+02  0.20205959973E+03  0.17226992377E+03 0.  0.
        -24    2    3    3    0    0 -0.10104101439E+03 -0.57414702087E+02  0.66666937103E+02  0.15643849152E+03  0.80763769852E+02 0.  0.
          6    2    1    2  501    0  0.86917859762E+02  0.15165668738E+02  0.39503775184E+03  0.43969784962E+03  0.17174009935E+03 0.  0.
         24    2    5    5    0    0  0.42762386310E+02  0.60376385167E+02  0.33569467993E+03  0.35287962054E+03  0.79744459963E+02 0.  0.
          5    1    5    5  501    0  0.44155473451E+02 -0.45210716429E+02  0.59343071918E+02  0.86818229079E+02  0.47000000000E+01 0. -1.
        -13    1    6    6    0    0  0.41501142551E+02  0.25334570827E+01  0.21562946845E+03  0.21960152755E+03  0.00000000000E+00 0.  1.
         14    1    6    6    0    0  0.12612437595E+01  0.57842928084E+02  0.12006521148E+03  0.13327809299E+03  0.00000000000E+00 0. -1.
         -5    1    3    3    0  503  0.14123154630E+02  0.42249033349E+02 -0.86458775479E+01  0.45621108208E+02  0.47000000000E+01 0.  1.
         11    1    4    4    0    0 -0.86420863545E+02 -0.18823466779E+02  0.73007459361E+02  0.11468643198E+03  0.00000000000E+00 0. -1.
        -12    1    4    4    0    0 -0.14620150846E+02 -0.38591235307E+02 -0.63405222577E+01  0.41752059540E+02  0.00000000000E+00 0.  1.
</event>
<event>
12    1  0.8407180E-002  0.3063464E+03  0.7818608E-02  0.1082294E+00
         21   -1    0    0  501  502  0.00000000000E+00  0.00000000000E+00  0.28990745330E+03  0.28990745330E+03  0.00000000000E+00 0.  1.
         21   -1    0    0  502  503 -0.00000000000E+00 -0.00000000000E+00 -0.59426336815E+03  0.59426336815E+03  0.00000000000E+00 0.  1.
         -6    2    1    2    0  503  0.20162389199E+03  0.15048814544E+03 -0.45154378911E+03  0.54565548255E+03  0.17478339857E+03 0.  0.
        -24    2    3    3    0    0  0.14004598683E+03  0.12850035431E+03 -0.20663922271E+03  0.29212907761E+03  0.80711895866E+02 0.  0.
          6    2    1    2  501    0 -0.20162389199E+03 -0.15048814544E+03  0.14718787427E+03  0.33851533890E+03  0.17213218350E+03 0.  0.
         24    2    5    5    0    0 -0.20397709122E+03 -0.91754787463E+02  0.15083622880E+03  0.27943450126E+03  0.72845575094E+02 0.  0.
          5    1    5    5  501    0  0.23531992255E+01 -0.58733357974E+02 -0.36483545248E+01  0.59080837640E+02  0.47000000000E+01 0. -1.
        -11    1    6    6    0    0 -0.78231702976E+02 -0.26658469514E+02  0.16554078304E+02  0.84290633263E+02  0.00000000000E+00 0.  1.
         12    1    6    6    0    0 -0.12574538824E+03 -0.65096317949E+02  0.13428215049E+03  0.19514386799E+03  0.00000000000E+00 0. -1.
         -5    1    3    3    0  503  0.61577905160E+02  0.21987791129E+02 -0.24490456640E+03  0.25352640495E+03  0.47000000000E+01 0.  1.
         13    1    4    4    0    0  0.48521197915E+02  0.40200571341E+02 -0.19675134160E+02  0.66011389074E+02  0.00000000000E+00 0. -1.
        -14    1    4    4    0    0  0.91524788917E+02  0.88299782967E+02 -0.18696408856E+03  0.22611768853E+03  0.00000000000E+00 0.  1.
</event>
<event>
12    1  0.8407180E-002  0.1941575E+03  0.7818608E-02  0.1155190E+00
         21   -1    0    0  503  502  0.00000000000E+00  0.00000000000E+00  0.12726698087E+03  0.12726698087E+03  0.00000000000E+00 0. -1.
         21   -1    0    0  501  503 -0.00000000000E+00 -0.00000000000E+00 -0.31732906940E+03  0.31732906940E+03  0.00000000000E+00 0.  1.
          6    2    1    2  501    0  0.86595243263E+02 -0.16005702475E+02 -0.15580585113E+03  0.24743974481E+03  0.17086850324E+03 0.  0.
         24    2    3    3    0    0  0.28061253846E+01 -0.52727396254E+02 -0.49454548082E+02  0.10707668440E+03  0.78940555865E+02 0.  0.
         -6    2    1    2    0  502 -0.86595243263E+02  0.16005702475E+02 -0.34256237409E+02  0.19715630546E+03  0.17303814699E+03 0.  0.
        -24    2    5    5    0    0 -0.47605889673E+02  0.40213627264E+02 -0.83906138066E+02  0.12938170881E+03  0.76262245050E+02 0.  0.
          5    1    3    3  501    0  0.83789117879E+02  0.36721693778E+02 -0.10635130305E+03  0.14036306041E+03  0.47000000000E+01 0. -1.
        -11    1    4    4    0    0  0.39169446583E+01 -0.57455714583E+02 -0.67303240307E+02  0.88578935135E+02  0.00000000000E+00 0.  1.
         12    1    4    4    0    0 -0.11108192737E+01  0.47283183299E+01  0.17848692225E+02  0.18497749264E+02  0.00000000000E+00 0. -1.
         -5    1    5    5    0  502 -0.38989353590E+02 -0.24207924789E+02  0.49649900657E+02  0.67774596651E+02  0.47000000000E+01 0.  1.
         11    1    6    6    0    0 -0.61561238336E+02  0.17791006452E+02 -0.80286614239E+02  0.10272412765E+03  0.00000000000E+00 0. -1.
        -12    1    6    6    0    0  0.13955348663E+02  0.22422620812E+02 -0.36195238265E+01  0.26657581157E+02  0.00000000000E+00 0.  1.
</event>
<event>
12    1  0.8407180E-002  0.1844321E+03  0.7818608E-02  0.1165591E+00
         21   -1    0    0  503  502  0.00000000000E+00  0.00000000000E+00  0.11716530331E+03  0.11716530331E+03  0.00000000000E+00 0.  1.
         21   -1    0    0  501  503 -0.00000000000E+00 -0.00000000000E+00 -0.34246362263E+03  0.34246362263E+03  0.00000000000E+00 0.  1.
          6    2    1    2  501    0  0.22123618363E+02  0.34193486342E+02 -0.21498784803E+03  0.28325779109E+03  0.17987927178E+03 0.  0.
         24    2    3    3    0    0 -0.41782980612E+02  0.10005813457E+02 -0.75465890859E+02  0.12783075533E+03  0.93806543235E+02 0.  0.
         -6    2    1    2    0  502 -0.22123618363E+02 -0.34193486342E+02 -0.10310471290E+02  0.17637113484E+03  0.17129454863E+03 0.  0.
        -24    2    5    5    0    0  0.49101620835E+02  0.38710302285E+01 -0.18215103775E+02  0.95090661570E+02  0.79274774479E+02 0.  0.
          5    1    3    3  501    0  0.63906598975E+02  0.24187672884E+02 -0.13952195717E+03  0.15542703576E+03  0.47000000000E+01 0. -1.
        -11    1    4    4    0    0 -0.14096790803E+02  0.25722681316E+02 -0.88646946810E+02  0.93373749115E+02  0.00000000000E+00 0.  1.
         12    1    4    4    0    0 -0.27686189809E+02 -0.15716867858E+02  0.13181055952E+02  0.34457006216E+02  0.00000000000E+00 0. -1.
         -5    1    5    5    0  502 -0.71225239197E+02 -0.38064516570E+02  0.79046324848E+01  0.81280473271E+02  0.47000000000E+01 0.  1.
         13    1    6    6    0    0 -0.16057889454E+02 -0.18272836248E+02 -0.21484283910E+01  0.24420649107E+02  0.00000000000E+00 0. -1.
        -14    1    6    6    0    0  0.65159510288E+02  0.22143866477E+02 -0.16066675384E+02  0.70670012463E+02  0.00000000000E+00 0.  1.
</event>
<event>
12    1  0.8407180E-002  0.2699559E+03  0.7818608E-02  0.1103354E+00
         21   -1    0    0  503  502  0.00000000000E+00  0.00000000000E+00  0.37580040550E+03  0.37580040550E+03  0.00000000000E+00 0. -1.
         21   -1    0    0  501  503 -0.00000000000E+00 -0.00000000000E+00 -0.34869340238E+03  0.34869340238E+03  0.00000000000E+00 0.  1.
          6    2    1    2  501    0  0.54203586830E+01 -0.18928211218E+03 -0.23512694511E+03  0.35799563400E+03  0.19240347026E+03 0.  0.
         24    2    3    3    0    0  0.63887722446E+02 -0.13779129823E+03 -0.92457027201E+02  0.19537173655E+03  0.80955114818E+02 0.  0.
         -6    2    1    2    0  502 -0.54203586830E+01  0.18928211218E+03  0.26223394823E+03  0.36649817389E+03  0.17232866730E+03 0.  0.
        -24    2    5    5    0    0 -0.53973220636E+02  0.48142587384E+02  0.10647143654E+03  0.15071634908E+03  0.78411949453E+02 0.  0.
          5    1    3    3  501    0 -0.58467363763E+02 -0.51490813954E+02 -0.14266991791E+03  0.16262389746E+03  0.47000000000E+01 0. -1.
        -13    1    4    4    0    0  0.86724726765E+01 -0.60357631959E+02 -0.78264674639E+02  0.99214992890E+02  0.00000000000E+00 0.  1.
         14    1    4    4    0    0  0.55215249769E+02 -0.77433666271E+02 -0.14192352562E+02  0.96156743656E+02  0.00000000000E+00 0. -1.
         -5    1    5    5    0  502  0.48552861953E+02  0.14113952480E+03  0.15576251170E+03  0.21578182480E+03  0.47000000000E+01 0.  1.
         11    1    6    6    0    0 -0.28739858595E+02  0.24692112746E+02  0.10975609103E+03  0.11611235689E+03  0.00000000000E+00 0. -1.
        -12    1    6    6    0    0 -0.25233362041E+02  0.23450474638E+02 -0.32846544947E+01  0.34603992194E+02  0.00000000000E+00 0.  1.
</event>
<event>
12    1  0.8407180E-002  0.1793786E+03  0.7818608E-02  0.1168444E+00
         21   -1    0    0  503  502  0.00000000000E+00  0.00000000000E+00  0.48067044984E+02  0.48067044984E+02  0.00000000000E+00 0.  1.
         21   -1    0    0  501  503 -0.00000000000E+00 -0.00000000000E+00 -0.69388726739E+03  0.69388726739E+03  0.00000000000E+00 0.  1.
          6    2    1    2  501    0 -0.48375242524E+02 -0.48466065027E+02 -0.25228353391E+03  0.30946408577E+03  0.16562582937E+03 0.  0.
         24    2    3    3    0    0 -0.68618367468E+02  0.16941414501E+02 -0.16349577143E+03  0.19724430476E+03  0.84728723609E+02 0.  0.
         -6    2    1    2    0  502  0.48375242524E+02  0.48466065027E+02 -0.39353668850E+03  0.43249022660E+03  0.16579368915E+03 0.  0.
        -24    2    5    5    0    0  0.52833654584E+02  0.90540291058E+02 -0.26619928559E+03  0.29822548025E+03  0.84186923316E+02 0.  0.
          5    1    3    3  501    0  0.20243124944E+02 -0.65407479528E+02 -0.88787762477E+02  0.11221978102E+03  0.47000000000E+01 0. -1.
        -11    1    4    4    0    0 -0.46394819707E+02  0.52270967669E+01 -0.16557963742E+03  0.17203609553E+03  0.00000000000E+00 0.  1.
         12    1    4    4    0    0 -0.22223547761E+02  0.11714317734E+02  0.20838659907E+01  0.25208209229E+02  0.00000000000E+00 0. -1.
         -5    1    5    5    0  502 -0.44584120602E+01 -0.42074226031E+02 -0.12733740290E+03  0.13426474635E+03  0.47000000000E+01 0.  1.
         11    1    6    6    0    0 -0.36531082704E+01  0.69793104515E+02 -0.18006708524E+03  0.19315428503E+03  0.00000000000E+00 0. -1.
        -12    1    6    6    0    0  0.56486762854E+02  0.20747186543E+02 -0.86132200349E+02  0.10507119522E+03  0.00000000000E+00 0.  1.
</event>
<event>
12    1  0.8407180E-002  0.1928477E+03  0.7818608E-02  0.1156122E+00
         21   -1    0    0  501  502  0.00000000000E+00  0.00000000000E+00  0.10477749250E+03  0.10477749250E+03  0.00000000000E+00 0.  1.
         21   -1    0    0  502  503 -0.00000000000E+00 -0.00000000000E+00 -0.37498902873E+03  0.37498902873E+03  0.00000000000E+00 0. -1.
         -6    2    1    2    0  503 -0.84456488212E+02  0.21249519376E+02 -0.77657482738E+02  0.20789638494E+03  0.17206330745E+03 0.  0.
        -24    2    3    3    0    0  0.22859827497E+02  0.10042668562E+00 -0.28041658960E+02  0.87696985154E+02  0.79886449221E+02 0.  0.
          6    2    1    2  501    0  0.84456488212E+02 -0.21249519376E+02 -0.19255405350E+03  0.27187013629E+03  0.17103177194E+03 0.  0.
         24    2    5    5    0    0  0.26409179350E+02  0.50670026327E+02 -0.84483242008E+02  0.12959117996E+03  0.79947228972E+02 0.  0.
          5    1    5    5  501    0  0.58047308863E+02 -0.71919545703E+02 -0.10807081149E+03  0.14227895634E+03  0.47000000000E+01 0. -1.
        -13    1    6    6    0    0 -0.22812939296E+02  0.85329206729E+01 -0.16309629012E+01  0.24411083027E+02  0.00000000000E+00 0.  1.
         14    1    6    6    0    0  0.49222118646E+02  0.42137105654E+02 -0.82852279106E+02  0.10518009693E+03  0.00000000000E+00 0. -1.
         -5    1    3    3    0  503 -0.10731631571E+03  0.21149092690E+02 -0.49615823777E+02  0.12019939978E+03  0.47000000000E+01 0.  1.
         13    1    4    4    0    0 -0.85513485820E-01 -0.58692972800E+01 -0.52969998850E+02  0.53294246794E+02  0.00000000000E+00 0. -1.
        -14    1    4    4    0    0  0.22945340983E+02  0.59697239656E+01  0.24928339890E+02  0.34402738361E+02  0.00000000000E+00 0.  1.
</event>
<event>
12    1  0.8407180E-002  0.1791946E+03  0.7818608E-02  0.1168622E+00
         21   -1    0    0  501  502  0.00000000000E+00  0.00000000000E+00  0.11318441042E+04  0.11318441042E+04  0.00000000000E+00 0. -1.
         21   -1    0    0  502  503 -0.00000000000E+00 -0.00000000000E+00 -0.32648683237E+02  0.32648683237E+02  0.00000000000E+00 0. -1.
         -6    2    1    2    0  503 -0.19677093324E+02  0.45308060797E+02  0.33802484961E+03  0.38251366480E+03  0.17209269718E+03 0.  0.
        -24    2    3    3    0    0 -0.42624898412E+02  0.89175206973E+02  0.20461120043E+03  0.24013311816E+03  0.77647096483E+02 0.  0.
          6    2    1    2  501    0  0.19677093324E+02 -0.45308060797E+02  0.76117057139E+03  0.78197912268E+03  0.17225185394E+03 0.  0.
         24    2    5    5    0    0  0.59246784028E+02  0.81445781777E+01  0.28983190630E+03  0.30594848055E+03  0.77623599976E+02 0.  0.
          5    1    5    5  501    0 -0.39569690703E+02 -0.53452638975E+02  0.47133866509E+03  0.47603064213E+03  0.47000000000E+01 0. -1.
        -13    1    6    6    0    0  0.46863238482E+01 -0.12085974908E+02  0.30423380350E+01  0.13314963065E+02  0.00000000000E+00 0.  1.
         14    1    6    6    0    0  0.54560460179E+02  0.20230553086E+02  0.28678956826E+03  0.29263351749E+03  0.00000000000E+00 0. -1.
         -5    1    3    3    0  503  0.22947805087E+02 -0.43867146175E+02  0.13341364918E+03  0.14238054663E+03  0.47000000000E+01 0.  1.
         11    1    4    4    0    0 -0.29279720533E+02  0.31255258447E+02  0.22112145386E+02  0.48198964601E+02  0.00000000000E+00 0. -1.
        -12    1    4    4    0    0 -0.13345177878E+02  0.57919948526E+02  0.18249905505E+03  0.19193415356E+03  0.00000000000E+00 0.  1.
</event>
<event>
12    1  0.8407180E-002  0.1834010E+03  0.7818608E-02  0.1165943E+00
         21   -1    0    0  503  502  0.00000000000E+00  0.00000000000E+00  0.16451091169E+03  0.16451091169E+03  0.00000000000E+00 0.  1.
         21   -1    0    0  501  503 -0.00000000000E+00 -0.00000000000E+00 -0.25038981453E+03  0.25038981453E+03  0.00000000000E+00 0.  1.
          6    2    1    2  501    0  0.47328972942E+02  0.18097824204E+02 -0.13831949118E+03  0.22971332306E+03  0.17626220874E+03 0.  0.
         24    2    3    3    0    0  0.83469045457E+02 -0.32675100587E+02 -0.87215969177E+02  0.14898133006E+03  0.80957196578E+02 0.  0.
         -6    2    1    2    0  502 -0.47328972942E+02 -0.18097824204E+02  0.52440588330E+02  0.18518740317E+03  0.17022572093E+03 0.  0.
        -24    2    5    5    0    0  0.30834460596E+02 -0.33560483129E+02  0.54476397095E+02  0.10534474113E+03  0.77799528632E+02 0.  0.
          5    1    3    3  501    0 -0.36140072515E+02  0.50772924791E+02 -0.51103521999E+02  0.80731993001E+02  0.47000000000E+01 0. -1.
        -11    1    4    4    0    0  0.48984811752E+02 -0.33888912778E+02 -0.49479535946E+01  0.59769996122E+02  0.00000000000E+00 0.  1.
         12    1    4    4    0    0  0.34484233704E+02  0.12138121908E+01 -0.82268015582E+02  0.89211333933E+02  0.00000000000E+00 0. -1.
         -5    1    5    5    0  502 -0.78163433538E+02  0.15462658925E+02 -0.20358087654E+01  0.79842662035E+02  0.47000000000E+01 0.  1.
         11    1    6    6    0    0  0.38954438102E+02 -0.54677528422E+02  0.44968066021E+02  0.80803510591E+02  0.00000000000E+00 0. -1.
        -12    1    6    6    0    0 -0.81199775059E+01  0.21117045293E+02  0.95083310745E+01  0.24541230540E+02  0.00000000000E+00 0.  1.
</event>
<event>
12    1  0.8407180E-002  0.3350476E+03  0.7818608E-02  0.1069386E+00
         21   -1    0    0  503  502  0.00000000000E+00  0.00000000000E+00  0.20185311796E+03  0.20185311796E+03  0.00000000000E+00 0.  1.
         21   -1    0    0  501  503 -0.00000000000E+00 -0.00000000000E+00 -0.56046793271E+03  0.56046793271E+03  0.00000000000E+00 0.  1.
          6    2    1    2  501    0  0.22309941768E+03 -0.18145773034E+03 -0.23235736513E+03  0.40427381515E+03  0.16354545062E+03 0.  0.
         24    2    3    3    0    0  0.65764432672E+02 -0.46408496976E+02 -0.34169820005E+02  0.11740627432E+03  0.78345053795E+02 0.  0.
         -6    2    1    2    0  502 -0.22309941768E+03  0.18145773034E+03 -0.12625744961E+03  0.35804723552E+03  0.17192039209E+03 0.  0.
        -24    2    5    5    0    0 -0.19483860628E+03  0.18739154617E+03 -0.63955156559E+02  0.28921737753E+03  0.80490715897E+02 0.  0.
          5    1    3    3  501    0  0.15733498500E+03 -0.13504923336E+03 -0.19818754513E+03  0.28686754083E+03  0.47000000000E+01 0. -1.
        -11    1    4    4    0    0  0.73728632305E+02 -0.12734919109E+02 -0.35420626616E+02  0.82781097940E+02  0.00000000000E+00 0.  1.
         12    1    4    4    0    0 -0.79641996323E+01 -0.33673577867E+02  0.12508066116E+01  0.34625176380E+02  0.00000000000E+00 0. -1.
         -5    1    5    5    0  502 -0.28260811399E+02 -0.59338158338E+01 -0.62302293050E+02  0.68829857988E+02  0.47000000000E+01 0.  1.
         11    1    6    6    0    0 -0.10465212793E+03  0.99729989874E+02  0.71501636393E+01  0.14473860439E+03  0.00000000000E+00 0. -1.
        -12    1    6    6    0    0 -0.90186478342E+02  0.87661556296E+02 -0.71105320199E+02  0.14447877314E+03  0.00000000000E+00 0.  1.
</event>
<event>
12    1  0.8407180E-002  0.2224902E+03  0.7818608E-02  0.1132096E+00
         21   -1    0    0  501  502  0.00000000000E+00  0.00000000000E+00  0.55638225438E+03  0.55638225438E+03  0.00000000000E+00 0. -1.
         21   -1    0    0  502  503 -0.00000000000E+00 -0.00000000000E+00 -0.94118051922E+02  0.94118051922E+02  0.00000000000E+00 0. -1.
         -6    2    1    2    0  503 -0.13732356880E+03  0.28449722312E+02  0.15402829882E+03  0.27035395409E+03  0.17233512238E+03 0.  0.
        -24    2    3    3    0    0 -0.12642072037E+03 -0.35530032569E+02  0.12909890938E+03  0.20067005640E+03  0.79733063285E+02 0.  0.
          6    2    1    2  501    0  0.13732356880E+03 -0.28449722312E+02  0.30823590364E+03  0.38014635222E+03  0.17272732141E+03 0.  0.
         24    2    5    5    0    0  0.13701707829E+03 -0.56306209341E+02  0.30890120563E+03  0.35188665595E+03  0.80375337286E+02 0.  0.
          5    1    5    5  501    0  0.30649051480E+00  0.27856487029E+02 -0.66530199470E+00  0.28259696262E+02  0.47000000000E+01 0. -1.
        -13    1    6    6    0    0  0.32446148342E+02 -0.20211076735E+01  0.16117276117E+02  0.36285038347E+02  0.00000000000E+00 0.  1.
         14    1    6    6    0    0  0.10457092995E+03 -0.54285101668E+02  0.29278392952E+03  0.31560161761E+03  0.00000000000E+00 0. -1.
         -5    1    3    3    0  503 -0.10902848432E+02  0.63979754881E+02  0.24929389444E+02  0.69683897685E+02  0.47000000000E+01 0.  1.
         13    1    4    4    0    0 -0.36730289718E+02 -0.50110635040E+02  0.43600818329E+02  0.75902709344E+02  0.00000000000E+00 0. -1.
        -14    1    4    4    0    0 -0.89690430653E+02  0.14580602470E+02  0.85498091048E+02  0.12476734706E+03  0.00000000000E+00 0.  1.
</event>
<event>
12    1  0.8407180E-002  0.2048711E+03  0.7818608E-02  0.1145769E+00
         21   -1    0    0  503  502  0.00000000000E+00  0.00000000000E+00  0.52861627812E+03  0.52861627812E+03  0.00000000000E+00 0.  1.
         21   -1    0    0  501  503 -0.00000000000E+00 -0.00000000000E+00 -0.84272568043E+02  0.84272568043E+02  0.00000000000E+00 0.  1.
          6    2    1    2  501    0 -0.57048979768E+02  0.95927267091E+02  0.14759839426E+03  0.25250242052E+03  0.17180093049E+03 0.  0.
         24    2    3    3    0    0 -0.85347502559E+02  0.43245514531E+02  0.42793774094E+02  0.13174534267E+03  0.79819530773E+02 0.  0.
         -6    2    1    2    0  502  0.57048979768E+02 -0.95927267091E+02  0.29674531582E+03  0.36038642564E+03  0.17135917443E+03 0.  0.
        -24    2    5    5    0    0 -0.10181245318E+02  0.70129025768E+01  0.12481679398E+03  0.14896720154E+03  0.80368877788E+02 0.  0.
          5    1    3    3  501    0  0.28298522791E+02  0.52681752560E+02  0.10480462016E+03  0.12075707786E+03  0.47000000000E+01 0. -1.
        -11    1    4    4    0    0 -0.55911476918E+02  0.32842345470E+02 -0.14547690458E+02  0.66455610785E+02  0.00000000000E+00 0.  1.
         12    1    4    4    0    0 -0.29436025641E+02  0.10403169061E+02  0.57341464552E+02  0.65289731881E+02  0.00000000000E+00 0. -1.
         -5    1    5    5    0  502  0.67230225086E+02 -0.10294016967E+03  0.17192852184E+03  0.21141922410E+03  0.47000000000E+01 0.  1.
         11    1    6    6    0    0 -0.37025348752E+02  0.17883228636E+02  0.33096773576E+02  0.52783356637E+02  0.00000000000E+00 0. -1.
        -12    1    6    6    0    0  0.26844103434E+02 -0.10870326059E+02  0.91720020403E+02  0.96183844904E+02  0.00000000000E+00 0.  1.
</event>
<event>
12    1  0.8407180E-002  0.1930307E+03  0.7818608E-02  0.1157214E+00
         21   -1    0    0  501  502  0.00000000000E+00  0.00000000000E+00  0.59592977133E+03  0.59592977133E+03  0.00000000000E+00 0. -1.
         21   -1    0    0  502  503 -0.00000000000E+00 -0.00000000000E+00 -0.14441984871E+03  0.14441984871E+03  0.00000000000E+00 0. -1.
         -6    2    1    2    0  503  0.78960576914E+02  0.29756332944E+02 -0.54888704278E+02  0.20068291251E+03  0.17361062600E+03 0.  0.
        -24    2    3    3    0    0  0.57775834761E+02  0.15313772072E+02 -0.10390372487E+03  0.14516766138E+03  0.81884718787E+02 0.  0.
          6    2    1    2  501    0 -0.78960576914E+02 -0.29756332944E+02  0.50639862690E+03  0.53966670753E+03  0.16637419821E+03 0.  0.
         24    2    5    5    0    0 -0.81192847830E+02  0.29242304369E+02  0.24850239862E+03  0.27505684982E+03  0.80345737945E+02 0.  0.
          5    1    5    5  501    0  0.22322709165E+01 -0.58998637313E+02  0.25789622827E+03  0.26460985771E+03  0.47000000000E+01 0. -1.
        -13    1    6    6    0    0  0.27172375054E+01 -0.20220375993E+02  0.47565443953E+02  0.51756337230E+02  0.00000000000E+00 0.  1.
         14    1    6    6    0    0 -0.83910085336E+02  0.49462680361E+02  0.20093695467E+03  0.22330051259E+03  0.00000000000E+00 0. -1.
         -5    1    3    3    0  503  0.21184742153E+02  0.14442560872E+02  0.49015020591E+02  0.55515251132E+02  0.47000000000E+01 0.  1.
         11    1    4    4    0    0  0.41326695871E+02 -0.23873738760E+02 -0.87387825407E+02  0.99571498048E+02  0.00000000000E+00 0. -1.
        -12    1    4    4    0    0  0.16449138890E+02  0.39187510832E+02 -0.16515899461E+02  0.45596163330E+02  0.00000000000E+00 0.  1.
</event>
<event>
12    1  0.8407180E-002  0.1919113E+03  0.7818608E-02  0.1157130E+00
         21   -1    0    0  501  502  0.00000000000E+00  0.00000000000E+00  0.15125921225E+04  0.15125921225E+04  0.00000000000E+00 0. -1.
         21   -1    0    0  502  503 -0.00000000000E+00 -0.00000000000E+00 -0.29864304793E+02  0.29864304793E+02  0.00000000000E+00 0. -1.
         -6    2    1    2    0  503  0.61960147648E+02  0.58721674310E+02  0.40084875623E+03  0.44368791933E+03  0.16997632028E+03 0.  0.
        -24    2    3    3    0    0  0.12353161053E+02 -0.53031468992E+01  0.78465806328E+02  0.11125313289E+03  0.77715203527E+02 0.  0.
          6    2    1    2  501    0 -0.61960147648E+02 -0.58721674310E+02  0.10818790615E+04  0.10987685080E+04  0.17187971231E+03 0.  0.
         24    2    5    5    0    0 -0.81322456043E+02 -0.40708837116E+02  0.56624969358E+03  0.58244003081E+03  0.10162245188E+03 0.  0.
          5    1    5    5  501    0  0.19362308395E+02 -0.18012837194E+02  0.51562936792E+03  0.51632847719E+03  0.47000000000E+01 0. -1.
        -13    1    6    6    0    0  0.71621709635E+01  0.15194295985E+02  0.19388798539E+02  0.25653242138E+02  0.00000000000E+00 0.  1.
         14    1    6    6    0    0 -0.88484627007E+02 -0.55903133101E+02  0.54686089504E+03  0.55678678867E+03  0.00000000000E+00 0. -1.
         -5    1    3    3    0  503  0.49606986595E+02  0.64024821209E+02  0.32238294990E+03  0.33243478644E+03  0.47000000000E+01 0.  1.
         11    1    4    4    0    0  0.43404235537E+02 -0.65132262476E+01  0.28236428707E+02  0.52188558946E+02  0.00000000000E+00 0. -1.
        -12    1    4    4    0    0 -0.31051074484E+02  0.12100793484E+01  0.50229377621E+02  0.59064573941E+02  0.00000000000E+00 0.  1.
</event>
<event>
12    1  0.8407180E-002  0.1958496E+03  0.7818608E-02  0.1153548E+00
         21   -1    0    0  501  502  0.00000000000E+00  0.00000000000E+00  0.96283554806E+03  0.96283554806E+03  0.00000000000E+00 0.  1.
         21   -1    0    0  502  503 -0.00000000000E+00 -0.00000000000E+00 -0.72590627043E+02  0.72590627043E+02  0.00000000000E+00 0.  1.
         -6    2    1    2    0  503 -0.78768658138E+02  0.45607812844E+02  0.96826516215E+02  0.21847750824E+03  0.17341416686E+03 0.  0.
        -24    2    3    3    0    0 -0.37017020299E+02  0.76881890650E+01 -0.18028219046E+02  0.90435338071E+02  0.80150892991E+02 0.  0.
          6    2    1    2  501    0  0.78768658138E+02 -0.45607812844E+02  0.79341840480E+03  0.81694866686E+03  0.17206912887E+03 0.  0.
         24    2    5    5    0    0  0.96894562949E+02  0.17785319665E+02  0.45446029302E+03  0.47160546190E+03  0.78566403962E+02 0.  0.
          5    1    5    5  501    0 -0.18125904811E+02 -0.63393132509E+02  0.33895811177E+03  0.34534320496E+03  0.47000000000E+01 0. -1.
        -11    1    6    6    0    0  0.41426989831E+02 -0.11189427019E+02  0.70153917860E+02  0.82237284455E+02  0.00000000000E+00 0.  1.
         12    1    6    6    0    0  0.55467573118E+02  0.28974746685E+02  0.38430637516E+03  0.38936817744E+03  0.00000000000E+00 0. -1.
         -5    1    3    3    0  503 -0.41751637839E+02  0.37919623779E+02  0.11485473526E+03  0.12804217017E+03  0.47000000000E+01 0.  1.
         11    1    4    4    0    0  0.17330897519E+02  0.24513717293E+02 -0.14747383922E+02  0.33447984646E+02  0.00000000000E+00 0. -1.
        -12    1    4    4    0    0 -0.54347917818E+02 -0.16825528228E+02 -0.32808351234E+01  0.56987353425E+02  0.00000000000E+00 0.  1.
</event>
<event>
12    1  0.8407180E-002  0.2156412E+03  0.7818608E-02  0.1137250E+00
         21   -1    0    0  501  502  0.00000000000E+00  0.00000000000E+00  0.28644611949E+03  0.28644611949E+03  0.00000000000E+00 0. -1.
         21   -1    0    0  502  503 -0.00000000000E+00 -0.00000000000E+00 -0.24042062947E+03  0.24042062947E+03  0.00000000000E+00 0. -1.
         -6    2    1    2    0  503 -0.10318915669E+03  0.77546455540E+02 -0.12738307450E+03  0.25045470502E+03  0.17274158958E+03 0.  0.
        -24    2    3    3    0    0 -0.29456633223E+02  0.80994959941E+02 -0.15546249681E+02  0.11637285469E+03  0.76636014080E+02 0.  0.
          6    2    1    2  501    0  0.10318915669E+03 -0.77546455540E+02  0.17340856451E+03  0.27641204394E+03  0.17225455861E+03 0.  0.
         24    2    5    5    0    0 -0.93701398765E+01 -0.18850627839E+02  0.31100669638E+02  0.85654547686E+02  0.76982492790E+02 0.  0.
          5    1    5    5  501    0  0.11255929657E+03 -0.58695827701E+02  0.14230789488E+03  0.19075749626E+03  0.47000000000E+01 0. -1.
        -11    1    6    6    0    0  0.81016233434E+01  0.25310233370E+02 -0.36253373472E+01  0.26821396029E+02  0.00000000000E+00 0.  1.
         12    1    6    6    0    0 -0.17471763220E+02 -0.44160861210E+02  0.34726006985E+02  0.58833151657E+02  0.00000000000E+00 0. -1.
         -5    1    3    3    0  503 -0.73732523470E+02 -0.34485044008E+01 -0.11183682482E+03  0.13408185032E+03  0.47000000000E+01 0.  1.
         11    1    4    4    0    0 -0.27062650530E+02  0.25689209969E+02 -0.41005389407E+02  0.55441541492E+02  0.00000000000E+00 0. -1.
        -12    1    4    4    0    0 -0.23939826927E+01  0.55305749972E+02  0.25459139726E+02  0.60931313203E+02  0.00000000000E+00 0.  1.
</event>
<event>
12    1  0.8407180E-002  0.2072966E+03  0.7818608E-02  0.1143747E+00
         21   -1    0    0  501  502  0.00000000000E+00  0.00000000000E+00  0.89052166933E+02  0.89052166933E+02  0.00000000000E+00 0.  1.
         21   -1    0    0  502  503 -0.00000000000E+00 -0.00000000000E+00 -0.69329549045E+03  0.69329549045E+03  0.00000000000E+00 0.  1.
         -6    2    1    2    0  503  0.47804780014E+02  0.10447454288E+03 -0.51797804970E+03  0.55791859215E+03  0.17254468522E+03 0.  0.
        -24    2    3    3    0    0  0.77363699141E+02  0.31634901681E+02 -0.19949282722E+03  0.22984197006E+03  0.77743386451E+02 0.  0.
          6    2    1    2  501    0 -0.47804780014E+02 -0.10447454288E+03 -0.86265273817E+02  0.22442906523E+03  0.17241369073E+03 0.  0.
         24    2    5    5    0    0 -0.96411746975E+02 -0.81904503581E+02 -0.80435237856E+02  0.17031692953E+03  0.80835984144E+02 0.  0.
          5    1    5    5  501    0  0.48606966961E+02 -0.22570039300E+02 -0.58300359609E+01  0.54112135704E+02  0.47000000000E+01 0. -1.
        -13    1    6    6    0    0  0.11437044799E+02 -0.20240459540E+02 -0.25418867163E+02  0.34447075405E+02  0.00000000000E+00 0.  1.
         14    1    6    6    0    0 -0.10784879177E+03 -0.61664044041E+02 -0.55016370693E+02  0.13586985412E+03  0.00000000000E+00 0. -1.
         -5    1    3    3    0  503 -0.29558919127E+02  0.72839641200E+02 -0.31848522248E+03  0.32807662210E+03  0.47000000000E+01 0.  1.
         13    1    4    4    0    0 -0.11932983599E+02  0.20608999785E+02 -0.34688761962E+02  0.42076563265E+02  0.00000000000E+00 0. -1.
        -14    1    4    4    0    0  0.89296682740E+02  0.11025901896E+02 -0.16480406526E+03  0.18776540679E+03  0.00000000000E+00 0.  1.
</event>
<event>
12    1  0.8407180E-002  0.2035931E+03  0.7818608E-02  0.1146902E+00
         21   -1    0    0  503  502  0.00000000000E+00  0.00000000000E+00  0.14168820893E+03  0.14168820893E+03  0.00000000000E+00 0. -1.
         21   -1    0    0  501  503 -0.00000000000E+00 -0.00000000000E+00 -0.68633532329E+03  0.68633532329E+03  0.00000000000E+00 0. -1.
          6    2    1    2  501    0  0.10817386401E+03  0.17889962123E+02 -0.58614623362E+03  0.62024406176E+03  0.17062723511E+03 0.  0.
         24    2    3    3    0    0  0.10049530713E+03  0.45040651418E+02 -0.26728874495E+03  0.30010610986E+03  0.80575659863E+02 0.  0.
         -6    2    1    2    0  502 -0.10817386401E+03 -0.17889962123E+02  0.41499119265E+02  0.20777947047E+03  0.17154735745E+03 0.  0.
        -24    2    5    5    0    0 -0.10045697946E+03  0.39565318751E+02 -0.41277652144E+01  0.13385679333E+03  0.79016349605E+02 0.  0.
          5    1    3    3  501    0  0.76785568715E+01 -0.27150689295E+02 -0.31885748867E+03  0.32013795190E+03  0.47000000000E+01 0. -1.
        -11    1    4    4    0    0  0.66081396907E-01  0.32709612549E+02 -0.42801413108E+02  0.53869138511E+02  0.00000000000E+00 0.  1.
         12    1    4    4    0    0  0.10042922574E+03  0.12331038869E+02 -0.22448733184E+03  0.24623697135E+03  0.00000000000E+00 0. -1.
         -5    1    5    5    0  502 -0.77168845409E+01 -0.57455280874E+02  0.45626884479E+02  0.73922677133E+02  0.47000000000E+01 0.  1.
         11    1    6    6    0    0 -0.51219144296E+02 -0.51696497986E+01  0.29481770513E+02  0.59323695216E+02  0.00000000000E+00 0. -1.
        -12    1    6    6    0    0 -0.49237835168E+02  0.44734968550E+02 -0.33609535728E+02  0.74533098118E+02  0.00000000000E+00 0.  1.
</event>
<event>
12    1  0.8407180E-002  0.2133297E+03  0.7818608E-02  0.1139265E+00
         21   -1    0    0  501  502  0.00000000000E+00  0.00000000000E+00  0.38633674532E+03  0.38633674532E+03  0.00000000000E+00 0. -1.
         21   -1    0    0  502  503 -0.00000000000E+00 -0.00000000000E+00 -0.26788180343E+03  0.26788180343E+03  0.00000000000E+00 0.  1.
         -6    2    1    2    0  503  0.38765235448E+02 -0.11899383106E+03 -0.18623054372E+03  0.28318079045E+03  0.17276362279E+03 0.  0.
        -24    2    3    3    0    0  0.72081282073E+02 -0.81983564852E+02 -0.60094096211E+02  0.14748918365E+03  0.78897039001E+02 0.  0.
          6    2    1    2  501    0 -0.38765235448E+02  0.11899383106E+03  0.30468548561E+03  0.37103775830E+03  0.17080251062E+03 0.  0.
         24    2    5    5    0    0 -0.80839999124E+02  0.90968733192E+02  0.25282808175E+03  0.29846384987E+03  0.10172617600E+03 0.  0.
          5    1    5    5  501    0  0.42074763676E+02  0.28025097863E+02  0.51857403864E+02  0.72573908426E+02  0.47000000000E+01 0. -1.
        -11    1    6    6    0    0 -0.25129454705E+02  0.25386019637E+02  0.49343846997E+01  0.36059501371E+02  0.00000000000E+00 0.  1.
         12    1    6    6    0    0 -0.55710544419E+02  0.65582713555E+02  0.24789369705E+03  0.26240434850E+03  0.00000000000E+00 0. -1.
         -5    1    3    3    0  503 -0.33316046625E+02 -0.37010266204E+02 -0.12613644751E+03  0.13569160680E+03  0.47000000000E+01 0.  1.
         11    1    4    4    0    0  0.24316033838E+02 -0.79846742901E+02 -0.21896252658E+02  0.86291469648E+02  0.00000000000E+00 0. -1.
        -12    1    4    4    0    0  0.47765248235E+02 -0.21368219508E+01 -0.38197843553E+02  0.61197714002E+02  0.00000000000E+00 0.  1.
</event>
<event>
12    1  0.8407180E-002  0.3125882E+03  0.7818608E-02  0.1079264E+00
         21   -1    0    0  501  502  0.00000000000E+00  0.00000000000E+00  0.22518235077E+03  0.22518235077E+03  0.00000000000E+00 0.  1.
         21   -1    0    0  502  503 -0.00000000000E+00 -0.00000000000E+00 -0.43362064913E+03  0.43362064913E+03  0.00000000000E+00 0. -1.
         -6    2    1    2    0  503 -0.62681302619E+02  0.25147785764E+03 -0.84798252750E+02  0.32265088807E+03  0.17246099073E+03 0.  0.
        -24    2    3    3    0    0 -0.84071002834E+00  0.37248388696E+02 -0.33854948077E+01  0.85230056191E+02  0.76580360730E+02 0.  0.
          6    2    1    2  501    0  0.62681302619E+02 -0.25147785764E+03 -0.12364004561E+03  0.33615211183E+03  0.17476075884E+03 0.  0.
         24    2    5    5    0    0  0.26224958425E+02 -0.15367324339E+03 -0.10372952921E+01  0.17506725225E+03  0.79650817009E+02 0.  0.
          5    1    5    5  501    0  0.36456344195E+02 -0.97804614244E+02 -0.12260275032E+03  0.16108485958E+03  0.47000000000E+01 0. -1.
        -13    1    6    6    0    0 -0.93967963303E+01 -0.62014504288E+02 -0.34009387665E+02  0.71349400647E+02  0.00000000000E+00 0.  1.
         14    1    6    6    0    0  0.35621754755E+02 -0.91658739104E+02  0.32972092373E+02  0.10371785160E+03  0.00000000000E+00 0. -1.
         -5    1    3    3    0  503 -0.61840592591E+02  0.21422946894E+03 -0.81412757942E+02  0.23742083188E+03  0.47000000000E+01 0.  1.
         13    1    4    4    0    0 -0.24065882209E+02  0.88465622759E+01 -0.30325765107E+02  0.39712471340E+02  0.00000000000E+00 0. -1.
        -14    1    4    4    0    0  0.23225172181E+02  0.28401826420E+02  0.26940270300E+02  0.45517584851E+02  0.00000000000E+00 0.  1.
</event>
<event>
12    1  0.8407180E-002  0.2126805E+03  0.7818608E-02  0.1139555E+00
         21   -1    0    0  501  502  0.00000000000E+00  0.00000000000E+00  0.51792038396E+03  0.51792038396E+03  0.00000000000E+00 0. -1.
         21   -1    0    0  502  503 -0.00000000000E+00 -0.00000000000E+00 -0.95863797949E+02  0.95863797949E+02  0.00000000000E+00 0. -1.
         -6    2    1    2    0  503 -0.74314046636E+02  0.10083799837E+03  0.11865338200E+03  0.24353974769E+03  0.17187816675E+03 0.  0.
        -24    2    3    3    0    0 -0.29647288312E+02  0.78461420341E+02  0.31900859280E+00  0.11500592151E+03  0.78683568996E+02 0.  0.
          6    2    1    2  501    0  0.74314046636E+02 -0.10083799837E+03  0.30340320402E+03  0.37024443422E+03  0.17127917977E+03 0.  0.
         24    2    5    5    0    0 -0.90992336863E+01 -0.30880044343E+02  0.21078013809E+03  0.22723040342E+03  0.78543086465E+02 0.  0.
          5    1    5    5  501    0  0.83413280323E+02 -0.69957954022E+02  0.92623065927E+02  0.14301403080E+03  0.47000000000E+01 0. -1.
        -13    1    6    6    0    0 -0.19950616414E+02  0.49114202645E+01  0.97346081585E+01  0.22735693091E+02  0.00000000000E+00 0.  1.
         14    1    6    6    0    0  0.10851382728E+02 -0.35791464608E+02  0.20104552993E+03  0.20449471033E+03  0.00000000000E+00 0. -1.
         -5    1    3    3    0  503 -0.44666758325E+02  0.22376578025E+02  0.11833437341E+03  0.12853382618E+03  0.47000000000E+01 0.  1.
         11    1    4    4    0    0 -0.39488644141E+02  0.10327617162E+02 -0.16686165302E+02  0.44095813915E+02  0.00000000000E+00 0. -1.
        -12    1    4    4    0    0  0.98413558289E+01  0.68133803178E+02  0.17005173895E+02  0.70910107596E+02  0.00000000000E+00 0.  1.
</event>
<event>
12    1  0.8407180E-002  0.1993112E+03  0.7818608E-02  0.1150529E+00
         21   -1    0    0  503  502  0.00000000000E+00  0.00000000000E+00  0.50334271690E+02  0.50334271690E+02  0.00000000000E+00 0. -1.
         21   -1    0    0  501  503 -0.00000000000E+00 -0.00000000000E+00 -0.80279153237E+03  0.80279153237E+03  0.00000000000E+00 0. -1.
          6    2    1    2  501    0  0.70049157937E+02  0.70275302411E+02 -0.43818223079E+03  0.48097832429E+03  0.17172937546E+03 0.  0.
         24    2    3    3    0    0  0.10246785507E+03  0.36129556945E+02 -0.22814113395E+03  0.26567329365E+03  0.82029968609E+02 0.  0.
         -6    2    1    2    0  502 -0.70049157937E+02 -0.70275302411E+02 -0.31427502989E+03  0.37214747978E+03  0.17285673153E+03 0.  0.
        -24    2    5    5    0    0 -0.16432981289E+02 -0.94858367629E+02 -0.14041465797E+03  0.18849416394E+03  0.80905011481E+02 0.  0.
          5    1    3    3  501    0 -0.32418697129E+02  0.34145745466E+02 -0.21004109684E+03  0.21530503064E+03  0.47000000000E+01 0. -1.
        -13    1    4    4    0    0  0.19815346730E+02 -0.70933620495E+01 -0.21079406317E+01  0.21152001440E+02  0.00000000000E+00 0.  1.
         14    1    4    4    0    0  0.82652508336E+02  0.43222918994E+02 -0.22603319332E+03  0.24452129221E+03  0.00000000000E+00 0. -1.
         -5    1    5    5    0  502 -0.53616176649E+02  0.24583065217E+02 -0.17386037192E+03  0.18365331583E+03  0.47000000000E+01 0.  1.
         11    1    6    6    0    0 -0.12268166684E+02 -0.59232900750E+02 -0.21354841091E+02  0.64148840076E+02  0.00000000000E+00 0. -1.
        -12    1    6    6    0    0 -0.41648146047E+01 -0.35625466879E+02 -0.11905981688E+03  0.12434532387E+03  0.00000000000E+00 0.  1.
</event>
<event>
12    1  0.8407180E-002  0.2191925E+03  0.7818608E-02  0.1134596E+00
         21   -1    0    0  501  502  0.00000000000E+00  0.00000000000E+00  0.10964057520E+04  0.10964057520E+04  0.00000000000E+00 0. -1.
         21   -1    0    0  502  503 -0.00000000000E+00 -0.00000000000E+00 -0.44506814162E+02  0.44506814162E+02  0.00000000000E+00 0. -1.
         -6    2    1    2    0  503  0.87976488027E+02 -0.10227074210E+03  0.45004738139E+03  0.50058763238E+03  0.17276042678E+03 0.  0.
        -24    2    3    3    0    0  0.70983757113E+02  0.65531562718E+00  0.16897908079E+03  0.20074766529E+03  0.81893663745E+02 0.  0.
          6    2    1    2  501    0 -0.87976488027E+02  0.10227074210E+03  0.60185155645E+03  0.64032493379E+03  0.17202196863E+03 0.  0.
         24    2    5    5    0    0  0.92169942105E+01  0.16266656127E+02  0.14470853845E+03  0.16509330111E+03  0.77237813832E+02 0.  0.
          5    1    5    5  501    0 -0.97193482238E+02  0.86004085972E+02  0.45714301800E+03  0.47523163268E+03  0.47000000000E+01 0. -1.
        -13    1    6    6    0    0  0.99336372662E+01 -0.23920918715E+02  0.16448834555E+02  0.30683084260E+02  0.00000000000E+00 0.  1.
         14    1    6    6    0    0 -0.71664305570E+00  0.40187574842E+02  0.12825970390E+03  0.13441021685E+03  0.00000000000E+00 0. -1.
         -5    1    3    3    0  503  0.16992730914E+02 -0.10292605773E+03  0.28106830060E+03  0.29983996709E+03  0.47000000000E+01 0.  1.
         11    1    4    4    0    0  0.70557099793E+02 -0.67374000913E+01  0.17649595288E+03  0.19019599963E+03  0.00000000000E+00 0. -1.
        -12    1    4    4    0    0  0.42665732086E+00  0.73927157185E+01 -0.75168720911E+01  0.10551665660E+02  0.00000000000E+00 0.  1.
</event>
<event>
12    1  0.8407180E-002  0.1784119E+03  0.7818608E-02  0.1169604E+00
         21   -1    0    0  501  502  0.00000000000E+00  0.00000000000E+00  0.16606925743E+04  0.16606925743E+04  0.00000000000E+00 0. -1.
         21   -1    0    0  502  503 -0.00000000000E+00 -0.00000000000E+00 -0.19622078112E+02  0.19622078112E+02  0.00000000000E+00 0. -1.
         -6    2    1    2    0  503  0.20827243510E+02 -0.42101540370E+02  0.96556706266E+03  0.98191167707E+03  0.17211762054E+03 0.  0.
        -24    2    3    3    0    0 -0.46283902740E+02  0.92089791750E+01  0.44706662540E+03  0.45655325770E+03  0.79657420359E+02 0.  0.
          6    2    1    2  501    0 -0.20827243510E+02  0.42101540370E+02  0.67550343356E+03  0.69840297537E+03  0.17104243182E+03 0.  0.
         24    2    5    5    0    0 -0.23347128595E+02  0.55135536640E+02  0.67689004665E+03  0.68425208934E+03  0.80223255343E+02 0.  0.
          5    1    5    5  501    0  0.25198850854E+01 -0.13033996270E+02 -0.13866130908E+01  0.14150886032E+02  0.47000000000E+01 0. -1.
        -13    1    6    6    0    0 -0.47342693488E+02  0.10741548282E+02  0.38246250386E+03  0.38553116391E+03  0.00000000000E+00 0.  1.
         14    1    6    6    0    0  0.23995564892E+02  0.44393988358E+02  0.29442754279E+03  0.29872092543E+03  0.00000000000E+00 0. -1.
         -5    1    3    3    0  503  0.67111146250E+02 -0.51310519545E+02  0.51850043726E+03  0.52535841937E+03  0.47000000000E+01 0.  1.
         11    1    4    4    0    0 -0.45023311534E+01 -0.28874034546E+02  0.24468629128E+03  0.24642516511E+03  0.00000000000E+00 0. -1.
        -12    1    4    4    0    0 -0.41781571587E+02  0.38083013721E+02  0.20238033411E+03  0.21012809259E+03  0.00000000000E+00 0.  1.
</event>
<event>
12    1  0.8407180E-002  0.2475106E+03  0.7818608E-02  0.1114890E+00
         21   -1    0    0  503  502  0.00000000000E+00  0.00000000000E+00  0.27927811043E+03  0.27927811043E+03  0.00000000000E+00 0.  1.
         21   -1    0    0  501  503 -0.00000000000E+00 -0.00000000000E+00 -0.30124114623E+03  0.30124114623E+03  0.00000000000E+00 0.  1.
          6    2    1    2  501    0  0.14327120176E+03  0.10516091806E+03 -0.16232376545E+03  0.29597994986E+03  0.17224886051E+03 0.  0.
         24    2    3    3    0    0  0.10973316163E+03  0.37278228015E+02 -0.16924614117E+03  0.21980338503E+03  0.78982521636E+02 0.  0.
         -6    2    1    2    0  502 -0.14327120176E+03 -0.10516091806E+03  0.14036072965E+03  0.28453930680E+03  0.17226731189E+03 0.  0.
        -24    2    5    5    0    0 -0.53811544396E+02 -0.33928059258E+02  0.13541586805E+03  0.16998062260E+03  0.80679360597E+02 0.  0.
          5    1    3    3  501    0  0.33538040133E+02  0.67882690047E+02  0.69223757209E+01  0.76176564832E+02  0.47000000000E+01 0. -1.
        -11    1    4    4    0    0  0.10481482197E+03  0.48959299379E+02 -0.11146124189E+03  0.16064485159E+03  0.00000000000E+00 0.  1.
         12    1    4    4    0    0  0.49183396615E+01 -0.11681071365E+02 -0.57784899283E+02  0.59158533437E+02  0.00000000000E+00 0. -1.
         -5    1    5    5    0  502 -0.89459657367E+02 -0.71232858803E+02  0.49448615994E+01  0.11455868420E+03  0.47000000000E+01 0.  1.
         11    1    6    6    0    0 -0.11449842709E+02 -0.54440445175E+02  0.70870576316E+02  0.90097167305E+02  0.00000000000E+00 0. -1.
        -12    1    6    6    0    0 -0.42361701686E+02  0.20512385917E+02  0.64545291729E+02  0.79883455297E+02  0.00000000000E+00 0.  1.
</event>
<event>
12    1  0.8407180E-002  0.1742023E+03  0.7818608E-02  0.1173578E+00
         21   -1    0    0  503  502  0.00000000000E+00  0.00000000000E+00  0.17614686485E+04  0.17614686485E+04  0.00000000000E+00 0. -1.
         21   -1    0    0  501  503 -0.00000000000E+00 -0.00000000000E+00 -0.68629785536E+02  0.68629785536E+02  0.00000000000E+00 0.  1.
          6    2    1    2  501    0  0.24764963925E+02  0.68576113995E+01  0.54274563115E+02  0.18230008410E+03  0.17212571623E+03 0.  0.
         24    2    3    3    0    0  0.56318087219E+02  0.51629734737E+02  0.99801307849E+01  0.11170100937E+03  0.80871231138E+02 0.  0.
         -6    2    1    2    0  502 -0.24764963925E+02 -0.68576113995E+01  0.16385642999E+04  0.16477983500E+04  0.17229656712E+03 0.  0.
        -24    2    5    5    0    0  0.58695785551E+01 -0.55058511723E+02  0.13611197667E+04  0.13644975188E+04  0.78361774292E+02 0.  0.
          5    1    3    3  501    0 -0.31553123294E+02 -0.44772123338E+02  0.44294432330E+02  0.70599074733E+02  0.47000000000E+01 0. -1.
        -11    1    4    4    0    0  0.67352441586E+02  0.12604366635E+02 -0.44222117095E+01  0.68664236705E+02  0.00000000000E+00 0.  1.
         12    1    4    4    0    0 -0.11034354366E+02  0.39025368102E+02  0.14402342494E+02  0.43036772661E+02  0.00000000000E+00 0. -1.
         -5    1    5    5    0  502 -0.30634542480E+02  0.48200900324E+02  0.27744453318E+03  0.28330083123E+03  0.47000000000E+01 0.  1.
         11    1    6    6    0    0  0.36634297859E+02 -0.47303446003E+01  0.53952239361E+03  0.54078541137E+03  0.00000000000E+00 0. -1.
        -12    1    6    6    0    0 -0.30764719304E+02 -0.50328167123E+02  0.82159737310E+03  0.82371210739E+03  0.00000000000E+00 0.  1.
</event>
<event>
12    1  0.8407180E-002  0.2296734E+03  0.7818608E-02  0.1126975E+00
         21   -1    0    0  501  502  0.00000000000E+00  0.00000000000E+00  0.68103315444E+03  0.68103315444E+03  0.00000000000E+00 0.  1.
         21   -1    0    0  502  503 -0.00000000000E+00 -0.00000000000E+00 -0.77254142729E+02  0.77254142729E+02  0.00000000000E+00 0.  1.
         -6    2    1    2    0  503 -0.60158618528E+02 -0.13859294121E+03  0.30236965360E+03  0.37970682375E+03  0.17298208532E+03 0.  0.
        -24    2    3    3    0    0 -0.41877051478E+02 -0.60112607468E+02  0.27249269764E+03  0.29363649799E+03  0.81258289833E+02 0.  0.
          6    2    1    2  501    0  0.60158618528E+02  0.13859294121E+03  0.30140935810E+03  0.37858047342E+03  0.17218742975E+03 0.  0.
         24    2    5    5    0    0  0.25762391094E+02  0.11760044280E+03  0.10645949060E+03  0.17945406560E+03  0.79853450650E+02 0.  0.
          5    1    5    5  501    0  0.34396227435E+02  0.20992498417E+02  0.19494986750E+03  0.19912640782E+03  0.47000000000E+01 0. -1.
        -13    1    6    6    0    0 -0.11248605564E+02  0.70571230251E+02  0.19829061455E+02  0.74162128775E+02  0.00000000000E+00 0.  1.
         14    1    6    6    0    0  0.37010996658E+02  0.47029212544E+02  0.86630429147E+02  0.10529193682E+03  0.00000000000E+00 0. -1.
         -5    1    3    3    0  503 -0.18281567050E+02 -0.78480333744E+02  0.29876955960E+02  0.86070325756E+02  0.47000000000E+01 0.  1.
         11    1    4    4    0    0 -0.35446977959E+02  0.85310376447E+01  0.59688852554E+02  0.69943019444E+02  0.00000000000E+00 0. -1.
        -12    1    4    4    0    0 -0.64300735187E+01 -0.68643645113E+02  0.21280384509E+03  0.22369347855E+03  0.00000000000E+00 0.  1.
</event>
<event>
12    1  0.8407180E-002  0.2659756E+03  0.7818608E-02  0.1103762E+00
         21   -1    0    0  503  502  0.00000000000E+00  0.00000000000E+00  0.11098811711E+04  0.11098811711E+04  0.00000000000E+00 0.  1.
         21   -1    0    0  501  503 -0.00000000000E+00 -0.00000000000E+00 -0.63710643748E+02  0.63710643748E+02  0.00000000000E+00 0.  1.
          6    2    1    2  501    0  0.16970134847E+03  0.10977762574E+03  0.55925307701E+03  0.61927945893E+03  0.17289699051E+03 0.  0.
         24    2    3    3    0    0  0.12445080247E+03  0.13299123825E+03  0.51183408314E+03  0.54958631222E+03  0.83044049958E+02 0.  0.
         -6    2    1    2    0  502 -0.16970134847E+03 -0.10977762574E+03  0.48691745032E+03  0.55431235589E+03  0.17124225437E+03 0.  0.
        -24    2    5    5    0    0 -0.15610590663E+03 -0.25992609167E+02  0.32511458062E+03  0.37153647213E+03  0.85411883102E+02 0.  0.
          5    1    3    3  501    0  0.45250545997E+02 -0.23213612510E+02  0.47418993870E+02  0.69693146710E+02  0.47000000000E+01 0. -1.
        -11    1    4    4    0    0  0.87545948308E+02  0.34153521859E+02  0.26418851191E+03  0.28040386222E+03  0.00000000000E+00 0.  1.
         12    1    4    4    0    0  0.36904854161E+02  0.98837716393E+02  0.24764557123E+03  0.26918245000E+03  0.00000000000E+00 0. -1.
         -5    1    5    5    0  502 -0.13595441834E+02 -0.83785016575E+02  0.16180286970E+03  0.18277588376E+03  0.47000000000E+01 0.  1.
         13    1    6    6    0    0  0.19423289263E+01  0.56105828769E+01 -0.24835196121E+01  0.64357712467E+01  0.00000000000E+00 0. -1.
        -14    1    6    6    0    0 -0.15804823556E+03 -0.31603192044E+02  0.32759810023E+03  0.36510070088E+03  0.00000000000E+00 0.  1.
</event>
<event>
12    1  0.8407180E-002  0.1856086E+03  0.7818608E-02  0.1162487E+00
         21   -1    0    0  503  502  0.00000000000E+00  0.00000000000E+00  0.16412684162E+03  0.16412684162E+03  0.00000000000E+00 0.  1.
         21   -1    0    0  501  503 -0.00000000000E+00 -0.00000000000E+00 -0.53402920638E+03  0.53402920638E+03  0.00000000000E+00 0.  1.
          6    2    1    2  501    0  0.53887089626E+02  0.43233675889E+02 -0.45691764835E+03  0.49317775539E+03  0.17227185459E+03 0.  0.
         24    2    3    3    0    0  0.38672349557E+01  0.87581320290E+02 -0.29447042452E+03  0.31745100742E+03  0.79855294270E+02 0.  0.
         -6    2    1    2    0  502 -0.53887089626E+02 -0.43233675889E+02  0.87015283585E+02  0.20497829261E+03  0.17225409053E+03 0.  0.
        -24    2    5    5    0    0 -0.75256020720E+02 -0.25842103528E+02 -0.27967532130E+01  0.11091772723E+03  0.77224590753E+02 0.  0.
          5    1    3    3  501    0  0.50019854671E+02 -0.44347644400E+02 -0.16244722383E+03  0.17572674798E+03  0.47000000000E+01 0. -1.
        -11    1    4    4    0    0  0.24508400588E+02  0.91901522505E+02 -0.21256476456E+03  0.23287406612E+03  0.00000000000E+00 0.  1.
         12    1    4    4    0    0 -0.20641165632E+02 -0.43202022157E+01 -0.81905659959E+02  0.84576941297E+02  0.00000000000E+00 0. -1.
         -5    1    5    5    0  502  0.21368931093E+02 -0.17391572361E+02  0.89812036798E+02  0.94060565377E+02  0.47000000000E+01 0.  1.
         13    1    6    6    0    0 -0.49471221777E+02 -0.14055644944E+02 -0.39279963252E+02  0.64713819637E+02  0.00000000000E+00 0. -1.
        -14    1    6    6    0    0 -0.25784798943E+02 -0.11786458584E+02  0.36483210039E+02  0.46203907597E+02  0.00000000000E+00 0.  1.
</event>
<event>
12    1  0.8407180E-002  0.1841684E+03  0.7818608E-02  0.1164252E+00
         21   -1    0    0  503  502  0.00000000000E+00  0.00000000000E+00  0.45730095958E+02  0.45730095958E+02  0.00000000000E+00 0.  1.
         21   -1    0    0  501  503 -0.00000000000E+00 -0.00000000000E+00 -0.92906871397E+03  0.92906871397E+03  0.00000000000E+00 0. -1.
          6    2    1    2  501    0  0.57746538562E+02 -0.27862637517E+02 -0.66300806473E+03  0.68763415853E+03  0.17073386539E+03 0.  0.
         24    2    3    3    0    0  0.10435235273E+03  0.14305040342E+02 -0.42810320186E+03  0.44442108411E+03  0.56068715459E+02 0.  0.
         -6    2    1    2    0  502 -0.57746538562E+02  0.27862637517E+02 -0.22033055328E+03  0.28716465140E+03  0.17264702436E+03 0.  0.
        -24    2    5    5    0    0 -0.58476213945E+02 -0.34751251096E+02 -0.19111414626E+03  0.21790629513E+03  0.79570217473E+02 0.  0.
          5    1    3    3  501    0 -0.46605814172E+02 -0.42167677859E+02 -0.23490486287E+03  0.24321307442E+03  0.47000000000E+01 0. -1.
        -13    1    4    4    0    0  0.26603604029E+02 -0.20765228675E+02 -0.10805005067E+03  0.11319787949E+03  0.00000000000E+00 0.  1.
         14    1    4    4    0    0  0.77748748705E+02  0.35070269017E+02 -0.32005315119E+03  0.33122320462E+03  0.00000000000E+00 0. -1.
         -5    1    5    5    0  502  0.72967538309E+00  0.62613888612E+02 -0.29216407023E+02  0.69258356266E+02  0.47000000000E+01 0.  1.
         11    1    6    6    0    0 -0.15297851836E+02 -0.47846041869E+02 -0.54896382762E+02  0.74410219955E+02  0.00000000000E+00 0. -1.
        -12    1    6    6    0    0 -0.43178362109E+02  0.13094790774E+02 -0.13621776349E+03  0.14349607518E+03  0.00000000000E+00 0.  1.
</event>
<event>
12    1  0.8407180E-002  0.1818266E+03  0.7818608E-02  0.1166083E+00
         21   -1    0    0  501  502  0.00000000000E+00  0.00000000000E+00  0.54583997877E+02  0.54583997877E+02  0.00000000000E+00 0. -1.
         21   -1    0    0  502  503 -0.00000000000E+00 -0.00000000000E+00 -0.60992268656E+03  0.60992268656E+03  0.00000000000E+00 0. -1.
         -6    2    1    2    0  503  0.85419134395E+01 -0.58379202384E+02 -0.24849313288E+03  0.30791189669E+03  0.17198780038E+03 0.  0.
        -24    2    3    3    0    0  0.65295156926E+02 -0.66627543625E+02 -0.16199451546E+03  0.20402221195E+03  0.81732201993E+02 0.  0.
          6    2    1    2  501    0 -0.85419134395E+01  0.58379202384E+02 -0.30684555580E+03  0.35659478775E+03  0.17182709907E+03 0.  0.
         24    2    5    5    0    0  0.33813375219E+02  0.16439748025E+02 -0.27483711687E+03  0.28877503788E+03  0.80261896516E+02 0.  0.
          5    1    5    5  501    0 -0.42355288659E+02  0.41939454358E+02 -0.32008438927E+02  0.67819749865E+02  0.47000000000E+01 0. -1.
        -13    1    6    6    0    0  0.46692702743E+02  0.35363005307E+02 -0.13619453441E+03  0.14825552886E+03  0.00000000000E+00 0.  1.
         14    1    6    6    0    0 -0.12879327524E+02 -0.18923257282E+02 -0.13864258246E+03  0.14051950902E+03  0.00000000000E+00 0. -1.
         -5    1    3    3    0  503 -0.56753243487E+02  0.82483412415E+01 -0.86498617425E+02  0.10388968474E+03  0.47000000000E+01 0.  1.
         13    1    4    4    0    0  0.44703784572E+02 -0.82537224535E+02 -0.14570433295E+03  0.17332216947E+03  0.00000000000E+00 0. -1.
        -14    1    4    4    0    0  0.20591372354E+02  0.15909680910E+02 -0.16290182506E+02  0.30700042478E+02  0.00000000000E+00 0.  1.
</event>
<event>
12    1  0.8407180E-002  0.2551112E+03  0.7818608E-02  0.1110311E+00
         21   -1    0    0  503  502  0.00000000000E+00  0.00000000000E+00  0.13041726839E+04  0.13041726839E+04  0.00000000000E+00 0. -1.
         21   -1    0    0  501  503 -0.00000000000E+00 -0.00000000000E+00 -0.56314791231E+02  0.56314791231E+02  0.00000000000E+00 0. -1.
          6    2    1    2  501    0 -0.16534243842E+03  0.90231036963E+02  0.85646558301E+03  0.89329407837E+03  0.17018006223E+03 0.  0.
         24    2    3    3    0    0 -0.35881427483E+02  0.88462704959E+01  0.36288840739E+03  0.37655028125E+03  0.93468629752E+02 0.  0.
         -6    2    1    2    0  502  0.16534243842E+03 -0.90231036963E+02  0.39139230966E+03  0.46719339677E+03  0.17205222448E+03 0.  0.
        -24    2    5    5    0    0  0.39730016411E+02 -0.18384581562E+02  0.68686025051E+02  0.11349602635E+03  0.79038667223E+02 0.  0.
          5    1    3    3  501    0 -0.12946101094E+03  0.81384766467E+02  0.49357717562E+03  0.51674379712E+03  0.47000000000E+01 0. -1.
        -13    1    4    4    0    0  0.79200759234E+01  0.40629082882E+02  0.21777612564E+03  0.22167519229E+03  0.00000000000E+00 0.  1.
         14    1    4    4    0    0 -0.43801503407E+02 -0.31782812386E+02  0.14511228175E+03  0.15487508896E+03  0.00000000000E+00 0. -1.
         -5    1    5    5    0  502  0.12561242201E+03 -0.71846455401E+02  0.32270628461E+03  0.35369737043E+03  0.47000000000E+01 0.  1.
         13    1    6    6    0    0  0.41354751318E+02  0.20850849773E+02  0.18740771802E+02  0.49961884678E+02  0.00000000000E+00 0. -1.
        -14    1    6    6    0    0 -0.16247349079E+01 -0.39235431336E+02  0.49945253250E+02  0.63534141670E+02  0.00000000000E+00 0.  1.
</event>
<event>
12    1  0.8407180E-002  0.2404666E+03  0.7818608E-02  0.1119493E+00
         21   -1    0    0  501  502  0.00000000000E+00  0.00000000000E+00  0.82563928599E+03  0.82563928599E+03  0.00000000000E+00 0.  1.
         21   -1    0    0  502  503 -0.00000000000E+00 -0.00000000000E+00 -0.95829790177E+02  0.95829790177E+02  0.00000000000E+00 0.  1.
         -6    2    1    2    0  503  0.78108895192E+02 -0.14817273168E+03  0.12575021645E+03  0.27130617997E+03  0.17244642191E+03 0.  0.
        -24    2    3    3    0    0  0.31804439756E+02 -0.76462564809E+01  0.73717294243E+02  0.11439439641E+03  0.81128606753E+02 0.  0.
          6    2    1    2  501    0 -0.78108895192E+02  0.14817273168E+03  0.60405927937E+03  0.65016289620E+03  0.17253411455E+03 0.  0.
         24    2    5    5    0    0 -0.37518763131E+02  0.15785278210E+03  0.35001680889E+03  0.39267322844E+03  0.73180184643E+02 0.  0.
          5    1    5    5  501    0 -0.40590132061E+02 -0.96800504193E+01  0.25404247047E+03  0.25748966776E+03  0.47000000000E+01 0. -1.
        -13    1    6    6    0    0 -0.57349921789E+02  0.13289786165E+03  0.26632575016E+03  0.30311756855E+03  0.00000000000E+00 0.  1.
         14    1    6    6    0    0  0.19831158658E+02  0.24954920446E+02  0.83691058729E+02  0.89555659896E+02  0.00000000000E+00 0. -1.
         -5    1    3    3    0  503  0.46304455436E+02 -0.14052647520E+03  0.52032922203E+02  0.15691178356E+03  0.47000000000E+01 0.  1.
         11    1    4    4    0    0  0.43675940608E+02 -0.36015666438E+02  0.44982842236E+02  0.72306100107E+02  0.00000000000E+00 0. -1.
        -12    1    4    4    0    0 -0.11871500852E+02  0.28369409957E+02  0.28734452006E+02  0.42088296306E+02  0.00000000000E+00 0.  1.
</event>
<event>
12    1  0.8407180E-002  0.1858162E+03  0.7818608E-02  0.1162327E+00
         21   -1    0    0  501  502  0.00000000000E+00  0.00000000000E+00  0.18869950182E+04  0.18869950182E+04  0.00000000000E+00 0. -1.
         21   -1    0    0  502  503 -0.00000000000E+00 -0.00000000000E+00 -0.64806792077E+02  0.64806792077E+02  0.00000000000E+00 0. -1.
         -6    2    1    2    0  503  0.18124627608E+02  0.70115166466E+02  0.84109884231E+02  0.20381897932E+03  0.17094755047E+03 0.  0.
        -24    2    3    3    0    0  0.58894778604E+02  0.70629229052E+02  0.10325323475E+02  0.11938722654E+03  0.75429534084E+02 0.  0.
          6    2    1    2  501    0 -0.18124627608E+02 -0.70115166466E+02  0.17380783419E+04  0.17479828310E+04  0.17112280988E+03 0.  0.
         24    2    5    5    0    0 -0.21607155627E+01  0.24437049791E+02  0.99596543193E+03  0.99968567794E+03  0.82598274630E+02 0.  0.
          5    1    5    5  501    0 -0.15963912045E+02 -0.94552216257E+02  0.74211291000E+03  0.74829715306E+03  0.47000000000E+01 0. -1.
        -13    1    6    6    0    0 -0.38578099857E+02 -0.16187693341E+01  0.33800965308E+03  0.34020790082E+03  0.00000000000E+00 0.  1.
         14    1    6    6    0    0  0.36417384294E+02  0.26055819125E+02  0.65795577885E+03  0.65947777712E+03  0.00000000000E+00 0. -1.
         -5    1    3    3    0  503 -0.40770150996E+02 -0.51406258637E+00  0.73784560756E+02  0.84431752786E+02  0.47000000000E+01 0.  1.
         11    1    4    4    0    0  0.60523737214E+02  0.14152963063E+02  0.95230692696E+01  0.62881777791E+02  0.00000000000E+00 0. -1.
        -12    1    4    4    0    0 -0.16289586096E+01  0.56476265989E+02  0.80225420545E+00  0.56505448747E+02  0.00000000000E+00 0.  1.
</event>
<event>
12    1  0.8407180E-002  0.2338288E+03  0.7818608E-02  0.1124208E+00
         21   -1    0    0  501  502  0.00000000000E+00  0.00000000000E+00  0.50948605846E+03  0.50948605846E+03  0.00000000000E+00 0. -1.
         21   -1    0    0  502  503 -0.00000000000E+00 -0.00000000000E+00 -0.10697217759E+03  0.10697217759E+03  0.00000000000E+00 0. -1.
         -6    2    1    2    0  503 -0.15332136447E+03  0.30137546922E+02  0.18498225267E+03  0.29709022747E+03  0.17212918672E+03 0.  0.
        -24    2    3    3    0    0 -0.82210492117E+02 -0.47622186694E+02  0.74509982348E+02  0.14435010554E+03  0.79112437837E+02 0.  0.
          6    2    1    2  501    0  0.15332136447E+03 -0.30137546922E+02  0.21753162820E+03  0.31936800858E+03  0.17395460070E+03 0.  0.
         24    2    5    5    0    0  0.58497024945E+02 -0.45880341938E+02  0.19073606504E+03  0.21947014492E+03  0.79120100471E+02 0.  0.
          5    1    5    5  501    0  0.94824339521E+02  0.15742795017E+02  0.26795563161E+02  0.99897863669E+02  0.47000000000E+01 0. -1.
        -11    1    6    6    0    0  0.51727804958E+02 -0.51175423914E+02  0.79001045723E+02  0.10740509785E+03  0.00000000000E+00 0.  1.
         12    1    6    6    0    0  0.67692199877E+01  0.52950819755E+01  0.11173501932E+03  0.11206504707E+03  0.00000000000E+00 0. -1.
         -5    1    3    3    0  503 -0.71110872350E+02  0.77759733616E+02  0.11047227032E+03  0.15274012193E+03  0.47000000000E+01 0.  1.
         11    1    4    4    0    0 -0.87941581329E+02 -0.16011721816E+02  0.42418153964E+02  0.98941380362E+02  0.00000000000E+00 0. -1.
        -12    1    4    4    0    0  0.57310892120E+01 -0.31610464878E+02  0.32091828384E+02  0.45408725179E+02  0.00000000000E+00 0.  1.
</event>
<event>
12    1  0.8407180E-002  0.2076832E+03  0.7818608E-02  0.1143596E+00
         21   -1    0    0  501  502  0.00000000000E+00  0.00000000000E+00  0.23081983525E+02  0.23081983525E+02  0.00000000000E+00 0. -1.
         21   -1    0    0  502  503 -0.00000000000E+00 -0.00000000000E+00 -0.20737589622E+04  0.20737589622E+04  0.00000000000E+00 0. -1.
         -6    2    1    2    0  503  0.74695425875E+02  0.88514366636E+02 -0.13595140448E+04  0.13751495279E+04  0.17129969731E+03 0.  0.
        -24    2    3    3    0    0 -0.15042684655E+02  0.24982610162E+02 -0.85903106084E+03  0.86270975602E+03  0.74049621668E+02 0.  0.
          6    2    1    2  501    0 -0.74695425875E+02 -0.88514366636E+02 -0.69116293384E+03  0.72169141780E+03  0.17238938966E+03 0.  0.
         24    2    5    5    0    0 -0.15174778303E+02  0.15905587961E+02 -0.20796455596E+03  0.22374664497E+03  0.79561567193E+02 0.  0.
          5    1    5    5  501    0 -0.59520647572E+02 -0.10441995460E+03 -0.48319837788E+03  0.49794477283E+03  0.47000000000E+01 0. -1.
        -13    1    6    6    0    0 -0.13778503567E+02  0.15913598295E+01 -0.20887564375E+03  0.20933564947E+03  0.00000000000E+00 0.  1.
         14    1    6    6    0    0 -0.13962747355E+01  0.14314228131E+02  0.91108779664E+00  0.14410995493E+02  0.00000000000E+00 0. -1.
         -5    1    3    3    0  503  0.89738110530E+02  0.63531756474E+02 -0.50048298399E+03  0.51243977190E+03  0.47000000000E+01 0.  1.
         13    1    4    4    0    0  0.16960621960E+02  0.39282009782E+02 -0.55975610112E+03  0.56138901996E+03  0.00000000000E+00 0. -1.
        -14    1    4    4    0    0 -0.32003306615E+02 -0.14299399620E+02 -0.29927495972E+03  0.30132073606E+03  0.00000000000E+00 0.  1.
</event>
<event>
12    1  0.8407180E-002  0.1831600E+03  0.7818608E-02  0.1164850E+00
         21   -1    0    0  503  502  0.00000000000E+00  0.00000000000E+00  0.77779320100E+02  0.77779320100E+02  0.00000000000E+00 0. -1.
         21   -1    0    0  501  503 -0.00000000000E+00 -0.00000000000E+00 -0.20080130876E+04  0.20080130876E+04  0.00000000000E+00 0. -1.
          6    2    1    2  501    0 -0.49153539753E+02 -0.40496705843E+02 -0.18892809026E+04  0.18981099286E+04  0.17141446455E+03 0.  0.
         24    2    3    3    0    0  0.43260246960E+01  0.38008451189E+02 -0.89635183356E+03  0.90063644547E+03  0.78968604772E+02 0.  0.
         -6    2    1    2    0  502  0.49153539753E+02  0.40496705843E+02 -0.40952864890E+02  0.18768247904E+03  0.17173095860E+03 0.  0.
        -24    2    5    5    0    0  0.31103491482E+02  0.27256715925E+02  0.42176652885E+02  0.10146352346E+03  0.82496186573E+02 0.  0.
          5    1    3    3  501    0 -0.53479564449E+02 -0.78505157032E+02 -0.99292906902E+03  0.99747348315E+03  0.47000000000E+01 0. -1.
        -11    1    4    4    0    0  0.23261626265E+02 -0.70062437028E+01 -0.10477354633E+03  0.10755318088E+03  0.00000000000E+00 0.  1.
         12    1    4    4    0    0 -0.18935601569E+02  0.45014694892E+02 -0.79157828723E+03  0.79308326459E+03  0.00000000000E+00 0. -1.
         -5    1    5    5    0  502  0.18050048271E+02  0.13239989918E+02 -0.83129517775E+02  0.86218955579E+02  0.47000000000E+01 0.  1.
         11    1    6    6    0    0  0.56939934217E+02  0.10935851017E+02  0.13446588836E+02  0.59519406057E+02  0.00000000000E+00 0. -1.
        -12    1    6    6    0    0 -0.25836442735E+02  0.16320864907E+02  0.28730064048E+02  0.41944117403E+02  0.00000000000E+00 0.  1.
</event>
<event>
12    1  0.8407180E-002  0.2467048E+03  0.7818608E-02  0.1115408E+00
         21   -1    0    0  501  502  0.00000000000E+00  0.00000000000E+00  0.10954864501E+04  0.10954864501E+04  0.00000000000E+00 0.  1.
         21   -1    0    0  502  503 -0.00000000000E+00 -0.00000000000E+00 -0.63090953235E+02  0.63090953235E+02  0.00000000000E+00 0.  1.
         -6    2    1    2    0  503 -0.67081293825E+02 -0.16415480352E+03  0.31596870484E+03  0.40086332223E+03  0.17148901181E+03 0.  0.
        -24    2    3    3    0    0  0.27870294090E+02 -0.87946249587E+02  0.13721433602E+03  0.18453310679E+03  0.81935324390E+02 0.  0.
          6    2    1    2  501    0  0.67081293825E+02  0.16415480352E+03  0.71642679201E+03  0.75771408109E+03  0.17151262600E+03 0.  0.
         24    2    5    5    0    0 -0.15386418913E+02  0.88902539870E+02  0.49814654309E+03  0.51249543601E+03  0.79757068988E+02 0.  0.
          5    1    5    5  501    0  0.82467712737E+02  0.75252263647E+02  0.21828024891E+03  0.24521864508E+03  0.47000000000E+01 0. -1.
        -11    1    6    6    0    0 -0.18580361688E+01 -0.42008789548E+01  0.19570087823E+03  0.19575477880E+03  0.00000000000E+00 0.  1.
         12    1    6    6    0    0 -0.13528382744E+02  0.93103418825E+02  0.30244566486E+03  0.31674065721E+03  0.00000000000E+00 0. -1.
         -5    1    3    3    0  503 -0.94951587915E+02 -0.76208553930E+02  0.17875436883E+03  0.21633021544E+03  0.47000000000E+01 0.  1.
         13    1    4    4    0    0 -0.22218533045E+02 -0.11299059825E+02  0.80244904253E+01  0.26186340145E+02  0.00000000000E+00 0. -1.
        -14    1    4    4    0    0  0.50088827135E+02 -0.76647189761E+02  0.12918984559E+03  0.15834676664E+03  0.00000000000E+00 0.  1.
</event>
<event>
12    1  0.8407180E-002  0.2932486E+03  0.7818608E-02  0.1088768E+00
         21   -1    0    0  501  502  0.00000000000E+00  0.00000000000E+00  0.18820318669E+03  0.18820318669E+03  0.00000000000E+00 0.  1.
         21   -1    0    0  502  503 -0.00000000000E+00 -0.00000000000E+00 -0.60690947465E+03  0.60690947465E+03  0.00000000000E+00 0.  1.
         -6    2    1    2    0  503  0.23438220866E+03  0.39364975280E+02 -0.40801896717E+03  0.50246811427E+03  0.17178506127E+03 0.  0.
        -24    2    3    3    0    0  0.64310662465E+02  0.60389467860E+02 -0.20287907064E+03  0.23512783062E+03  0.79639376537E+02 0.  0.
          6    2    1    2  501    0 -0.23438220866E+03 -0.39364975280E+02 -0.10687320793E+02  0.29264454707E+03  0.17041710915E+03 0.  0.
         24    2    5    5    0    0 -0.25022428670E+03 -0.29937012689E+02 -0.28347082407E+02  0.26668659846E+03  0.82521308376E+02 0.  0.
          5    1    5    5  501    0  0.15842078046E+02 -0.94279625910E+01  0.17659761614E+02  0.25957948603E+02  0.47000000000E+01 0. -1.
        -13    1    6    6    0    0 -0.17043563400E+03 -0.53229310431E+02  0.94603687533E+00  0.17855688117E+03  0.00000000000E+00 0.  1.
         14    1    6    6    0    0 -0.79788652697E+02  0.23292297741E+02 -0.29293119282E+02  0.88129717296E+02  0.00000000000E+00 0. -1.
         -5    1    3    3    0  503  0.17007154619E+03 -0.21024492580E+02 -0.20513989653E+03  0.26734028365E+03  0.47000000000E+01 0.  1.
         13    1    4    4    0    0  0.24226402395E+02  0.22149129184E+02 -0.97981970189E+01  0.34256490793E+02  0.00000000000E+00 0. -1.
        -14    1    4    4    0    0  0.40084260069E+02  0.38240338676E+02 -0.19308087362E+03  0.20087133983E+03  0.00000000000E+00 0.  1.
</event>
<event>
12    1  0.8407180E-002  0.1801082E+03  0.7818608E-02  0.1169751E+00
         21   -1    0    0  503  502  0.00000000000E+00  0.00000000000E+00  0.14356623728E+04  0.14356623728E+04  0.00000000000E+00 0.  1.
         21   -1    0    0  501  503 -0.00000000000E+00 -0.00000000000E+00 -0.21789367959E+02  0.21789367959E+02  0.00000000000E+00 0. -1.
          6    2    1    2  501    0 -0.29059192216E+02  0.23486168872E+02  0.65001187476E+03  0.67450307342E+03  0.17619001661E+03 0.  0.
         24    2    3    3    0    0  0.31674573023E+02 -0.22027420859E+02  0.21565402369E+03  0.23353945829E+03  0.80904479471E+02 0.  0.
         -6    2    1    2    0  502  0.29059192216E+02 -0.23486168872E+02  0.76386113008E+03  0.78294866733E+03  0.16771628676E+03 0.  0.
        -24    2    5    5    0    0  0.19786969537E+01 -0.15126414979E+02  0.17783292066E+03  0.19621670898E+03  0.81509051902E+02 0.  0.
          5    1    3    3  501    0 -0.60733765238E+02  0.45513589731E+02  0.43435785107E+03  0.44096361514E+03  0.47000000000E+01 0. -1.
        -13    1    4    4    0    0  0.10285990533E+02  0.24870930537E+02  0.13617421372E+03  0.13880843371E+03  0.00000000000E+00 0.  1.
         14    1    4    4    0    0  0.21388582489E+02 -0.46898351397E+02  0.79479809965E+02  0.94731024573E+02  0.00000000000E+00 0. -1.
         -5    1    5    5    0  502  0.27080495262E+02 -0.83597538922E+01  0.58602820942E+03  0.58673195835E+03  0.47000000000E+01 0.  1.
         11    1    6    6    0    0  0.19154450336E+02 -0.44378541701E+02  0.92020950481E+02  0.10394326942E+03  0.00000000000E+00 0. -1.
        -12    1    6    6    0    0 -0.17175753382E+02  0.29252126722E+02  0.85811970175E+02  0.92273439555E+02  0.00000000000E+00 0.  1.
</event>
<event>
12    1  0.8407180E-002  0.1798298E+03  0.7818608E-02  0.1168950E+00
         21   -1    0    0  503  502  0.00000000000E+00  0.00000000000E+00  0.27643296851E+03  0.27643296851E+03  0.00000000000E+00 0.  1.
         21   -1    0    0  501  503 -0.00000000000E+00 -0.00000000000E+00 -0.18512963424E+03  0.18512963424E+03  0.00000000000E+00 0.  1.
          6    2    1    2  501    0 -0.84552597886E+01 -0.41225074063E+02 -0.96677679065E+02  0.20416988539E+03  0.17483641017E+03 0.  0.
         24    2    3    3    0    0  0.60155019181E+02 -0.44113506039E+01 -0.65118920847E+02  0.12002319303E+03  0.80789892100E+02 0.  0.
         -6    2    1    2    0  502  0.84552597886E+01  0.41225074063E+02  0.18798101333E+03  0.25739271735E+03  0.17071365330E+03 0.  0.
        -24    2    5    5    0    0  0.61473468081E+01  0.18385681063E+02  0.15250500960E+02  0.83080112417E+02  0.79334129848E+02 0.  0.
          5    1    3    3  501    0 -0.68610278970E+02 -0.36813723459E+02 -0.31558758218E+02  0.84146692362E+02  0.47000000000E+01 0. -1.
        -13    1    4    4    0    0  0.20068851039E+02 -0.17769662761E+02 -0.72349639068E+02  0.77155621765E+02  0.00000000000E+00 0.  1.
         14    1    4    4    0    0  0.40086168142E+02  0.13358312157E+02  0.72307182212E+01  0.42867571263E+02  0.00000000000E+00 0. -1.
         -5    1    5    5    0  502  0.23079129805E+01  0.22839393000E+02  0.17273051237E+03  0.17431260494E+03  0.47000000000E+01 0.  1.
         11    1    6    6    0    0  0.36823648300E+02  0.28959095471E+02  0.18718515002E+02  0.50447924521E+02  0.00000000000E+00 0. -1.
        -12    1    6    6    0    0 -0.30676301492E+02 -0.10573414408E+02 -0.34680140413E+01  0.32632187896E+02  0.00000000000E+00 0.  1.
</event>
<event>
12    1  0.8407180E-002  0.1893109E+03  0.7818608E-02  0.1160079E+00
         21   -1    0    0  503  502  0.00000000000E+00  0.00000000000E+00  0.86426812084E+03  0.86426812084E+03  0.00000000000E+00 0.  1.
         21   -1    0    0  501  503 -0.00000000000E+00 -0.00000000000E+00 -0.72817074204E+02  0.72817074204E+02  0.00000000000E+00 0.  1.
          6    2    1    2  501    0  0.52063536993E+02 -0.44802988962E+02  0.81158373508E+02  0.20199725373E+03  0.17175066002E+03 0.  0.
         24    2    3    3    0    0  0.47057178009E+02 -0.28534326835E+02 -0.21025505158E+02  0.98298806018E+02  0.78689246961E+02 0.  0.
         -6    2    1    2    0  502 -0.52063536993E+02  0.44802988962E+02  0.71029267313E+03  0.73508794132E+03  0.17641054466E+03 0.  0.
        -24    2    5    5    0    0 -0.99608835454E+02  0.39381949024E+02  0.42120828054E+03  0.44203194135E+03  0.80640954652E+02 0.  0.
          5    1    3    3  501    0  0.50063589834E+01 -0.16268662128E+02  0.10218387867E+03  0.10369844771E+03  0.47000000000E+01 0. -1.
        -13    1    4    4    0    0 -0.14014290798E+02 -0.31912814388E+02 -0.80969993084E+01  0.35782530186E+02  0.00000000000E+00 0.  1.
         14    1    4    4    0    0  0.61071468807E+02  0.33784875535E+01 -0.12928505850E+02  0.62516275832E+02  0.00000000000E+00 0. -1.
         -5    1    5    5    0  502  0.47545298461E+02  0.54210399383E+01  0.28908439258E+03  0.29305599996E+03  0.47000000000E+01 0.  1.
         11    1    6    6    0    0 -0.48516604457E+02 -0.50734091520E+01  0.76470324872E+02  0.90704525656E+02  0.00000000000E+00 0. -1.
        -12    1    6    6    0    0 -0.51092230997E+02  0.44455358176E+02  0.34473795567E+03  0.35132741570E+03  0.00000000000E+00 0.  1.
</event>
<event>
12    1  0.8407180E-002  0.4119138E+03  0.7818608E-02  0.1039807E+00
         21   -1    0    0  503  502  0.00000000000E+00  0.00000000000E+00  0.11582221700E+04  0.11582221700E+04  0.00000000000E+00 0. -1.
         21   -1    0    0  501  503 -0.00000000000E+00 -0.00000000000E+00 -0.18426715775E+03  0.18426715775E+03  0.00000000000E+00 0.  1.
          6    2    1    2  501    0  0.34991997058E+03 -0.13176595057E+03  0.79262798262E+03  0.89327044590E+03  0.17281990378E+03 0.  0.
         24    2    3    3    0    0  0.65749542485E+02 -0.34653219121E+02  0.24979832915E+03  0.27289166040E+03  0.80912329940E+02 0.  0.
         -6    2    1    2    0  502 -0.34991997058E+03  0.13176595057E+03  0.18132702960E+03  0.44921888183E+03  0.17062198155E+03 0.  0.
        -24    2    5    5    0    0 -0.16420642774E+03  0.90170786369E+02  0.34342829517E+02  0.20870667267E+03  0.85349420934E+02 0.  0.
          5    1    3    3  501    0  0.28417042809E+03 -0.97112731448E+02  0.54282965347E+03  0.62037878550E+03  0.47000000000E+01 0. -1.
        -11    1    4    4    0    0  0.34520353113E+02  0.21291501787E+02  0.14010466394E+03  0.14585712079E+03  0.00000000000E+00 0.  1.
         12    1    4    4    0    0  0.31229189372E+02 -0.55944720908E+02  0.10969366521E+03  0.12703453961E+03  0.00000000000E+00 0. -1.
         -5    1    5    5    0  502 -0.18571354283E+03  0.41595164200E+02  0.14698420009E+03  0.24051220915E+03  0.47000000000E+01 0.  1.
         13    1    6    6    0    0 -0.13948858037E+02  0.13863721034E+02  0.35040168589E+02  0.40181921510E+02  0.00000000000E+00 0. -1.
        -14    1    6    6    0    0 -0.15025756970E+03  0.76307065335E+02 -0.69733907242E+00  0.16852475116E+03  0.00000000000E+00 0.  1.
</event>
<event>
12    1  0.8407180E-002  0.3770085E+03  0.7818608E-02  0.1052064E+00
         21   -1    0    0  503  502  0.00000000000E+00  0.00000000000E+00  0.17779560993E+04  0.17779560993E+04  0.00000000000E+00 0.  1.
         21   -1    0    0  501  503 -0.00000000000E+00 -0.00000000000E+00 -0.21284207785E+03  0.21284207785E+03  0.00000000000E+00 0.  1.
          6    2    1    2  501    0 -0.23182768233E+03 -0.24238811013E+03 -0.40469588632E+01  0.37703024767E+03  0.17216085372E+03 0.  0.
         24    2    3    3    0    0 -0.17561172239E+03 -0.23684248460E+03  0.35461912716E+02  0.30793589878E+03  0.81444035704E+02 0.  0.
         -6    2    1    2    0  502  0.23182768233E+03  0.24238811013E+03  0.15691609803E+04  0.16137679295E+04  0.17171103010E+03 0.  0.
        -24    2    5    5    0    0  0.66255753434E+02  0.14140814438E+03  0.89613677481E+03  0.91334328092E+03  0.82150724117E+02 0.  0.
          5    1    3    3  501    0 -0.56215959941E+02 -0.55456255245E+01 -0.39508871580E+02  0.69094348886E+02  0.47000000000E+01 0. -1.
        -13    1    4    4    0    0 -0.15366718632E+03 -0.15013787048E+03  0.10564948207E+02  0.21509672809E+03  0.00000000000E+00 0.  1.
         14    1    4    4    0    0 -0.21944536069E+02 -0.86704614120E+02  0.24896964509E+02  0.92839170692E+02  0.00000000000E+00 0. -1.
         -5    1    5    5    0  502  0.16557192889E+03  0.10097996575E+03  0.67302420549E+03  0.70042464855E+03  0.47000000000E+01 0.  1.
         11    1    6    6    0    0 -0.19982529223E+01  0.21945809532E+02  0.32972826903E+03  0.33046383004E+03  0.00000000000E+00 0. -1.
        -12    1    6    6    0    0  0.68254006356E+02  0.11946233485E+03  0.56640850578E+03  0.58287945088E+03  0.00000000000E+00 0.  1.
</event>
<event>
12    1  0.8407180E-002  0.2011356E+03  0.7818608E-02  0.1149685E+00
         21   -1    0    0  501  502  0.00000000000E+00  0.00000000000E+00  0.38183939605E+03  0.38183939605E+03  0.00000000000E+00 0.  1.
         21   -1    0    0  502  503 -0.00000000000E+00 -0.00000000000E+00 -0.11293674098E+03  0.11293674098E+03  0.00000000000E+00 0.  1.
         -6    2    1    2    0  503  0.83680085627E+02  0.52349814639E+02  0.62463179800E+02  0.20655265147E+03  0.17035107623E+03 0.  0.
        -24    2    3    3    0    0  0.98165665187E+02  0.77569831013E+02  0.83944774025E+02  0.17009130026E+03  0.78935092540E+02 0.  0.
          6    2    1    2  501    0 -0.83680085627E+02 -0.52349814639E+02  0.20643947527E+03  0.28822348556E+03  0.17525028062E+03 0.  0.
         24    2    5    5    0    0 -0.60855032956E+02 -0.65206675067E+02  0.22540563806E+03  0.25554188186E+03  0.80862266882E+02 0.  0.
          5    1    5    5  501    0 -0.22825052671E+02  0.12856860428E+02 -0.18966162792E+02  0.32681603702E+02  0.47000000000E+01 0. -1.
        -13    1    6    6    0    0 -0.55653736949E+02 -0.68356739877E+02  0.11464700745E+03  0.14461645356E+03  0.00000000000E+00 0.  1.
         14    1    6    6    0    0 -0.52012960061E+01  0.31500648096E+01  0.11075863061E+03  0.11092542830E+03  0.00000000000E+00 0. -1.
         -5    1    3    3    0  503 -0.14485579560E+02 -0.25220016373E+02 -0.21481594225E+02  0.36461351202E+02  0.47000000000E+01 0.  1.
         11    1    4    4    0    0  0.66448189454E+02  0.40114461123E+02  0.91984641660E+02  0.12035657927E+03  0.00000000000E+00 0. -1.
        -12    1    4    4    0    0  0.31717475733E+02  0.37455369890E+02 -0.80398676347E+01  0.49734720991E+02  0.00000000000E+00 0.  1.
</event>
<event>
12    1  0.8407180E-002  0.1783173E+03  0.7818608E-02  0.1170009E+00
         21   -1    0    0  501  502  0.00000000000E+00  0.00000000000E+00  0.24167581081E+02  0.24167581081E+02  0.00000000000E+00 0. -1.
         21   -1    0    0  502  503 -0.00000000000E+00 -0.00000000000E+00 -0.16595023094E+04  0.16595023094E+04  0.00000000000E+00 0. -1.
         -6    2    1    2    0  503  0.11992526030E+02 -0.31133429009E+02 -0.12143027198E+04  0.12273256129E+04  0.17516835826E+03 0.  0.
        -24    2    3    3    0    0  0.10172722808E+02  0.21923077520E+02 -0.29553197767E+03  0.30701041085E+03  0.79574725431E+02 0.  0.
          6    2    1    2  501    0 -0.11992526030E+02  0.31133429009E+02 -0.42103200857E+03  0.45634427761E+03  0.17282660786E+03 0.  0.
         24    2    5    5    0    0  0.67392549845E+00  0.25623164091E+00 -0.77786242397E+02  0.11144779125E+03  0.79808463442E+02 0.  0.
          5    1    5    5  501    0 -0.12666451528E+02  0.30877197368E+02 -0.34324576617E+03  0.34489648636E+03  0.47000000000E+01 0. -1.
        -13    1    6    6    0    0  0.20609001542E+02  0.30315844721E+02 -0.62106348456E+02  0.72117819603E+02  0.00000000000E+00 0.  1.
         14    1    6    6    0    0 -0.19935076043E+02 -0.30059613080E+02 -0.15679893941E+02  0.39329971643E+02  0.00000000000E+00 0. -1.
         -5    1    3    3    0  503  0.18198032216E+01 -0.53056506530E+02 -0.91877074211E+03  0.92031520205E+03  0.47000000000E+01 0.  1.
         11    1    4    4    0    0  0.14104865747E+02  0.34525607908E+02 -0.29049669280E+03  0.29288102254E+03  0.00000000000E+00 0. -1.
        -12    1    4    4    0    0 -0.39321429390E+01 -0.12602530388E+02 -0.50352848770E+01  0.14129388312E+02  0.00000000000E+00 0.  1.
</event>
<event>
12    1  0.8407180E-002  0.1854733E+03  0.7818608E-02  0.1162782E+00
         21   -1    0    0  501  502  0.00000000000E+00  0.00000000000E+00  0.26952708738E+02  0.26952708738E+02  0.00000000000E+00 0.  1.
         21   -1    0    0  502  503 -0.00000000000E+00 -0.00000000000E+00 -0.12937804820E+04  0.12937804820E+04  0.00000000000E+00 0.  1.
         -6    2    1    2    0  503  0.37431756487E+02 -0.58280946674E+02 -0.54492023766E+03  0.57538035747E+03  0.17125035829E+03 0.  0.
        -24    2    3    3    0    0  0.45968117542E+01 -0.10489122982E+03 -0.36254999715E+03  0.38424782044E+03  0.71976289865E+02 0.  0.
          6    2    1    2  501    0 -0.37431756487E+02  0.58280946674E+02 -0.72190753565E+03  0.74535283331E+03  0.17205391876E+03 0.  0.
         24    2    5    5    0    0 -0.43756738431E+02  0.96435023772E+02 -0.65097405861E+03  0.66442454925E+03  0.80488450726E+02 0.  0.
          5    1    5    5  501    0  0.63249819439E+01 -0.38154077098E+02 -0.70933477041E+02  0.80928284060E+02  0.47000000000E+01 0. -1.
        -11    1    6    6    0    0 -0.24374194058E+02  0.97904116205E+02 -0.61772701652E+03  0.62591212182E+03  0.00000000000E+00 0.  1.
         12    1    6    6    0    0 -0.19382544373E+02 -0.14690924334E+01 -0.33247042093E+02  0.38512427434E+02  0.00000000000E+00 0. -1.
         -5    1    3    3    0  503  0.32834944733E+02  0.46610283149E+02 -0.18237024051E+03  0.19113253704E+03  0.47000000000E+01 0.  1.
         11    1    4    4    0    0 -0.30946431028E+02 -0.47517319065E+02 -0.12431935175E+03  0.13664142280E+03  0.00000000000E+00 0. -1.
        -12    1    4    4    0    0  0.35543242782E+02 -0.57373910758E+02 -0.23823064540E+03  0.24760639763E+03  0.00000000000E+00 0.  1.
</event>
<event>
12    1  0.8407180E-002  0.3188291E+03  0.7818608E-02  0.1076870E+00
         21   -1    0    0  501  502  0.00000000000E+00  0.00000000000E+00  0.56910000309E+03  0.56910000309E+03  0.00000000000E+00 0. -1.
         21   -1    0    0  502  503 -0.00000000000E+00 -0.00000000000E+00 -0.19878863648E+03  0.19878863648E+03  0.00000000000E+00 0.  1.
         -6    2    1    2    0  503  0.10306516830E+03  0.24119085563E+03  0.31543333565E+03  0.44437109883E+03  0.17079820396E+03 0.  0.
        -24    2    3    3    0    0  0.11367606920E+03  0.11794397679E+03  0.23391187328E+03  0.29614754068E+03  0.78457447190E+02 0.  0.
          6    2    1    2  501    0 -0.10306516830E+03 -0.24119085563E+03  0.54878030960E+02  0.32351754074E+03  0.18126373914E+03 0.  0.
         24    2    5    5    0    0 -0.14219613388E+03 -0.21861025282E+03  0.39262192491E+02  0.27548567110E+03  0.79628211668E+02 0.  0.
          5    1    5    5  501    0  0.39130965577E+02 -0.22580602809E+02  0.15615838469E+02  0.48031869641E+02  0.47000000000E+01 0. -1.
        -11    1    6    6    0    0 -0.33662822823E+02 -0.91926956935E+02 -0.17150554037E+02  0.99387587533E+02  0.00000000000E+00 0.  1.
         12    1    6    6    0    0 -0.10853331105E+03 -0.12668329589E+03  0.56412746528E+02  0.17609808357E+03  0.00000000000E+00 0. -1.
         -5    1    3    3    0  503 -0.10610900905E+02  0.12324687884E+03  0.81521462367E+02  0.14822355814E+03  0.47000000000E+01 0.  1.
         13    1    4    4    0    0  0.11850250578E+03  0.12275999778E+03  0.20635493446E+03  0.26775963084E+03  0.00000000000E+00 0. -1.
        -14    1    4    4    0    0 -0.48264365781E+01 -0.48160209858E+01  0.27556938818E+02  0.28387909842E+02  0.00000000000E+00 0.  1.
</event>
<event>
12    1  0.8407180E-002  0.2023960E+03  0.7818608E-02  0.1147952E+00
         21   -1    0    0  503  502  0.00000000000E+00  0.00000000000E+00  0.11771371960E+04  0.11771371960E+04  0.00000000000E+00 0. -1.
         21   -1    0    0  501  503 -0.00000000000E+00 -0.00000000000E+00 -0.36418450106E+02  0.36418450106E+02  0.00000000000E+00 0.  1.
          6    2    1    2  501    0  0.18239824896E+02  0.10388003218E+03  0.43689717105E+03  0.48150107281E+03  0.17274371986E+03 0.  0.
         24    2    3    3    0    0  0.67968183328E+02  0.23549610445E+02  0.21891937053E+03  0.24388310672E+03  0.79868772715E+02 0.  0.
         -6    2    1    2    0  502 -0.18239824896E+02 -0.10388003218E+03  0.70382157486E+03  0.73205457331E+03  0.17150899909E+03 0.  0.
        -24    2    5    5    0    0  0.67867040312E+00 -0.95162756362E+02  0.69934909574E+03  0.71023729962E+03  0.79318681706E+02 0.  0.
          5    1    3    3  501    0 -0.49728358432E+02  0.80330421731E+02  0.21797780052E+03  0.23761796609E+03  0.47000000000E+01 0. -1.
        -13    1    4    4    0    0  0.70539007384E+02 -0.57240805265E+01  0.10788559570E+03  0.12902642528E+03  0.00000000000E+00 0.  1.
         14    1    4    4    0    0 -0.25708240563E+01  0.29273690972E+02  0.11103377483E+03  0.11485668145E+03  0.00000000000E+00 0. -1.
         -5    1    5    5    0  502 -0.18918495299E+02 -0.87172758148E+01  0.44724791250E+01  0.21817273696E+02  0.47000000000E+01 0. -1.
         13    1    6    6    0    0  0.10002821272E+02 -0.92849936098E+02  0.69164997537E+03  0.69792611034E+03  0.00000000000E+00 0. -1.
        -14    1    6    6    0    0 -0.93241508686E+01 -0.23128202641E+01  0.76991203701E+01  0.12311189279E+02  0.00000000000E+00 0.  1.
</event>
<event>
12    1  0.8407180E-002  0.2639613E+03  0.7818608E-02  0.1105058E+00
         21   -1    0    0  503  502  0.00000000000E+00  0.00000000000E+00  0.29870910552E+03  0.29870910552E+03  0.00000000000E+00 0.  1.
         21   -1    0    0  501  503 -0.00000000000E+00 -0.00000000000E+00 -0.24369736364E+03  0.24369736364E+03  0.00000000000E+00 0.  1.
          6    2    1    2  501    0  0.19908207007E+03 -0.12454261165E+02 -0.32743085265E+02  0.26598434725E+03  0.17287794569E+03 0.  0.
         24    2    3    3    0    0  0.17243307821E+02 -0.97409137177E+01 -0.13559882785E+02  0.83055992511E+02  0.79512328643E+02 0.  0.
         -6    2    1    2    0  502 -0.19908207007E+03  0.12454261165E+02  0.87754827136E+02  0.27642212191E+03  0.17005734489E+03 0.  0.
        -24    2    5    5    0    0 -0.11503236959E+03  0.13861971077E+02 -0.17767415525E+02  0.14142816836E+03  0.79130559559E+02 0.  0.
          5    1    3    3  501    0  0.18183876225E+03 -0.27133474471E+01 -0.19183202481E+02  0.18292835474E+03  0.47000000000E+01 0. -1.
        -13    1    4    4    0    0  0.36032907185E+02 -0.34699917170E+02 -0.13503039796E+02  0.51814927729E+02  0.00000000000E+00 0.  1.
         14    1    4    4    0    0 -0.18789599365E+02  0.24959003452E+02 -0.56842988570E-01  0.31241064782E+02  0.00000000000E+00 0. -1.
         -5    1    5    5    0  502 -0.84049700478E+02 -0.14077099122E+01  0.10552224266E+03  0.13499395355E+03  0.47000000000E+01 0.  1.
         11    1    6    6    0    0  0.56043065473E+01 -0.85138041353E+01 -0.15697520365E+02  0.18716443528E+02  0.00000000000E+00 0. -1.
        -12    1    6    6    0    0 -0.12063667614E+03  0.22375775212E+02 -0.20698951608E+01  0.12271172484E+03  0.00000000000E+00 0.  1.
</event>
<event>
12    1  0.8407180E-002  0.3100017E+03  0.7818608E-02  0.1080346E+00
         21   -1    0    0  503  502  0.00000000000E+00  0.00000000000E+00  0.26013120693E+03  0.26013120693E+03  0.00000000000E+00 0. -1.
         21   -1    0    0  501  503 -0.00000000000E+00 -0.00000000000E+00 -0.38974708510E+03  0.38974708510E+03  0.00000000000E+00 0.  1.
          6    2    1    2  501    0  0.25476016172E+03  0.41208649440E+02 -0.13900094522E+03  0.33973459123E+03  0.17174817879E+03 0.  0.
         24    2    3    3    0    0  0.25414597805E+03  0.48669751471E+02 -0.83207156031E+02  0.28324492689E+03  0.79657610608E+02 0.  0.
         -6    2    1    2    0  502 -0.25476016172E+03 -0.41208649440E+02  0.93850670508E+01  0.31014370080E+03  0.17175605630E+03 0.  0.
        -24    2    5    5    0    0 -0.14125260290E+03 -0.79872064908E+02 -0.24777318074E+02  0.18537197258E+03  0.86122053794E+02 0.  0.
          5    1    3    3  501    0  0.61418367195E+00 -0.74611020309E+01 -0.55793789185E+02  0.56489664336E+02  0.47000000000E+01 0. -1.
        -13    1    4    4    0    0  0.11144195676E+02 -0.63624946169E+01 -0.23901629367E+02  0.27128625498E+02  0.00000000000E+00 0.  1.
         14    1    4    4    0    0  0.24300178237E+03  0.55032246088E+02 -0.59305526664E+02  0.25611630139E+03  0.00000000000E+00 0. -1.
         -5    1    5    5    0  502 -0.11350755882E+03  0.38663415469E+02  0.34162385125E+02  0.12477172822E+03  0.47000000000E+01 0.  1.
         11    1    6    6    0    0 -0.16613795812E+02 -0.64207479886E+01  0.26458829936E+02  0.31895358558E+02  0.00000000000E+00 0. -1.
        -12    1    6    6    0    0 -0.12463880709E+03 -0.73451316920E+02 -0.51236148009E+02  0.15347661403E+03  0.00000000000E+00 0.  1.
</event>
<event>
12    1  0.8407180E-002  0.1781223E+03  0.7818608E-02  0.1169750E+00
         21   -1    0    0  501  502  0.00000000000E+00  0.00000000000E+00  0.96282569188E+02  0.96282569188E+02  0.00000000000E+00 0. -1.
         21   -1    0    0  502  503 -0.00000000000E+00 -0.00000000000E+00 -0.45397975050E+03  0.45397975050E+03  0.00000000000E+00 0. -1.
         -6    2    1    2    0  503 -0.10088231775E+02 -0.43908707385E+02 -0.32358708113E+03  0.36937263290E+03  0.17233048441E+03 0.  0.
        -24    2    3    3    0    0  0.11423292747E+02 -0.39189616927E+02 -0.74486564697E+02  0.11925631438E+03  0.83710826707E+02 0.  0.
          6    2    1    2  501    0  0.10088231775E+02  0.43908707385E+02 -0.34110100182E+02  0.18088968679E+03  0.17183664582E+03 0.  0.
         24    2    5    5    0    0  0.17394004894E+02 -0.31226223585E+02  0.13473691974E+02  0.91531198389E+02  0.83179273004E+02 0.  0.
          5    1    5    5  501    0 -0.73057731191E+01  0.75134930969E+02 -0.47583792156E+02  0.89358488397E+02  0.47000000000E+01 0. -1.
        -13    1    6    6    0    0  0.20888074398E+02 -0.10831465505E+02  0.46755073806E+02  0.52341849639E+02  0.00000000000E+00 0.  1.
         14    1    6    6    0    0 -0.34940695039E+01 -0.20394758079E+02 -0.33281381832E+02  0.39189348750E+02  0.00000000000E+00 0. -1.
         -5    1    3    3    0  503 -0.21511524522E+02 -0.47190904574E+01 -0.24910051643E+03  0.25011631852E+03  0.47000000000E+01 0.  1.
         11    1    4    4    0    0  0.42179822311E+02 -0.38220171860E+02 -0.27813870207E+02  0.63352429496E+02  0.00000000000E+00 0. -1.
        -12    1    4    4    0    0 -0.30756529564E+02 -0.96944506740E+00 -0.46672694489E+02  0.55903884887E+02  0.00000000000E+00 0.  1.
</event>
<event>
12    1  0.8407180E-002  0.2089984E+03  0.7818608E-02  0.1142547E+00
         21   -1    0    0  503  502  0.00000000000E+00  0.00000000000E+00  0.92699689420E+02  0.92699689420E+02  0.00000000000E+00 0. -1.
         21   -1    0    0  501  503 -0.00000000000E+00 -0.00000000000E+00 -0.12911394551E+04  0.12911394551E+04  0.00000000000E+00 0.  1.
          6    2    1    2  501    0  0.68793417177E+01  0.11867445309E+03 -0.11517942693E+04  0.11706025647E+04  0.17189931549E+03 0.  0.
         24    2    3    3    0    0  0.40855297950E+02  0.14045156694E+03 -0.86957627998E+03  0.88547506383E+03  0.80668357710E+02 0.  0.
         -6    2    1    2    0  502 -0.68793417177E+01 -0.11867445309E+03 -0.46645496405E+02  0.21323657979E+03  0.17077202776E+03 0.  0.
        -24    2    5    5    0    0 -0.25079156414E+02 -0.40775461064E+01 -0.48771036292E+02  0.97088862351E+02  0.80012766125E+02 0.  0.
          5    1    3    3  501    0 -0.33975956232E+02 -0.21777113845E+02 -0.28221798930E+03  0.28512750090E+03  0.47000000000E+01 0. -1.
        -13    1    4    4    0    0  0.21229475154E+02  0.38859596535E+02 -0.49166287867E+03  0.49365285892E+03  0.00000000000E+00 0.  1.
         14    1    4    4    0    0  0.19625822797E+02  0.10159197040E+03 -0.37791340131E+03  0.39182220491E+03  0.00000000000E+00 0. -1.
         -5    1    5    5    0  502  0.18199814697E+02 -0.11459690699E+03  0.21255398870E+01  0.11614771744E+03  0.47000000000E+01 0.  1.
         13    1    6    6    0    0  0.21987646451E+02 -0.22341512616E+02 -0.84171008929E+01  0.32456853974E+02  0.00000000000E+00 0. -1.
        -14    1    6    6    0    0 -0.47066802866E+02  0.18263966510E+02 -0.40353935399E+02  0.64632008377E+02  0.00000000000E+00 0.  1.
</event>
<event>
12    1  0.8407180E-002  0.2096978E+03  0.7818608E-02  0.1142025E+00
         21   -1    0    0  501  502  0.00000000000E+00  0.00000000000E+00  0.60329676016E+03  0.60329676016E+03  0.00000000000E+00 0. -1.
         21   -1    0    0  502  503 -0.00000000000E+00 -0.00000000000E+00 -0.26024156827E+03  0.26024156827E+03  0.00000000000E+00 0. -1.
         -6    2    1    2    0  503  0.10715690192E+03  0.48925400695E+02 -0.19532141307E+03  0.28576455502E+03  0.17214711743E+03 0.  0.
        -24    2    3    3    0    0  0.12963791600E+03  0.65915174117E+02 -0.11880297102E+03  0.20408707729E+03  0.79916141989E+02 0.  0.
          6    2    1    2  501    0 -0.10715690192E+03 -0.48925400695E+02  0.53837660495E+03  0.57777377341E+03  0.17348448926E+03 0.  0.
         24    2    5    5    0    0  0.16418316311E+02 -0.14567186961E+02  0.19680659732E+03  0.21288545964E+03  0.78138454867E+02 0.  0.
          5    1    5    5  501    0 -0.12357521823E+03 -0.34358213734E+02  0.34157000763E+03  0.36488831377E+03  0.47000000000E+01 0. -1.
        -13    1    6    6    0    0 -0.17373128189E+02 -0.13928865466E+02  0.12561591780E+02  0.25566236804E+02  0.00000000000E+00 0.  1.
         14    1    6    6    0    0  0.33791444500E+02 -0.63832149476E+00  0.18424500554E+03  0.18731922283E+03  0.00000000000E+00 0. -1.
         -5    1    3    3    0  503 -0.22481014077E+02 -0.16989773421E+02 -0.76518442047E+02  0.81677477729E+02  0.47000000000E+01 0.  1.
         11    1    4    4    0    0  0.11590919150E+03  0.83718521966E+02 -0.10774559383E+03  0.17903308237E+03  0.00000000000E+00 0. -1.
        -12    1    4    4    0    0  0.13728724502E+02 -0.17803347849E+02 -0.11057377190E+02  0.25053994919E+02  0.00000000000E+00 0.  1.
</event>
<event>
12    1  0.8407180E-002  0.1923871E+03  0.7818608E-02  0.1156693E+00
         21   -1    0    0  501  502  0.00000000000E+00  0.00000000000E+00  0.49470712399E+03  0.49470712399E+03  0.00000000000E+00 0.  1.
         21   -1    0    0  502  503 -0.00000000000E+00 -0.00000000000E+00 -0.80455411465E+02  0.80455411465E+02  0.00000000000E+00 0.  1.
         -6    2    1    2    0  503  0.54302446440E+02  0.68583114056E+02  0.28662933907E+03  0.34429405299E+03  0.16949813477E+03 0.  0.
        -24    2    3    3    0    0  0.68541104506E+01  0.10316926918E+03  0.17467196568E+03  0.21778677980E+03  0.78929772136E+02 0.  0.
          6    2    1    2  501    0 -0.54302446440E+02 -0.68583114056E+02  0.12762237345E+03  0.23086848246E+03  0.17134872851E+03 0.  0.
         24    2    5    5    0    0  0.21247707287E+02 -0.43993758559E+02  0.24700036245E+02  0.10076252707E+03  0.84593612129E+02 0.  0.
          5    1    5    5  501    0 -0.75550153727E+02 -0.24589355497E+02  0.10292233721E+03  0.13010595539E+03  0.47000000000E+01 0. -1.
        -13    1    6    6    0    0  0.12398315949E+02 -0.63356888569E+02  0.38712003439E+02  0.75275711739E+02  0.00000000000E+00 0.  1.
         14    1    6    6    0    0  0.88493913373E+01  0.19363130010E+02 -0.14011967194E+02  0.25486815326E+02  0.00000000000E+00 0. -1.
         -5    1    3    3    0  503  0.47448335990E+02 -0.34586155124E+02  0.11195737339E+03  0.12650727319E+03  0.47000000000E+01 0.  1.
         13    1    4    4    0    0  0.35380305160E+02  0.41784946987E+02  0.42574456200E+02  0.69356557792E+02  0.00000000000E+00 0. -1.
        -14    1    4    4    0    0 -0.28526194710E+02  0.61384322192E+02  0.13209750948E+03  0.14843022201E+03  0.00000000000E+00 0.  1.
</event>
<event>
12    1  0.8407180E-002  0.2347723E+03  0.7818608E-02  0.1124640E+00
         21   -1    0    0  501  502  0.00000000000E+00  0.00000000000E+00  0.98104478313E+02  0.98104478313E+02  0.00000000000E+00 0. -1.
         21   -1    0    0  502  503 -0.00000000000E+00 -0.00000000000E+00 -0.54576540917E+03  0.54576540917E+03  0.00000000000E+00 0. -1.
         -6    2    1    2    0  503 -0.70868805097E+02 -0.12988591916E+03 -0.20877971661E+03  0.31417672729E+03  0.18227810173E+03 0.  0.
        -24    2    3    3    0    0 -0.10416974217E+03 -0.53787163614E+02 -0.85335864299E+02  0.16531287110E+03  0.79383508747E+02 0.  0.
          6    2    1    2  501    0  0.70868805097E+02  0.12988591916E+03 -0.23888121424E+03  0.32969316019E+03  0.17245464861E+03 0.  0.
         24    2    5    5    0    0  0.10817337939E+03  0.12418496239E+03 -0.16698498982E+03  0.24835873170E+03  0.81698763132E+02 0.  0.
          5    1    5    5  501    0 -0.37304574290E+02  0.57009567759E+01 -0.71896224421E+02  0.81334428486E+02  0.47000000000E+01 0. -1.
        -11    1    6    6    0    0 -0.10525869933E+02  0.51401851263E+01 -0.44487741041E+00  0.11722344342E+02  0.00000000000E+00 0.  1.
         12    1    6    6    0    0  0.11869924932E+03  0.11904477726E+03 -0.16654011241E+03  0.23663638736E+03  0.00000000000E+00 0. -1.
         -5    1    3    3    0  503  0.33300937076E+02 -0.76098755550E+02 -0.12344385231E+03  0.14886385619E+03  0.47000000000E+01 0.  1.
         11    1    4    4    0    0 -0.45313888031E+02 -0.62121876453E+02 -0.69858597483E+02  0.10388791857E+03  0.00000000000E+00 0. -1.
        -12    1    4    4    0    0 -0.58855854143E+02  0.83347128395E+01 -0.15477266817E+02  0.61424952529E+02  0.00000000000E+00 0.  1.
</event>
<event>
12    1  0.8407180E-002  0.1885125E+03  0.7818608E-02  0.1160214E+00
         21   -1    0    0  501  502  0.00000000000E+00  0.00000000000E+00  0.56990820483E+03  0.56990820483E+03  0.00000000000E+00 0.  1.
         21   -1    0    0  502  503 -0.00000000000E+00 -0.00000000000E+00 -0.72010293955E+02  0.72010293955E+02  0.00000000000E+00 0.  1.
         -6    2    1    2    0  503 -0.58068188934E+02 -0.48825068682E+02  0.36896117993E+03  0.41352923957E+03  0.17064078582E+03 0.  0.
        -24    2    3    3    0    0 -0.53938935518E+02  0.17153503060E+01  0.95903687442E+02  0.13576338694E+03  0.79509928787E+02 0.  0.
          6    2    1    2  501    0  0.58068188934E+02  0.48825068682E+02  0.12893673094E+03  0.22838925921E+03  0.17257222036E+03 0.  0.
         24    2    5    5    0    0  0.63125551522E+01 -0.27562789982E+02  0.21407352233E+02  0.86620405564E+02  0.79026983912E+02 0.  0.
          5    1    5    5  501    0  0.51755633782E+02  0.76387858664E+02  0.10752937871E+03  0.14176885365E+03  0.47000000000E+01 0. -1.
        -13    1    6    6    0    0 -0.20289785248E+02  0.20593571681E+02  0.68030697155E+01  0.29699365945E+02  0.00000000000E+00 0.  1.
         14    1    6    6    0    0  0.26602340400E+02 -0.48156361663E+02  0.14604282518E+02  0.56921039619E+02  0.00000000000E+00 0. -1.
         -5    1    3    3    0  503 -0.41292534162E+01 -0.50540418988E+02  0.27305749249E+03  0.27776585264E+03  0.47000000000E+01 0.  1.
         11    1    4    4    0    0 -0.15912926824E+02  0.20703262009E+02 -0.47163341206E+01  0.26534696257E+02  0.00000000000E+00 0. -1.
        -12    1    4    4    0    0 -0.38026008694E+02 -0.18987911703E+02  0.10062002156E+03  0.10922869068E+03  0.00000000000E+00 0.  1.
</event>
<event>
12    1  0.8407180E-002  0.3750749E+03  0.7818608E-02  0.1052851E+00
         21   -1    0    0  501  502  0.00000000000E+00  0.00000000000E+00  0.18213058688E+03  0.18213058688E+03  0.00000000000E+00 0. -1.
         21   -1    0    0  502  503 -0.00000000000E+00 -0.00000000000E+00 -0.77354752779E+03  0.77354752779E+03  0.00000000000E+00 0.  1.
         -6    2    1    2    0  503  0.27509452140E+03 -0.18750869590E+03 -0.26603699322E+03  0.45913674865E+03  0.17086358727E+03 0.  0.
        -24    2    3    3    0    0  0.14283234607E+03 -0.89867475118E+02 -0.61581499821E+02  0.19674156996E+03  0.80235416507E+02 0.  0.
          6    2    1    2  501    0 -0.27509452140E+03  0.18750869590E+03 -0.32537994769E+03  0.49654136603E+03  0.17275621862E+03 0.  0.
         24    2    5    5    0    0 -0.47204504703E+02  0.35110359347E+02 -0.74187792627E+02  0.12468292325E+03  0.81123363952E+02 0.  0.
          5    1    5    5  501    0 -0.22789001670E+03  0.15239833655E+03 -0.25119215507E+03  0.37185844277E+03  0.47000000000E+01 0. -1.
        -11    1    6    6    0    0 -0.50922558382E+02  0.47797746790E+02 -0.83241217331E+02  0.10865924633E+03  0.00000000000E+00 0.  1.
         12    1    6    6    0    0  0.37180536788E+01 -0.12687387443E+02  0.90534247044E+01  0.16023676924E+02  0.00000000000E+00 0. -1.
         -5    1    3    3    0  503  0.13226217533E+03 -0.97641220781E+02 -0.20445549340E+03  0.26239517869E+03  0.47000000000E+01 0.  1.
         11    1    4    4    0    0  0.12902591827E+03 -0.86628676294E+02 -0.78954189188E+02  0.17431574551E+03  0.00000000000E+00 0. -1.
        -12    1    4    4    0    0  0.13806427800E+02 -0.32387988237E+01  0.17372689368E+02  0.22425824451E+02  0.00000000000E+00 0.  1.
</event>
<event>
12    1  0.8407180E-002  0.2315132E+03  0.7818608E-02  0.1125844E+00
         21   -1    0    0  501  502  0.00000000000E+00  0.00000000000E+00  0.25582778439E+03  0.25582778439E+03  0.00000000000E+00 0. -1.
         21   -1    0    0  502  503 -0.00000000000E+00 -0.00000000000E+00 -0.25769440976E+03  0.25769440976E+03  0.00000000000E+00 0. -1.
         -6    2    1    2    0  503  0.75041966841E+02  0.13600134878E+03 -0.11352804894E+03  0.25785070202E+03  0.17167033226E+03 0.  0.
        -24    2    3    3    0    0  0.88481424523E+01  0.17235208442E+02 -0.85248864611E+02  0.11889451919E+03  0.80580368216E+02 0.  0.
          6    2    1    2  501    0 -0.75041966841E+02 -0.13600134878E+03  0.11166142357E+03  0.25567149213E+03  0.16962303710E+03 0.  0.
         24    2    5    5    0    0 -0.77697366450E+02 -0.66500995893E+02  0.84414444163E+01  0.13111706910E+03  0.81615958106E+02 0.  0.
          5    1    5    5  501    0  0.26553996090E+01 -0.69500352891E+02  0.10321997916E+03  0.12455442303E+03  0.47000000000E+01 0. -1.
        -11    1    6    6    0    0  0.14923462300E+02 -0.12131280553E+02  0.13661636513E+02  0.23590633885E+02  0.00000000000E+00 0.  1.
         12    1    6    6    0    0 -0.92620828750E+02 -0.54369715339E+02 -0.52201920967E+01  0.10752643521E+03  0.00000000000E+00 0. -1.
         -5    1    3    3    0  503  0.66193824389E+02  0.11876614034E+03 -0.28279184329E+02  0.13895618282E+03  0.47000000000E+01 0.  1.
         13    1    4    4    0    0 -0.29208976995E+02  0.30797103255E+02 -0.45266962809E+02  0.62054200728E+02  0.00000000000E+00 0. -1.
        -14    1    4    4    0    0  0.38057119447E+02 -0.13561894813E+02 -0.39981901802E+02  0.56840318465E+02  0.00000000000E+00 0.  1.
</event>
<event>
12    1  0.8407180E-002  0.2147219E+03  0.7818608E-02  0.1138267E+00
         21   -1    0    0  501  502  0.00000000000E+00  0.00000000000E+00  0.23686727297E+03  0.23686727297E+03  0.00000000000E+00 0.  1.
         21   -1    0    0  502  503 -0.00000000000E+00 -0.00000000000E+00 -0.24205008417E+03  0.24205008417E+03  0.00000000000E+00 0.  1.
         -6    2    1    2    0  503 -0.39085082359E+02 -0.12181761166E+03 -0.11055417803E+03  0.23973412897E+03  0.16995014604E+03 0.  0.
        -24    2    3    3    0    0 -0.64571968115E+02 -0.72228552598E+02 -0.12972016723E+03  0.18058954962E+03  0.79992254426E+02 0.  0.
          6    2    1    2  501    0  0.39085082359E+02  0.12181761166E+03  0.10537136683E+03  0.23918322816E+03  0.17244801394E+03 0.  0.
         24    2    5    5    0    0  0.14493861394E+01  0.14650611731E+03  0.66398568614E+02  0.17945938919E+03  0.79566068922E+02 0.  0.
          5    1    5    5  501    0  0.37635696220E+02 -0.24688505649E+02  0.38972798219E+02  0.59723838977E+02  0.47000000000E+01 0. -1.
        -11    1    6    6    0    0 -0.74433771294E+01  0.33694834276E+02 -0.17402619949E+02  0.38647081404E+02  0.00000000000E+00 0.  1.
         12    1    6    6    0    0  0.88927632688E+01  0.11281128304E+03  0.83801188563E+02  0.14081230778E+03  0.00000000000E+00 0. -1.
         -5    1    3    3    0  503  0.25486885756E+02 -0.49589059065E+02  0.19165989205E+02  0.59144579352E+02  0.47000000000E+01 0.  1.
         11    1    4    4    0    0  0.11662070169E+02 -0.34210983678E+02 -0.61990954567E+02  0.71758440152E+02  0.00000000000E+00 0. -1.
        -12    1    4    4    0    0 -0.76234038284E+02 -0.38017568920E+02 -0.67729212667E+02  0.10883110947E+03  0.00000000000E+00 0.  1.
</event>
<event>
12    1  0.8407180E-002  0.3159505E+03  0.7818608E-02  0.1077563E+00
         21   -1    0    0  503  502  0.00000000000E+00  0.00000000000E+00  0.23453016811E+03  0.23453016811E+03  0.00000000000E+00 0.  1.
         21   -1    0    0  501  503 -0.00000000000E+00 -0.00000000000E+00 -0.97731777467E+03  0.97731777467E+03  0.00000000000E+00 0. -1.
          6    2    1    2  501    0  0.24922378821E+03  0.90091714743E+02 -0.82672596625E+03  0.88493756381E+03  0.17149243390E+03 0.  0.
         24    2    3    3    0    0  0.20943504110E+03  0.45430744536E+02 -0.47105812919E+03  0.52424455448E+03  0.83723370924E+02 0.  0.
         -6    2    1    2    0  502 -0.24922378821E+03 -0.90091714743E+02  0.83938359690E+02  0.32691037897E+03  0.17203410702E+03 0.  0.
        -24    2    5    5    0    0 -0.59388645197E+02 -0.81600257816E+01 -0.20492773152E+02  0.95224957147E+02  0.71093188937E+02 0.  0.
          5    1    3    3  501    0  0.39788747117E+02  0.44660970208E+02 -0.35566783706E+03  0.36069300933E+03  0.47000000000E+01 0. -1.
        -13    1    4    4    0    0  0.65457978527E+02  0.46698517145E+02 -0.11638638579E+03  0.14146126414E+03  0.00000000000E+00 0.  1.
         14    1    4    4    0    0  0.14397706257E+03 -0.12677726092E+01 -0.35467174340E+03  0.38278329034E+03  0.00000000000E+00 0. -1.
         -5    1    5    5    0  502 -0.18983514302E+03 -0.81931688962E+02  0.10443113284E+03  0.23168542183E+03  0.47000000000E+01 0.  1.
         11    1    6    6    0    0 -0.44245344385E+01 -0.13894981736E+02  0.21387625243E+02  0.25885855906E+02  0.00000000000E+00 0. -1.
        -12    1    6    6    0    0 -0.54964110758E+02  0.57349559547E+01 -0.41880398395E+02  0.69339101241E+02  0.00000000000E+00 0.  1.
</event>
<event>
12    1  0.8407180E-002  0.2252719E+03  0.7818608E-02  0.1130110E+00
         21   -1    0    0  501  502  0.00000000000E+00  0.00000000000E+00  0.28626142856E+03  0.28626142856E+03  0.00000000000E+00 0. -1.
         21   -1    0    0  502  503 -0.00000000000E+00 -0.00000000000E+00 -0.31781468525E+03  0.31781468525E+03  0.00000000000E+00 0.  1.
         -6    2    1    2    0  503 -0.55630174438E+02  0.13489159233E+03 -0.21691760822E+03  0.31234445009E+03  0.17092497992E+03 0.  0.
        -24    2    3    3    0    0 -0.41294701022E+02  0.87177979332E+02 -0.45217199636E+02  0.13350034208E+03  0.80451810295E+02 0.  0.
          6    2    1    2  501    0  0.55630174438E+02 -0.13489159233E+03  0.18536435152E+03  0.29173166372E+03  0.17163030855E+03 0.  0.
         24    2    5    5    0    0 -0.12631043090E+02 -0.20739476432E+02  0.14761997018E+02  0.75358022201E+02  0.69794310813E+02 0.  0.
          5    1    5    5  501    0  0.68261217529E+02 -0.11415211590E+03  0.17060235451E+03  0.21637364152E+03  0.47000000000E+01 0. -1.
        -13    1    6    6    0    0  0.21750256550E+02 -0.19815886619E+02 -0.12002566108E+02  0.31777423049E+02  0.00000000000E+00 0.  1.
         14    1    6    6    0    0 -0.34381299640E+02 -0.92358981274E+00  0.26764563125E+02  0.43580599152E+02  0.00000000000E+00 0. -1.
         -5    1    3    3    0  503 -0.14335473416E+02  0.47713612998E+02 -0.17170040858E+03  0.17884410801E+03  0.47000000000E+01 0.  1.
         11    1    4    4    0    0 -0.62747730955E+02  0.79754705938E+02 -0.28806895697E+02  0.10548899516E+03  0.00000000000E+00 0. -1.
        -12    1    4    4    0    0  0.21453029933E+02  0.74232733944E+01 -0.16410303939E+02  0.28011346925E+02  0.00000000000E+00 0.  1.
</event>
<event>
12    1  0.8407180E-002  0.1912124E+03  0.7818608E-02  0.1157477E+00
         21   -1    0    0  501  502  0.00000000000E+00  0.00000000000E+00  0.66983197264E+03  0.66983197264E+03  0.00000000000E+00 0. -1.
         21   -1    0    0  502  503 -0.00000000000E+00 -0.00000000000E+00 -0.75140027841E+02  0.75140027841E+02  0.00000000000E+00 0. -1.
         -6    2    1    2    0  503 -0.82963111087E+02 -0.98077462177E+01  0.10215416878E+03  0.21678940932E+03  0.17199739564E+03 0.  0.
        -24    2    3    3    0    0  0.40917315784E+01  0.53484949604E+01 -0.62134487714E+00  0.81168048596E+02  0.80885829277E+02 0.  0.
          6    2    1    2  501    0  0.82963111087E+02  0.98077462177E+01  0.49253777602E+03  0.52818259116E+03  0.17147687631E+03 0.  0.
         24    2    5    5    0    0  0.35402324706E+02  0.28670804234E+02  0.11585271409E+03  0.14800951315E+03  0.80060133721E+02 0.  0.
          5    1    5    5  501    0  0.47560786381E+02 -0.18863058017E+02  0.37668506194E+03  0.38017307801E+03  0.47000000000E+01 0. -1.
        -13    1    6    6    0    0  0.20894259584E+02  0.55947552688E+02  0.88379790280E+02  0.10666623676E+03  0.00000000000E+00 0.  1.
         14    1    6    6    0    0  0.14508065122E+02 -0.27276748454E+02  0.27472923805E+02  0.41343276385E+02  0.00000000000E+00 0. -1.
         -5    1    3    3    0  503 -0.87054842665E+02 -0.15156241178E+02  0.10277551366E+03  0.13562136073E+03  0.47000000000E+01 0.  1.
         11    1    4    4    0    0 -0.24325224742E+02  0.33341989964E+02  0.87304086700E-01  0.41272417854E+02  0.00000000000E+00 0. -1.
        -12    1    4    4    0    0  0.28416956320E+02 -0.27993495003E+02 -0.70864896384E+00  0.39895630743E+02  0.00000000000E+00 0.  1.
</event>
<event>
12    1  0.8407180E-002  0.1776830E+03  0.7818608E-02  0.1170226E+00
         21   -1    0    0  501  502  0.00000000000E+00  0.00000000000E+00  0.86689309699E+03  0.86689309699E+03  0.00000000000E+00 0.  1.
         21   -1    0    0  502  503 -0.00000000000E+00 -0.00000000000E+00 -0.23499281164E+03  0.23499281164E+03  0.00000000000E+00 0.  1.
         -6    2    1    2    0  503  0.40334613608E+02  0.11718674103E+02 -0.19076586932E+03  0.26025008101E+03  0.17197174009E+03 0.  0.
        -24    2    3    3    0    0  0.83117436838E+02  0.12641416870E+02 -0.18295437528E+03  0.21649701418E+03  0.79563433741E+02 0.  0.
          6    2    1    2  501    0 -0.40334613608E+02 -0.11718674103E+02  0.82266615466E+03  0.84163582762E+03  0.17264720074E+03 0.  0.
         24    2    5    5    0    0 -0.44149584948E+02 -0.55935661154E+02  0.73465180009E+03  0.74295293872E+03  0.84780998686E+02 0.  0.
          5    1    5    5  501    0  0.38149713400E+01  0.44216987051E+02  0.88014354572E+02  0.98682888896E+02  0.47000000000E+01 0. -1.
        -11    1    6    6    0    0 -0.61519515223E+02 -0.18582220220E+02  0.55115222742E+03  0.55488622929E+03  0.00000000000E+00 0.  1.
         12    1    6    6    0    0  0.17369930275E+02 -0.37353440934E+02  0.18349957267E+03  0.18806670944E+03  0.00000000000E+00 0. -1.
         -5    1    3    3    0  503 -0.42782823230E+02 -0.92274276703E+00 -0.78114940424E+01  0.43753066829E+02  0.47000000000E+01 0.  1.
         11    1    4    4    0    0  0.71883975288E+02 -0.24984690517E+02 -0.11214791392E+03  0.13553115974E+03  0.00000000000E+00 0. -1.
        -12    1    4    4    0    0  0.11233461550E+02  0.37626107386E+02 -0.70806461360E+02  0.80965854443E+02  0.00000000000E+00 0.  1.
</event>
<event>
12    1  0.8407180E-002  0.1838833E+03  0.7818608E-02  0.1164239E+00
         21   -1    0    0  503  502  0.00000000000E+00  0.00000000000E+00  0.20761918139E+03  0.20761918139E+03  0.00000000000E+00 0. -1.
         21   -1    0    0  501  503 -0.00000000000E+00 -0.00000000000E+00 -0.19608586776E+03  0.19608586776E+03  0.00000000000E+00 0. -1.
          6    2    1    2  501    0 -0.62715994407E+02 -0.15011087117E+02 -0.77994122026E+02  0.19918558444E+03  0.17156102496E+03 0.  0.
         24    2    3    3    0    0  0.20027738849E+02 -0.16766878066E+02  0.40280559340E+01  0.82569393998E+02  0.78225578087E+02 0.  0.
         -6    2    1    2    0  502  0.62715994407E+02  0.15011087117E+02  0.89527435649E+02  0.20451946471E+03  0.17220459059E+03 0.  0.
        -24    2    5    5    0    0 -0.20025166456E+02 -0.32559642063E+02  0.39816445799E+02  0.96805275825E+02  0.79528450812E+02 0.  0.
          5    1    3    3  501    0 -0.82743733256E+02  0.17557909491E+01 -0.82022177960E+02  0.11661619044E+03  0.47000000000E+01 0. -1.
        -11    1    4    4    0    0  0.46687652042E+00  0.20099334106E+01  0.38587559377E+02  0.38642690702E+02  0.00000000000E+00 0.  1.
         12    1    4    4    0    0  0.19560862328E+02 -0.18776811477E+02 -0.34559503443E+02  0.43926703296E+02  0.00000000000E+00 0. -1.
         -5    1    5    5    0  502  0.82741160864E+02  0.47570729180E+02  0.49710989850E+02  0.10771418889E+03  0.47000000000E+01 0.  1.
         11    1    6    6    0    0 -0.53711750890E+01 -0.56923933818E+02  0.37288703025E+02  0.68261490875E+02  0.00000000000E+00 0. -1.
        -12    1    6    6    0    0 -0.14653991367E+02  0.24364291755E+02  0.25277427737E+01  0.28543784950E+02  0.00000000000E+00 0.  1.
</event>
<event>
12    1  0.8407180E-002  0.2706764E+03  0.7818608E-02  0.1101084E+00
         21   -1    0    0  501  502  0.00000000000E+00  0.00000000000E+00  0.34333035396E+03  0.34333035396E+03  0.00000000000E+00 0. -1.
         21   -1    0    0  502  503 -0.00000000000E+00 -0.00000000000E+00 -0.22837341555E+03  0.22837341555E+03  0.00000000000E+00 0.  1.
         -6    2    1    2    0  503  0.63335472581E+02  0.19449907862E+03 -0.18114766136E+02  0.27128188469E+03  0.17726940666E+03 0.  0.
        -24    2    3    3    0    0  0.68423006863E+02  0.38115780965E+02  0.85384251353E+01  0.11249239702E+03  0.80293922908E+02 0.  0.
          6    2    1    2  501    0 -0.63335472581E+02 -0.19449907862E+03  0.13307170454E+03  0.30042188482E+03  0.17522544523E+03 0.  0.
         24    2    5    5    0    0  0.20026985309E+02 -0.15603773903E+03  0.71125205234E+02  0.18957048517E+03  0.78289960307E+02 0.  0.
          5    1    5    5  501    0 -0.83362457890E+02 -0.38461339595E+02  0.61946499306E+02  0.11085139965E+03  0.47000000000E+01 0. -1.
        -13    1    6    6    0    0  0.46094952547E+02 -0.60976994227E+02  0.22642505716E+02  0.79722152131E+02  0.00000000000E+00 0.  1.
         14    1    6    6    0    0 -0.26067967238E+02 -0.95060744801E+02  0.48482699518E+02  0.10984833304E+03  0.00000000000E+00 0. -1.
         -5    1    3    3    0  503 -0.50875342820E+01  0.15638329766E+03 -0.26653191271E+02  0.15878948768E+03  0.47000000000E+01 0.  1.
         13    1    4    4    0    0  0.28877614506E+02  0.22653822453E+02  0.43909640070E+02  0.57229090350E+02  0.00000000000E+00 0. -1.
        -14    1    4    4    0    0  0.39545392357E+02  0.15461958513E+02 -0.35371214934E+02  0.55263306666E+02  0.00000000000E+00 0.  1.
</event>
<event>
12    1  0.8407180E-002  0.1960747E+03  0.7818608E-02  0.1153438E+00
         21   -1    0    0  501  502  0.00000000000E+00  0.00000000000E+00  0.68122808772E+03  0.68122808772E+03  0.00000000000E+00 0.  1.
         21   -1    0    0  502  503 -0.00000000000E+00 -0.00000000000E+00 -0.75107352881E+02  0.75107352881E+02  0.00000000000E+00 0.  1.
         -6    2    1    2    0  503 -0.21443180675E+02  0.93657594025E+02  0.11131064358E+03  0.22409270309E+03  0.16910329769E+03 0.  0.
        -24    2    3    3    0    0  0.73648088621E+01  0.91486236866E+02  0.13593594429E+03  0.18584207581E+03  0.87376909112E+02 0.  0.
          6    2    1    2  501    0  0.21443180675E+02 -0.93657594025E+02  0.49481009125E+03  0.53224273750E+03  0.17092030395E+03 0.  0.
         24    2    5    5    0    0  0.20984346729E+02 -0.10485314047E+03  0.50107151262E+03  0.51857356832E+03  0.80070975557E+02 0.  0.
          5    1    5    5  501    0  0.45883394642E+00  0.11195546445E+02 -0.62614213625E+01  0.13669169187E+02  0.47000000000E+01 0. -1.
        -13    1    6    6    0    0  0.33384946867E+02 -0.44102194692E+02  0.11565541164E+03  0.12820192080E+03  0.00000000000E+00 0.  1.
         14    1    6    6    0    0 -0.12400600138E+02 -0.60750945778E+02  0.38541610098E+03  0.39037164752E+03  0.00000000000E+00 0. -1.
         -5    1    3    3    0  503 -0.28807989537E+02  0.21713571586E+01 -0.24625300704E+02  0.38250627287E+02  0.47000000000E+01 0.  1.
         13    1    4    4    0    0  0.11771617837E+02 -0.14276331554E+02  0.90468278275E+01  0.20596837692E+02  0.00000000000E+00 0. -1.
        -14    1    4    4    0    0 -0.44068089754E+01  0.10576256842E+03  0.12688911646E+03  0.16524523812E+03  0.00000000000E+00 0.  1.
</event>
<event>
12    1  0.8407180E-002  0.1815229E+03  0.7818608E-02  0.1166519E+00
         21   -1    0    0  503  502  0.00000000000E+00  0.00000000000E+00  0.41758610347E+03  0.41758610347E+03  0.00000000000E+00 0. -1.
         21   -1    0    0  501  503 -0.00000000000E+00 -0.00000000000E+00 -0.31416794472E+03  0.31416794472E+03  0.00000000000E+00 0. -1.
          6    2    1    2  501    0 -0.32797729040E+02 -0.43509130686E+02 -0.26515209513E+03  0.32090785182E+03  0.17235858066E+03 0.  0.
         24    2    3    3    0    0  0.11453130085E+02  0.18339769587E+02 -0.21307070304E+03  0.22861491384E+03  0.79988330415E+02 0.  0.
         -6    2    1    2    0  502  0.32797729040E+02  0.43509130686E+02  0.36857025388E+03  0.41084619637E+03  0.17315261922E+03 0.  0.
        -24    2    5    5    0    0  0.41036041692E+02  0.94715281748E+02  0.27834985883E+03  0.30667446611E+03  0.76913216939E+02 0.  0.
          5    1    3    3  501    0 -0.44250859126E+02 -0.61848900272E+02 -0.52081392096E+02  0.92292937980E+02  0.47000000000E+01 0. -1.
        -11    1    4    4    0    0  0.39191207282E+02  0.10559707039E+02 -0.57399521142E+02  0.70300520399E+02  0.00000000000E+00 0.  1.
         12    1    4    4    0    0 -0.27738077197E+02  0.77800625473E+01 -0.15567118189E+03  0.15831439345E+03  0.00000000000E+00 0. -1.
         -5    1    5    5    0  502 -0.82383126521E+01 -0.51206151063E+02  0.90220395051E+02  0.10417173026E+03  0.47000000000E+01 0.  1.
         13    1    6    6    0    0  0.31269850259E+02  0.21299851429E+02  0.32389046375E+02  0.49804995042E+02  0.00000000000E+00 0. -1.
        -14    1    6    6    0    0  0.97661914337E+01  0.73415430320E+02  0.24596081245E+03  0.25686947107E+03  0.00000000000E+00 0.  1.
</event>
<event>
12    1  0.8407180E-002  0.1791768E+03  0.7818608E-02  0.1168741E+00
         21   -1    0    0  501  502  0.00000000000E+00  0.00000000000E+00  0.36452371745E+03  0.36452371745E+03  0.00000000000E+00 0.  1.
         21   -1    0    0  502  503 -0.00000000000E+00 -0.00000000000E+00 -0.92434378918E+02  0.92434378918E+02  0.00000000000E+00 0.  1.
         -6    2    1    2    0  503  0.47959422003E+02 -0.89945298872E+01  0.18745714956E+03  0.25931544352E+03  0.17240449124E+03 0.  0.
        -24    2    3    3    0    0 -0.35327198528E+02  0.92260481326E+01  0.12005452100E+03  0.15053192014E+03  0.83148301534E+02 0.  0.
          6    2    1    2  501    0 -0.47959422003E+02  0.89945298872E+01  0.84632188974E+02  0.19764265285E+03  0.17181095159E+03 0.  0.
         24    2    5    5    0    0 -0.95966988981E+02  0.20958899635E+02  0.72839954030E+02  0.14656409144E+03  0.80786357436E+02 0.  0.
          5    1    5    5  501    0  0.48007566978E+02 -0.11964369748E+02  0.11792234943E+02  0.51078561408E+02  0.47000000000E+01 0. -1.
        -13    1    6    6    0    0 -0.53171502812E+02 -0.87418376144E+01 -0.36631743390E+01  0.54009696189E+02  0.00000000000E+00 0.  1.
         14    1    6    6    0    0 -0.42795486169E+02  0.29700737249E+02  0.76503128370E+02  0.92554395249E+02  0.00000000000E+00 0. -1.
         -5    1    3    3    0  503  0.83286620531E+02 -0.18220578020E+02  0.67402628559E+02  0.10878352338E+03  0.47000000000E+01 0.  1.
         13    1    4    4    0    0 -0.30117312510E+02 -0.17306818555E+02  0.85184996251E+01  0.35765113129E+02  0.00000000000E+00 0. -1.
        -14    1    4    4    0    0 -0.52098860185E+01  0.26532866688E+02  0.11153602137E+03  0.11476680701E+03  0.00000000000E+00 0.  1.
</event>
<event>
12    1  0.8407180E-002  0.2702353E+03  0.7818608E-02  0.1101424E+00
         21   -1    0    0  501  502  0.00000000000E+00  0.00000000000E+00  0.68153408884E+03  0.68153408884E+03  0.00000000000E+00 0. -1.
         21   -1    0    0  502  503 -0.00000000000E+00 -0.00000000000E+00 -0.11026627518E+03  0.11026627518E+03  0.00000000000E+00 0. -1.
         -6    2    1    2    0  503  0.19363049349E+03  0.69734799314E+02  0.21032568363E+03  0.34090529780E+03  0.17211571292E+03 0.  0.
        -24    2    3    3    0    0  0.17450152144E+03  0.76561056172E+02  0.10621022738E+03  0.23472322030E+03  0.86614094918E+02 0.  0.
          6    2    1    2  501    0 -0.19363049349E+03 -0.69734799314E+02  0.36094213004E+03  0.45089506622E+03  0.17513260480E+03 0.  0.
         24    2    5    5    0    0 -0.49823850340E+02 -0.30361537405E+02  0.62939443304E+02  0.11764096547E+03  0.80459829834E+02 0.  0.
          5    1    5    5  501    0 -0.14380664315E+03 -0.39373261910E+02  0.29800268673E+03  0.33325410075E+03  0.47000000000E+01 0. -1.
        -11    1    6    6    0    0 -0.33575359490E+02 -0.55443459596E+02  0.58718347106E+02  0.87459283462E+02  0.00000000000E+00 0.  1.
         12    1    6    6    0    0 -0.16248490850E+02  0.25081922191E+02  0.42210961979E+01  0.30181682008E+02  0.00000000000E+00 0. -1.
         -5    1    3    3    0  503  0.19128972044E+02 -0.68262568573E+01  0.10411545624E+03  0.10618207750E+03  0.47000000000E+01 0.  1.
         11    1    4    4    0    0  0.30836394960E+02  0.43260813555E+02  0.60086849423E+02  0.80204804826E+02  0.00000000000E+00 0. -1.
        -12    1    4    4    0    0  0.14366512648E+03  0.33300242616E+02  0.46123377960E+02  0.15451841547E+03  0.00000000000E+00 0.  1.
</event>
<event>
12    1  0.8407180E-002  0.2011489E+03  0.7818608E-02  0.1148844E+00
         21   -1    0    0  501  502  0.00000000000E+00  0.00000000000E+00  0.95717376013E+03  0.95717376013E+03  0.00000000000E+00 0.  1.
         21   -1    0    0  502  503 -0.00000000000E+00 -0.00000000000E+00 -0.56886420797E+02  0.56886420797E+02  0.00000000000E+00 0.  1.
         -6    2    1    2    0  503  0.10127199064E+03  0.21712068893E+02  0.19280157677E+03  0.27862755852E+03  0.17243386657E+03 0.  0.
        -24    2    3    3    0    0  0.91093513702E+02 -0.73770503360E+01  0.21029063139E+03  0.24288213529E+03  0.80107008938E+02 0.  0.
          6    2    1    2  501    0 -0.10127199064E+03 -0.21712068893E+02  0.70748576257E+03  0.73543262241E+03  0.17203955313E+03 0.  0.
         24    2    5    5    0    0 -0.13142372094E+03 -0.32658663144E+02  0.65609188452E+03  0.67466770271E+03  0.79882197268E+02 0.  0.
          5    1    5    5  501    0  0.30151730292E+02  0.10946594251E+02  0.51393878048E+02  0.60764919699E+02  0.47000000000E+01 0. -1.
        -11    1    6    6    0    0 -0.12941063896E+03 -0.34180489947E+02  0.47339790266E+03  0.49195629238E+03  0.00000000000E+00 0.  1.
         12    1    6    6    0    0 -0.20130819747E+01  0.15218268031E+01  0.18269398187E+03  0.18271141033E+03  0.00000000000E+00 0. -1.
         -5    1    3    3    0  503  0.10178476941E+02  0.29089119229E+02 -0.17489054626E+02  0.35745423232E+02  0.47000000000E+01 0.  1.
         13    1    4    4    0    0  0.93790188913E+02 -0.30153144651E+02  0.17387935807E+03  0.19984955049E+03  0.00000000000E+00 0. -1.
        -14    1    4    4    0    0 -0.26966752109E+01  0.22776094315E+02  0.36411273323E+02  0.43032584799E+02  0.00000000000E+00 0.  1.
</event>
<event>
12    1  0.8407180E-002  0.1743454E+03  0.7818608E-02  0.1173592E+00
         21   -1    0    0  501  502  0.00000000000E+00  0.00000000000E+00  0.42671767719E+02  0.42671767719E+02  0.00000000000E+00 0. -1.
         21   -1    0    0  502  503 -0.00000000000E+00 -0.00000000000E+00 -0.24217157804E+04  0.24217157804E+04  0.00000000000E+00 0. -1.
         -6    2    1    2    0  503 -0.32646186047E+02 -0.86896854462E+00 -0.22249399133E+04  0.22316980739E+04  0.17044690239E+03 0.  0.
        -24    2    3    3    0    0 -0.84688125308E+02  0.16590192902E+02 -0.16577741287E+04  0.16618627441E+04  0.78264970272E+02 0.  0.
          6    2    1    2  501    0  0.32646186047E+02  0.86896854462E+00 -0.15410409934E+03  0.23268947421E+03  0.17125942136E+03 0.  0.
         24    2    5    5    0    0  0.68416810190E+02 -0.26324639995E+02 -0.15261758930E+03  0.18748627068E+03  0.80530283387E+02 0.  0.
          5    1    5    5  501    0 -0.35770624142E+02  0.27193608539E+02 -0.14865100323E+01  0.45203203526E+02  0.47000000000E+01 0. -1.
        -11    1    6    6    0    0  0.19464361204E+02 -0.16891325598E+02 -0.13037246551E+03  0.13289528961E+03  0.00000000000E+00 0.  1.
         12    1    6    6    0    0  0.48952448985E+02 -0.94333143967E+01 -0.22245123799E+02  0.54590981078E+02  0.00000000000E+00 0. -1.
         -5    1    3    3    0  503  0.52041939260E+02 -0.17459161446E+02 -0.56716578467E+03  0.56983532977E+03  0.47000000000E+01 0.  1.
         11    1    4    4    0    0  0.66927940371E+01  0.22142056815E+02 -0.46816849413E+03  0.46873958983E+03  0.00000000000E+00 0. -1.
        -12    1    4    4    0    0 -0.91380919345E+02 -0.55518639134E+01 -0.11896056345E+04  0.11931231543E+04  0.00000000000E+00 0.  1.
</event>
<event>
12    1  0.8407180E-002  0.2524214E+03  0.7818608E-02  0.1112018E+00
         21   -1    0    0  503  502  0.00000000000E+00  0.00000000000E+00  0.24666775180E+03  0.24666775180E+03  0.00000000000E+00 0. -1.
         21   -1    0    0  501  503 -0.00000000000E+00 -0.00000000000E+00 -0.48328634386E+03  0.48328634386E+03  0.00000000000E+00 0.  1.
          6    2    1    2  501    0  0.86629812301E+02 -0.16031689276E+03 -0.36836006424E+03  0.44654864902E+03  0.17467205997E+03 0.  0.
         24    2    3    3    0    0 -0.10182652593E+02 -0.67205141128E+02 -0.23381792346E+03  0.25637470418E+03  0.80230606413E+02 0.  0.
         -6    2    1    2    0  502 -0.86629812301E+02  0.16031689276E+03  0.13174147218E+03  0.28340544663E+03  0.17250101798E+03 0.  0.
        -24    2    5    5    0    0  0.98280624836E+01  0.25351958677E+02  0.37799930015E+02  0.92704742950E+02  0.80162472737E+02 0.  0.
          5    1    3    3  501    0  0.96812464895E+02 -0.93111751632E+02 -0.13454214078E+03  0.19017394484E+03  0.47000000000E+01 0. -1.
        -13    1    4    4    0    0  0.22809675904E+02 -0.66542871732E+02 -0.17985416724E+03  0.19312109301E+03  0.00000000000E+00 0.  1.
         14    1    4    4    0    0 -0.32992328498E+02 -0.66226939590E+00 -0.53963756220E+02  0.63253611168E+02  0.00000000000E+00 0. -1.
         -5    1    5    5    0  502 -0.96457874785E+02  0.13496493408E+03  0.93941542163E+02  0.19070070368E+03  0.47000000000E+01 0.  1.
         13    1    6    6    0    0 -0.19413404786E+02 -0.17737257407E+02 -0.31143080670E+01  0.26479983014E+02  0.00000000000E+00 0. -1.
        -14    1    6    6    0    0  0.29241467269E+02  0.43089216084E+02  0.40914238082E+02  0.66224759936E+02  0.00000000000E+00 0.  1.
</event>
<event>
12    1  0.8407180E-002  0.2010043E+03  0.7818608E-02  0.1153500E+00
         21   -1    0    0  501  502  0.00000000000E+00  0.00000000000E+00  0.69074590753E+03  0.69074590753E+03  0.00000000000E+00 0.  1.
         21   -1    0    0  502  503 -0.00000000000E+00 -0.00000000000E+00 -0.10705180064E+03  0.10705180064E+03  0.00000000000E+00 0.  1.
         -6    2    1    2    0  503  0.33643330574E+02 -0.40908094264E+02  0.15394583838E+02  0.20159297086E+03  0.19390045595E+03 0.  0.
        -24    2    3    3    0    0 -0.24307906531E+02  0.35448644915E+02  0.44429834243E+02  0.10132416581E+03  0.80281353123E+02 0.  0.
          6    2    1    2  501    0 -0.33643330574E+02  0.40908094264E+02  0.56829952305E+03  0.59620473732E+03  0.17230901029E+03 0.  0.
         24    2    5    5    0    0 -0.30523885208E+02  0.40539819109E+02  0.14987484624E+03  0.17774187549E+03  0.80959991746E+02 0.  0.
          5    1    5    5  501    0 -0.31194453660E+01  0.36827515416E+00  0.41842467681E+03  0.41846286183E+03  0.47000000000E+01 0. -1.
        -11    1    6    6    0    0 -0.50372512014E+02  0.39930675749E+02  0.14290517047E+03  0.15669631961E+03  0.00000000000E+00 0.  1.
         12    1    6    6    0    0  0.19848626806E+02  0.60914336002E+00  0.69696757704E+01  0.21045555874E+02  0.00000000000E+00 0. -1.
         -5    1    3    3    0  503  0.57951237105E+02 -0.76356739179E+02 -0.29035250405E+02  0.10026880505E+03  0.47000000000E+01 0.  1.
         13    1    4    4    0    0  0.22255986175E+02  0.48661158375E+01  0.39240197749E+02  0.45374013745E+02  0.00000000000E+00 0. -1.
        -14    1    4    4    0    0 -0.46563892706E+02  0.30582529078E+02  0.51896364940E+01  0.55950152061E+02  0.00000000000E+00 0.  1.
</event>
<event>
12    1  0.8407180E-002  0.1945231E+03  0.7818608E-02  0.1157440E+00
         21   -1    0    0  501  502  0.00000000000E+00  0.00000000000E+00  0.38726574720E+03  0.38726574720E+03  0.00000000000E+00 0.  1.
         21   -1    0    0  502  503 -0.00000000000E+00 -0.00000000000E+00 -0.96032493469E+02  0.96032493469E+02  0.00000000000E+00 0.  1.
         -6    2    1    2    0  503  0.90842687739E+00 -0.59664248041E+02  0.96257320225E+02  0.21703621592E+03  0.18514480709E+03 0.  0.
        -24    2    3    3    0    0  0.58352795896E+02  0.84768218416E+01  0.17747255420E+02  0.98170824776E+02  0.76456788219E+02 0.  0.
          6    2    1    2  501    0 -0.90842687739E+00  0.59664248041E+02  0.19497593351E+03  0.26626202475E+03  0.17122851235E+03 0.  0.
         24    2    5    5    0    0 -0.92488081997E+01  0.83571050349E+02  0.20743976791E+03  0.23765198586E+03  0.79859552730E+02 0.  0.
          5    1    5    5  501    0  0.83403813223E+01 -0.23906802308E+02 -0.12463834403E+02  0.28610038889E+02  0.47000000000E+01 0. -1.
        -11    1    6    6    0    0  0.14539882701E+02  0.78559331322E+02  0.19415003657E+03  0.20994573925E+03  0.00000000000E+00 0.  1.
         12    1    6    6    0    0 -0.23788690901E+02  0.50117190273E+01  0.13289731342E+02  0.27706246616E+02  0.00000000000E+00 0. -1.
         -5    1    3    3    0  503 -0.57444369019E+02 -0.68141069883E+02  0.78510064805E+02  0.11886539115E+03  0.47000000000E+01 0.  1.
         11    1    4    4    0    0  0.47564821417E+02  0.40681929507E+02  0.11507049906E+02  0.63638383248E+02  0.00000000000E+00 0. -1.
        -12    1    4    4    0    0  0.10787974479E+02 -0.32205107665E+02  0.62402055137E+01  0.34532441529E+02  0.00000000000E+00 0.  1.
</event>
<event>
12    1  0.8407180E-002  0.3344882E+03  0.7818608E-02  0.1069201E+00
         21   -1    0    0  503  502  0.00000000000E+00  0.00000000000E+00  0.62057488887E+03  0.62057488887E+03  0.00000000000E+00 0.  1.
         21   -1    0    0  501  503 -0.00000000000E+00 -0.00000000000E+00 -0.23919977943E+03  0.23919977943E+03  0.00000000000E+00 0. -1.
          6    2    1    2  501    0 -0.58909348455E+02 -0.28185937095E+03 -0.22882201049E+02  0.33526992110E+03  0.17019785118E+03 0.  0.
         24    2    3    3    0    0 -0.37536676921E+02 -0.51388346927E+02 -0.42155440571E+01  0.10301097491E+03  0.80893299023E+02 0.  0.
         -6    2    1    2    0  502  0.58909348455E+02  0.28185937095E+03  0.40425731049E+03  0.52450474720E+03  0.16960613321E+03 0.  0.
        -24    2    5    5    0    0 -0.32943650731E+02  0.16665586621E+03  0.23324262209E+03  0.29872402479E+03  0.77294633450E+02 0.  0.
          5    1    3    3  501    0 -0.21372671535E+02 -0.23047102402E+03 -0.18666656992E+02  0.23225894619E+03  0.47000000000E+01 0. -1.
        -11    1    4    4    0    0  0.85519571867E+01 -0.26890754158E+02  0.29540293672E+02  0.40851898134E+02  0.00000000000E+00 0.  1.
         12    1    4    4    0    0 -0.46088634107E+02 -0.24497592769E+02 -0.33755837729E+02  0.62159076780E+02  0.00000000000E+00 0. -1.
         -5    1    5    5    0  502  0.91852999187E+02  0.11520350474E+03  0.17101468840E+03  0.22578072241E+03  0.47000000000E+01 0.  1.
         13    1    6    6    0    0 -0.38672223757E+02  0.15970732874E+03  0.23746642378E+03  0.28877720507E+03  0.00000000000E+00 0. -1.
        -14    1    6    6    0    0  0.57285730259E+01  0.69485374687E+01 -0.42238016881E+01  0.99468197213E+01  0.00000000000E+00 0.  1.
</event>
<event>
12    1  0.8407180E-002  0.1883597E+03  0.7818608E-02  0.1159984E+00
         21   -1    0    0  503  502  0.00000000000E+00  0.00000000000E+00  0.50144988463E+02  0.50144988463E+02  0.00000000000E+00 0. -1.
         21   -1    0    0  501  503 -0.00000000000E+00 -0.00000000000E+00 -0.89961301636E+03  0.89961301636E+03  0.00000000000E+00 0. -1.
          6    2    1    2  501    0 -0.35275485986E+02 -0.67794110020E+02 -0.64435664716E+03  0.67127988409E+03  0.17199067646E+03 0.  0.
         24    2    3    3    0    0 -0.68157146199E+02 -0.98229144227E+02 -0.49468605069E+03  0.51497610188E+03  0.78687581058E+02 0.  0.
         -6    2    1    2    0  502  0.35275485986E+02  0.67794110020E+02 -0.20511138074E+03  0.27847812073E+03  0.17215976287E+03 0.  0.
        -24    2    5    5    0    0  0.26454624872E+01 -0.14913605533E+02 -0.15873169991E+03  0.17808663982E+03  0.79307531950E+02 0.  0.
          5    1    3    3  501    0  0.32881660213E+02  0.30435034207E+02 -0.14967059647E+03  0.15630378221E+03  0.47000000000E+01 0. -1.
        -13    1    4    4    0    0 -0.54790998469E+02 -0.59905796601E+02 -0.43678995592E+03  0.44427043968E+03  0.00000000000E+00 0.  1.
         14    1    4    4    0    0 -0.13366147729E+02 -0.38323347626E+02 -0.57896094763E+02  0.70705662201E+02  0.00000000000E+00 0. -1.
         -5    1    5    5    0  502  0.32630023499E+02  0.82707715553E+02 -0.46379680829E+02  0.10039148091E+03  0.47000000000E+01 0.  1.
         11    1    6    6    0    0 -0.89165384563E+01  0.91167879156E+01 -0.14923509730E+03  0.14977895294E+03  0.00000000000E+00 0. -1.
        -12    1    6    6    0    0  0.11562000944E+02 -0.24030393449E+02 -0.94966026167E+01  0.28307686878E+02  0.00000000000E+00 0.  1.
</event>
<event>
12    1  0.8407180E-002  0.2012481E+03  0.7818608E-02  0.1149890E+00
         21   -1    0    0  501  502  0.00000000000E+00  0.00000000000E+00  0.37526363441E+03  0.37526363441E+03  0.00000000000E+00 0. -1.
         21   -1    0    0  502  503 -0.00000000000E+00 -0.00000000000E+00 -0.12782875659E+03  0.12782875659E+03  0.00000000000E+00 0.  1.
         -6    2    1    2    0  503  0.86857935738E+02 -0.58474875148E+02  0.18678833502E+02  0.20211307545E+03  0.17186385432E+03 0.  0.
        -24    2    3    3    0    0  0.47290867601E+02  0.20961433381E+01  0.67269578304E+02  0.11483448906E+03  0.80130791442E+02 0.  0.
          6    2    1    2  501    0 -0.86857935738E+02  0.58474875148E+02  0.22875604433E+03  0.30097931555E+03  0.16521382676E+03 0.  0.
         24    2    5    5    0    0 -0.52019051808E+02  0.61968832926E+02  0.59798278151E+02  0.12836769275E+03  0.79726485361E+02 0.  0.
          5    1    5    5  501    0 -0.34838883930E+02 -0.34939577780E+01  0.16895776618E+03  0.17261162280E+03  0.47000000000E+01 0. -1.
        -13    1    6    6    0    0 -0.71658545092E+01  0.53654257000E+01 -0.19290195315E+02  0.21266144434E+02  0.00000000000E+00 0.  1.
         14    1    6    6    0    0 -0.44853197298E+02  0.56603407226E+02  0.79088473466E+02  0.10710154832E+03  0.00000000000E+00 0. -1.
         -5    1    3    3    0  503  0.39567068137E+02 -0.60571018486E+02 -0.48590744801E+02  0.87278586387E+02  0.47000000000E+01 0.  1.
         13    1    4    4    0    0  0.53926423243E+02 -0.26954854621E+02  0.57921709502E+02  0.83603515136E+02  0.00000000000E+00 0. -1.
        -14    1    4    4    0    0 -0.66355556417E+01  0.29050997959E+02  0.93478688014E+01  0.31230973924E+02  0.00000000000E+00 0.  1.
</event>
<event>
12    1  0.8407180E-002  0.1783539E+03  0.7818608E-02  0.1169766E+00
         21   -1    0    0  503  502  0.00000000000E+00  0.00000000000E+00  0.13276622683E+04  0.13276622683E+04  0.00000000000E+00 0.  1.
         21   -1    0    0  501  503 -0.00000000000E+00 -0.00000000000E+00 -0.10377673715E+03  0.10377673715E+03  0.00000000000E+00 0.  1.
          6    2    1    2  501    0  0.38469062836E+02  0.25861212804E+02 -0.15934350007E+02  0.17906427908E+03  0.17222497324E+03 0.  0.
         24    2    3    3    0    0 -0.27521177839E+02  0.48971251350E+02 -0.40453824941E+02  0.10482089286E+03  0.78710284838E+02 0.  0.
         -6    2    1    2    0  502 -0.38469062836E+02 -0.25861212804E+02  0.12398198811E+04  0.12523747263E+04  0.17070573043E+03 0.  0.
        -24    2    5    5    0    0 -0.72625980580E+02  0.23015929829E+00  0.51658715846E+03  0.52785066472E+03  0.80557097316E+02 0.  0.
          5    1    3    3  501    0  0.65990240676E+02 -0.23110038546E+02  0.24519474934E+02  0.74243386218E+02  0.47000000000E+01 0. -1.
        -11    1    4    4    0    0  0.24526990701E+02  0.19450887129E+02  0.21333723894E+01  0.31376130429E+02  0.00000000000E+00 0.  1.
         12    1    4    4    0    0 -0.52048168540E+02  0.29520364221E+02 -0.42587197330E+02  0.73444762431E+02  0.00000000000E+00 0. -1.
         -5    1    5    5    0  502  0.34156917744E+02 -0.26091372102E+02  0.72323272266E+03  0.72452406161E+03  0.47000000000E+01 0.  1.
         11    1    6    6    0    0 -0.30015746927E+02  0.39529161808E+02  0.20548757846E+03  0.21139688881E+03  0.00000000000E+00 0. -1.
        -12    1    6    6    0    0 -0.42610233653E+02 -0.39299002510E+02  0.31109958000E+03  0.31645377591E+03  0.00000000000E+00 0.  1.
</event>
<event>
12    1  0.8407180E-002  0.2781264E+03  0.7818608E-02  0.1096909E+00
         21   -1    0    0  501  502  0.00000000000E+00  0.00000000000E+00  0.29488047377E+03  0.29488047377E+03  0.00000000000E+00 0.  1.
         21   -1    0    0  502  503 -0.00000000000E+00 -0.00000000000E+00 -0.28660923396E+03  0.28660923396E+03  0.00000000000E+00 0. -1.
         -6    2    1    2    0  503  0.35220256198E+01 -0.21834464251E+03 -0.82739836943E+02  0.29017270384E+03  0.17224264820E+03 0.  0.
        -24    2    3    3    0    0 -0.94003779265E+01 -0.12322285656E+03  0.21519725977E+02  0.14837253058E+03  0.79240581405E+02 0.  0.
          6    2    1    2  501    0 -0.35220256198E+01  0.21834464251E+03  0.91011076760E+02  0.29131700389E+03  0.16998762627E+03 0.  0.
         24    2    5    5    0    0  0.42192907859E+02  0.14089508020E+03  0.10685854265E+03  0.19987564552E+03  0.83065398562E+02 0.  0.
          5    1    5    5  501    0 -0.45714933479E+02  0.77449562316E+02 -0.15847465886E+02  0.91441358372E+02  0.47000000000E+01 0. -1.
        -13    1    6    6    0    0  0.33733394857E+02  0.11983605721E+03  0.12061311081E+03  0.17333823881E+03  0.00000000000E+00 0.  1.
         14    1    6    6    0    0  0.84595130021E+01  0.21059022991E+02 -0.13754568161E+02  0.26537406709E+02  0.00000000000E+00 0. -1.
         -5    1    3    3    0  503  0.12922403546E+02 -0.95121785955E+02 -0.10425956292E+03  0.14180017326E+03  0.47000000000E+01 0.  1.
         13    1    4    4    0    0 -0.37847553072E+02 -0.27228417286E+02  0.87915581508E+01  0.47445921597E+02  0.00000000000E+00 0. -1.
        -14    1    4    4    0    0  0.28447175146E+02 -0.95994439271E+02  0.12728167826E+02  0.10092660898E+03  0.00000000000E+00 0.  1.
</event>
<event>
12    1  0.8407180E-002  0.1801443E+03  0.7818608E-02  0.1167830E+00
         21   -1    0    0  503  502  0.00000000000E+00  0.00000000000E+00  0.10809583152E+04  0.10809583152E+04  0.00000000000E+00 0. -1.
         21   -1    0    0  501  503 -0.00000000000E+00 -0.00000000000E+00 -0.70466065935E+02  0.70466065935E+02  0.00000000000E+00 0. -1.
          6    2    1    2  501    0 -0.21002218883E+02  0.47289128913E+02  0.68060901261E+02  0.19193033689E+03  0.17183600620E+03 0.  0.
         24    2    3    3    0    0  0.18714939507E+01 -0.22575517694E+02  0.81854210987E+02  0.11698621786E+03  0.80451891360E+02 0.  0.
         -6    2    1    2    0  502  0.21002218883E+02 -0.47289128913E+02  0.94243134801E+03  0.95949404425E+03  0.17255323912E+03 0.  0.
        -24    2    5    5    0    0  0.44384808990E+02 -0.24981307641E+02  0.24728978253E+03  0.26358581002E+03  0.75704462883E+02 0.  0.
          5    1    3    3  501    0 -0.22873712834E+02  0.69864646607E+02 -0.13793309726E+02  0.74944119033E+02  0.47000000000E+01 0. -1.
        -11    1    4    4    0    0  0.51462325486E+01  0.23193079908E+02  0.63085379814E+02  0.67410442895E+02  0.00000000000E+00 0.  1.
         12    1    4    4    0    0 -0.32747385979E+01 -0.45768597603E+02  0.18768831173E+02  0.49575774961E+02  0.00000000000E+00 0. -1.
         -5    1    5    5    0  502 -0.23382590107E+02 -0.22307821272E+02  0.69514156548E+03  0.69590823423E+03  0.47000000000E+01 0.  1.
         13    1    6    6    0    0  0.25127469784E+02  0.24834021907E+02  0.12988621724E+03  0.13460515521E+03  0.00000000000E+00 0. -1.
        -14    1    6    6    0    0  0.19257339205E+02 -0.49815329548E+02  0.11740356529E+03  0.12898065481E+03  0.00000000000E+00 0.  1.
</event>
<event>
12    1  0.8407180E-002  0.1742180E+03  0.7818608E-02  0.1173822E+00
         21   -1    0    0  501  502  0.00000000000E+00  0.00000000000E+00  0.30656926797E+03  0.30656926797E+03  0.00000000000E+00 0.  1.
         21   -1    0    0  502  503 -0.00000000000E+00 -0.00000000000E+00 -0.98948386810E+02  0.98948386810E+02  0.00000000000E+00 0.  1.
         -6    2    1    2    0  503  0.25717112543E+02 -0.13733652595E+02  0.88092824808E+02  0.19522359059E+03  0.17176123383E+03 0.  0.
        -24    2    3    3    0    0 -0.32557149395E+02  0.29614014591E+02  0.81005973605E+02  0.12209887989E+03  0.80057547262E+02 0.  0.
          6    2    1    2  501    0 -0.25717112543E+02  0.13733652595E+02  0.11952805635E+03  0.21029406419E+03  0.17054809904E+03 0.  0.
         24    2    5    5    0    0 -0.70898419948E+02  0.13819090456E+02  0.38718958446E+02  0.11759261791E+03  0.84328600317E+02 0.  0.
          5    1    5    5  501    0  0.45181307405E+02 -0.85437860181E-01  0.80809097903E+02  0.92701446279E+02  0.47000000000E+01 0. -1.
        -13    1    6    6    0    0 -0.39988897470E+02 -0.12217115705E+02  0.59048181306E+02  0.72353697573E+02  0.00000000000E+00 0.  1.
         14    1    6    6    0    0 -0.30909522477E+02  0.26036206160E+02 -0.20329222860E+02  0.45238920335E+02  0.00000000000E+00 0. -1.
         -5    1    3    3    0  503  0.58274261938E+02 -0.43347667186E+02  0.70868512033E+01  0.73124710699E+02  0.47000000000E+01 0.  1.
         13    1    4    4    0    0  0.14353285023E+02  0.21242121795E+02  0.68047622299E+02  0.72716734181E+02  0.00000000000E+00 0. -1.
        -14    1    4    4    0    0 -0.46910434418E+02  0.83718927959E+01  0.12958351306E+02  0.49382145709E+02  0.00000000000E+00 0.  1.
</event>
<event>
12    1  0.8407180E-002  0.1896601E+03  0.7818608E-02  0.1160114E+00
         21   -1    0    0  503  502  0.00000000000E+00  0.00000000000E+00  0.54913692554E+02  0.54913692554E+02  0.00000000000E+00 0. -1.
         21   -1    0    0  501  503 -0.00000000000E+00 -0.00000000000E+00 -0.66660507020E+03  0.66660507020E+03  0.00000000000E+00 0. -1.
          6    2    1    2  501    0 -0.52166739342E+02 -0.61366368354E+02 -0.37984350279E+03  0.42197844063E+03  0.16521960502E+03 0.  0.
         24    2    3    3    0    0  0.35036511538E+02 -0.21163541374E+02 -0.17638269319E+03  0.19694718656E+03  0.77471847880E+02 0.  0.
         -6    2    1    2    0  502  0.52166739342E+02  0.61366368354E+02 -0.23184787485E+03  0.29954032213E+03  0.17170837967E+03 0.  0.
        -24    2    5    5    0    0  0.40157672768E+02 -0.13949469281E+02 -0.19466802353E+03  0.21456312270E+03  0.79589370280E+02 0.  0.
          5    1    3    3  501    0 -0.87203250880E+02 -0.40202826980E+02 -0.20346080961E+03  0.22503125407E+03  0.47000000000E+01 0. -1.
        -13    1    4    4    0    0  0.10318572729E+02  0.59523993230E+00 -0.15969607263E+03  0.16003019361E+03  0.00000000000E+00 0.  1.
         14    1    4    4    0    0  0.24717938810E+02 -0.21758781306E+02 -0.16686620560E+02  0.36916992952E+02  0.00000000000E+00 0. -1.
         -5    1    5    5    0  502  0.12009066574E+02  0.75315837635E+02 -0.37179851325E+02  0.84977199431E+02  0.47000000000E+01 0.  1.
         13    1    6    6    0    0  0.57520492422E+02 -0.28083235583E+02 -0.11287564555E+03  0.12976203808E+03  0.00000000000E+00 0. -1.
        -14    1    6    6    0    0 -0.17362819654E+02  0.14133766302E+02 -0.81792377983E+02  0.84801084618E+02  0.00000000000E+00 0.  1.
</event>
<event>
12    1  0.8407180E-002  0.1978859E+03  0.7818608E-02  0.1154071E+00
         21   -1    0    0  501  502  0.00000000000E+00  0.00000000000E+00  0.67138489644E+02  0.67138489644E+02  0.00000000000E+00 0.  1.
         21   -1    0    0  502  503 -0.00000000000E+00 -0.00000000000E+00 -0.71780531749E+03  0.71780531749E+03  0.00000000000E+00 0.  1.
         -6    2    1    2    0  503  0.88449159052E+02  0.32953133889E+02 -0.50763880193E+03  0.54078026238E+03  0.16073884468E+03 0.  0.
        -24    2    3    3    0    0  0.77224320802E+02  0.49333056586E+02 -0.21161319578E+03  0.24405219098E+03  0.79899819149E+02 0.  0.
          6    2    1    2  501    0 -0.88449159052E+02 -0.32953133889E+02 -0.14302802592E+03  0.24416354475E+03  0.17392428702E+03 0.  0.
         24    2    5    5    0    0 -0.30312528493E+02 -0.81128633323E+02 -0.63699683087E+02  0.13454683738E+03  0.80898067312E+02 0.  0.
          5    1    5    5  501    0 -0.58136630559E+02  0.48175499434E+02 -0.79328342829E+02  0.10961670737E+03  0.47000000000E+01 0. -1.
        -11    1    6    6    0    0 -0.50232333629E+02 -0.28420643651E+02 -0.13941442203E+02  0.59374945373E+02  0.00000000000E+00 0.  1.
         12    1    6    6    0    0  0.19919805136E+02 -0.52707989672E+02 -0.49758240884E+02  0.75171892006E+02  0.00000000000E+00 0. -1.
         -5    1    3    3    0  503  0.11224838250E+02 -0.16379922697E+02 -0.29602560615E+03  0.29672807140E+03  0.47000000000E+01 0.  1.
         11    1    4    4    0    0  0.87031031306E+01  0.21028150446E+02 -0.33706018669E+01  0.23006261587E+02  0.00000000000E+00 0. -1.
        -12    1    4    4    0    0  0.68521217672E+02  0.28304906140E+02 -0.20824259391E+03  0.22104592940E+03  0.00000000000E+00 0.  1.
</event>
<event>
12    1  0.8407180E-002  0.2581557E+03  0.7818608E-02  0.1108272E+00
         21   -1    0    0  501  502  0.00000000000E+00  0.00000000000E+00  0.23185195661E+02  0.23185195661E+02  0.00000000000E+00 0. -1.
         21   -1    0    0  502  503 -0.00000000000E+00 -0.00000000000E+00 -0.29289926013E+04  0.29289926013E+04  0.00000000000E+00 0. -1.
         -6    2    1    2    0  503 -0.17855591640E+03  0.71417973902E+02 -0.16567930910E+04  0.16767849402E+04  0.17222557065E+03 0.  0.
        -24    2    3    3    0    0 -0.55708098417E+02  0.73805671735E+02 -0.56389475907E+03  0.57699125895E+03  0.79943381173E+02 0.  0.
          6    2    1    2  501    0  0.17855591640E+03 -0.71417973902E+02 -0.12490143147E+04  0.12753928568E+04  0.17206812170E+03 0.  0.
         24    2    5    5    0    0  0.94718981280E+02 -0.20001327832E+02 -0.99712278035E+03  0.10049418663E+04  0.79262708600E+02 0.  0.
          5    1    5    5  501    0  0.83836935116E+02 -0.51416646070E+02 -0.25189153436E+03  0.27045099051E+03  0.47000000000E+01 0. -1.
        -11    1    6    6    0    0  0.82643099168E+02 -0.45103371335E+02 -0.85060428323E+03  0.85579894987E+03  0.00000000000E+00 0.  1.
         12    1    6    6    0    0  0.12075882112E+02  0.25102043503E+02 -0.14651849712E+03  0.14914291641E+03  0.00000000000E+00 0. -1.
         -5    1    3    3    0  503 -0.12284781798E+03 -0.23876978326E+01 -0.10928983319E+04  0.10997936812E+04  0.47000000000E+01 0.  1.
         13    1    4    4    0    0 -0.22874822355E+02  0.64706289816E+02 -0.49898859698E+03  0.50368619333E+03  0.00000000000E+00 0. -1.
        -14    1    4    4    0    0 -0.32833276062E+02  0.90993819183E+01 -0.64906162092E+02  0.73305065621E+02  0.00000000000E+00 0.  1.
</event>
<event>
12    1  0.8407180E-002  0.1930976E+03  0.7818608E-02  0.1155745E+00
         21   -1    0    0  503  502  0.00000000000E+00  0.00000000000E+00  0.19416798194E+03  0.19416798194E+03  0.00000000000E+00 0.  1.
         21   -1    0    0  501  503 -0.00000000000E+00 -0.00000000000E+00 -0.36913114696E+03  0.36913114696E+03  0.00000000000E+00 0.  1.
          6    2    1    2  501    0  0.25842124005E+02  0.82417450027E+02 -0.28271183290E+03  0.34236332236E+03  0.17270267107E+03 0.  0.
         24    2    3    3    0    0  0.58189688457E+02 -0.57536058562E+01 -0.12860232207E+03  0.16182985913E+03  0.78937964495E+02 0.  0.
         -6    2    1    2    0  502 -0.25842124005E+02 -0.82417450027E+02  0.10774866788E+03  0.22093580654E+03  0.17245986124E+03 0.  0.
        -24    2    5    5    0    0  0.15338565560E+02  0.97567663244E+01  0.27849764063E+02  0.92103123634E+02  0.85888939581E+02 0.  0.
          5    1    3    3  501    0 -0.32347564451E+02  0.88171055883E+02 -0.15410951083E+03  0.18053346324E+03  0.47000000000E+01 0. -1.
        -11    1    4    4    0    0  0.21281752568E+02  0.36211852564E+02 -0.61974258750E+02  0.74866681548E+02  0.00000000000E+00 0.  1.
         12    1    4    4    0    0  0.36907935889E+02 -0.41965458420E+02 -0.66628063325E+02  0.86963177578E+02  0.00000000000E+00 0. -1.
         -5    1    5    5    0  502 -0.41180689566E+02 -0.92174216352E+02  0.79898903817E+02  0.12883268290E+03  0.47000000000E+01 0.  1.
         11    1    6    6    0    0 -0.25649076139E+02 -0.22832009403E+02  0.40267284433E+01  0.34574416873E+02  0.00000000000E+00 0. -1.
        -12    1    6    6    0    0  0.40987641699E+02  0.32588775727E+02  0.23823035619E+02  0.57528706761E+02  0.00000000000E+00 0.  1.
</event>
<event>
12    1  0.8407180E-002  0.2335199E+03  0.7818608E-02  0.1124290E+00
         21   -1    0    0  503  502  0.00000000000E+00  0.00000000000E+00  0.89937984093E+03  0.89937984093E+03  0.00000000000E+00 0.  1.
         21   -1    0    0  501  503 -0.00000000000E+00 -0.00000000000E+00 -0.64847500990E+02  0.64847500990E+02  0.00000000000E+00 0. -1.
          6    2    1    2  501    0 -0.82592014817E+02  0.13362736923E+03  0.29261010469E+03  0.37436906866E+03  0.17278255550E+03 0.  0.
         24    2    3    3    0    0  0.20701203596E+02  0.61789677503E+02  0.18739317842E+03  0.21028727657E+03  0.69699578849E+02 0.  0.
         -6    2    1    2    0  502  0.82592014817E+02 -0.13362736923E+03  0.54192223525E+03  0.58985827326E+03  0.17197487826E+03 0.  0.
        -24    2    5    5    0    0  0.99907462874E+02 -0.76161960094E+02  0.24079467278E+03  0.28277197127E+03  0.78713200888E+02 0.  0.
          5    1    3    3  501    0 -0.10329321841E+03  0.71837691727E+02  0.10521692627E+03  0.16408179209E+03  0.47000000000E+01 0. -1.
        -13    1    4    4    0    0 -0.77739104456E+01 -0.11512369512E+02  0.13184436844E+02  0.19151963614E+02  0.00000000000E+00 0.  1.
         14    1    4    4    0    0  0.28475114042E+02  0.73302047015E+02  0.17420874158E+03  0.19113531296E+03  0.00000000000E+00 0. -1.
         -5    1    5    5    0  502 -0.17315448057E+02 -0.57465409136E+02  0.30112756247E+03  0.30708630199E+03  0.47000000000E+01 0.  1.
         13    1    6    6    0    0  0.10105643038E+02  0.16205503831E+02  0.37775463927E+02  0.42328808754E+02  0.00000000000E+00 0. -1.
        -14    1    6    6    0    0  0.89801819836E+02 -0.92367463926E+02  0.20301920885E+03  0.24044316252E+03  0.00000000000E+00 0.  1.
</event>
<event>
12    1  0.8407180E-002  0.1813891E+03  0.7818608E-02  0.1166493E+00
         21   -1    0    0  501  502  0.00000000000E+00  0.00000000000E+00  0.15255860745E+04  0.15255860745E+04  0.00000000000E+00 0.  1.
         21   -1    0    0  502  503 -0.00000000000E+00 -0.00000000000E+00 -0.27304837715E+02  0.27304837715E+02  0.00000000000E+00 0.  1.
         -6    2    1    2    0  503 -0.55823177364E+02  0.99294849633E+00  0.39296762419E+03  0.43281122343E+03  0.17258270015E+03 0.  0.
        -24    2    3    3    0    0  0.94123229627E+01 -0.53465833817E+02  0.19988684007E+03  0.22180480488E+03  0.79343780003E+02 0.  0.
          6    2    1    2  501    0  0.55823177364E+02 -0.99294849633E+00  0.11053136126E+04  0.11200796888E+04  0.17246192032E+03 0.  0.
         24    2    5    5    0    0  0.47702081758E+02 -0.65463514862E+02  0.60290833154E+03  0.61346784274E+03  0.79267757955E+02 0.  0.
          5    1    5    5  501    0  0.81210956062E+01  0.64470566366E+02  0.50240528103E+03  0.50661184602E+03  0.47000000000E+01 0. -1.
        -11    1    6    6    0    0  0.31874904574E+02 -0.13688760143E+02  0.44856601160E+03  0.44990538834E+03  0.00000000000E+00 0.  1.
         12    1    6    6    0    0  0.15827177184E+02 -0.51774754719E+02  0.15434231994E+03  0.16356245440E+03  0.00000000000E+00 0. -1.
         -5    1    3    3    0  503 -0.65235500327E+02  0.54458782313E+02  0.19308078412E+03  0.21100641855E+03  0.47000000000E+01 0.  1.
         11    1    4    4    0    0  0.59309790783E+01 -0.18230133954E+02  0.37382177235E+00  0.19174306755E+02  0.00000000000E+00 0. -1.
        -12    1    4    4    0    0  0.34813438844E+01 -0.35235699862E+02  0.19951301829E+03  0.20263049812E+03  0.00000000000E+00 0.  1.
</event>
<event>
12    1  0.8407180E-002  0.2208022E+03  0.7818608E-02  0.1133421E+00
         21   -1    0    0  503  502  0.00000000000E+00  0.00000000000E+00  0.89656539188E+02  0.89656539188E+02  0.00000000000E+00 0. -1.
         21   -1    0    0  501  503 -0.00000000000E+00 -0.00000000000E+00 -0.12928663184E+04  0.12928663184E+04  0.00000000000E+00 0. -1.
          6    2    1    2  501    0  0.96688321455E+02 -0.97707602425E+02 -0.11279912732E+04  0.11492602532E+04  0.17187032956E+03 0.  0.
         24    2    3    3    0    0  0.10061351490E+03 -0.68982134024E+02 -0.48612157638E+03  0.50671892587E+03  0.74620832345E+02 0.  0.
         -6    2    1    2    0  502 -0.96688321455E+02  0.97707602425E+02 -0.75218506016E+02  0.23326260435E+03  0.17279528890E+03 0.  0.
        -24    2    5    5    0    0  0.18516444460E+01 -0.17904127050E+01 -0.12421729537E+02  0.79719434427E+02  0.78703587566E+02 0.  0.
          5    1    3    3  501    0 -0.39251934477E+01 -0.28725468400E+02 -0.64186969679E+03  0.64254132734E+03  0.47000000000E+01 0. -1.
        -11    1    4    4    0    0  0.83700701588E+02 -0.15920530950E+02 -0.33490615493E+03  0.34557402009E+03  0.00000000000E+00 0.  1.
         12    1    4    4    0    0  0.16912813315E+02 -0.53061603074E+02 -0.15121542145E+03  0.16114490578E+03  0.00000000000E+00 0. -1.
         -5    1    5    5    0  502 -0.98539965901E+02  0.99498015130E+02 -0.62796776479E+02  0.15354316993E+03  0.47000000000E+01 0.  1.
         13    1    6    6    0    0 -0.18259032753E+02  0.30103400355E+02 -0.21075948712E+02  0.41034163865E+02  0.00000000000E+00 0. -1.
        -14    1    6    6    0    0  0.20110677199E+02 -0.31893813060E+02  0.86542191748E+01  0.38685270562E+02  0.00000000000E+00 0.  1.
</event>
<event>
12    1  0.8407180E-002  0.1829131E+03  0.7818608E-02  0.1165147E+00
         21   -1    0    0  501  502  0.00000000000E+00  0.00000000000E+00  0.11737069771E+03  0.11737069771E+03  0.00000000000E+00 0. -1.
         21   -1    0    0  502  503 -0.00000000000E+00 -0.00000000000E+00 -0.28626086106E+03  0.28626086106E+03  0.00000000000E+00 0. -1.
         -6    2    1    2    0  503 -0.50525293236E+02 -0.36349699061E+02 -0.10153875408E+03  0.20871260558E+03  0.17139640389E+03 0.  0.
        -24    2    3    3    0    0 -0.38003531959E+02  0.19802174139E+02 -0.51916497220E+01  0.96397504684E+02  0.86192407674E+02 0.  0.
          6    2    1    2  501    0  0.50525293236E+02  0.36349699061E+02 -0.67351409267E+02  0.19491895320E+03  0.17199732588E+03 0.  0.
         24    2    5    5    0    0  0.12621882311E+02  0.80456581175E+02 -0.10872039340E+02  0.11371492106E+03  0.78614939190E+02 0.  0.
          5    1    5    5  501    0  0.37903410925E+02 -0.44106882114E+02 -0.56479369926E+02  0.81204032146E+02  0.47000000000E+01 0. -1.
        -13    1    6    6    0    0 -0.17278736086E+02 -0.70595906377E+00  0.15568592995E+02  0.23268738401E+02  0.00000000000E+00 0.  1.
         14    1    6    6    0    0  0.29900618398E+02  0.81162540238E+02 -0.26440632335E+02  0.90446182655E+02  0.00000000000E+00 0. -1.
         -5    1    3    3    0  503 -0.12521761278E+02 -0.56151873200E+02 -0.96347104362E+02  0.11231510089E+03  0.47000000000E+01 0.  1.
         13    1    4    4    0    0 -0.34921621245E+02 -0.30159465990E+02 -0.80895227216E+00  0.46149403278E+02  0.00000000000E+00 0. -1.
        -14    1    4    4    0    0 -0.30819107138E+01  0.49961640129E+02 -0.43826974499E+01  0.50248101406E+02  0.00000000000E+00 0.  1.
</event>
<event>
12    1  0.8407180E-002  0.2524378E+03  0.7818608E-02  0.1113155E+00
         21   -1    0    0  503  502  0.00000000000E+00  0.00000000000E+00  0.38008864653E+03  0.38008864653E+03  0.00000000000E+00 0.  1.
         21   -1    0    0  501  503 -0.00000000000E+00 -0.00000000000E+00 -0.16195057875E+03  0.16195057875E+03  0.00000000000E+00 0.  1.
          6    2    1    2  501    0  0.17224528897E+03 -0.16886148342E+02  0.11341037979E+03  0.27674308549E+03  0.18376952834E+03 0.  0.
         24    2    3    3    0    0  0.13009757761E+03 -0.70511138324E+02  0.12184090563E+03  0.20785743467E+03  0.80388472645E+02 0.  0.
         -6    2    1    2    0  502 -0.17224528897E+03  0.16886148342E+02  0.10472768799E+03  0.26529613979E+03  0.17164082141E+03 0.  0.
        -24    2    5    5    0    0 -0.79134652729E+02  0.35913114387E+02  0.12066747122E+03  0.16881928916E+03  0.79920389973E+02 0.  0.
          5    1    3    3  501    0  0.42147711361E+02  0.53624989982E+02 -0.84305258483E+01  0.68885650825E+02  0.47000000000E+01 0. -1.
        -11    1    4    4    0    0  0.58011056378E+02 -0.58338754074E+02  0.23963301900E+02  0.85690913911E+02  0.00000000000E+00 0.  1.
         12    1    4    4    0    0  0.72086521229E+02 -0.12172384250E+02  0.97877603734E+02  0.12216652076E+03  0.00000000000E+00 0. -1.
         -5    1    5    5    0  502 -0.93110636239E+02 -0.19026966044E+02 -0.15939783230E+02  0.96476850628E+02  0.47000000000E+01 0.  1.
         13    1    6    6    0    0 -0.12679099836E+02  0.39388344663E+02  0.82014404889E+02  0.91861656186E+02  0.00000000000E+00 0. -1.
        -14    1    6    6    0    0 -0.66455552893E+02 -0.34752302765E+01  0.38653066332E+02  0.76957632972E+02  0.00000000000E+00 0.  1.
</event>
<event>
12    1  0.8407180E-002  0.3336206E+03  0.7818608E-02  0.1069842E+00
         21   -1    0    0  503  502  0.00000000000E+00  0.00000000000E+00  0.78443568141E+02  0.78443568141E+02  0.00000000000E+00 0.  1.
         21   -1    0    0  501  503 -0.00000000000E+00 -0.00000000000E+00 -0.14078114065E+04  0.14078114065E+04  0.00000000000E+00 0. -1.
          6    2    1    2  501    0  0.24282001344E+03  0.14439108766E+03 -0.67436429544E+03  0.75118195516E+03  0.17232754182E+03 0.  0.
         24    2    3    3    0    0  0.24288775933E+03  0.10592447348E+03 -0.64631924631E+03  0.70334577871E+03  0.82172127670E+02 0.  0.
         -6    2    1    2    0  502 -0.24282001344E+03 -0.14439108766E+03 -0.65500354295E+03  0.73507301951E+03  0.17746086221E+03 0.  0.
        -24    2    5    5    0    0 -0.68110890570E+02 -0.10740047950E+03 -0.23423762730E+03  0.27795418542E+03  0.78849900061E+02 0.  0.
          5    1    3    3  501    0 -0.67745894788E-01  0.38466614186E+02 -0.28045049134E+02  0.47836176450E+02  0.47000000000E+01 0. -1.
        -11    1    4    4    0    0  0.11648294361E+03  0.57793254692E+02 -0.42020617083E+03  0.43986539128E+03  0.00000000000E+00 0.  1.
         12    1    4    4    0    0  0.12640481572E+03  0.48131218784E+02 -0.22611307548E+03  0.26348038743E+03  0.00000000000E+00 0. -1.
         -5    1    5    5    0  502 -0.17470912287E+03 -0.36990608158E+02 -0.42076591565E+03  0.45711883409E+03  0.47000000000E+01 0.  1.
         13    1    6    6    0    0  0.56110874231E+01 -0.44619531646E+01  0.39645762133E+01  0.81921421291E+01  0.00000000000E+00 0. -1.
        -14    1    6    6    0    0 -0.73721977993E+02 -0.10293852634E+03 -0.23820220351E+03  0.26976204329E+03  0.00000000000E+00 0.  1.
</event>
<event>
12    1  0.8407180E-002  0.3403511E+03  0.7818608E-02  0.1066714E+00
         21   -1    0    0  503  502  0.00000000000E+00  0.00000000000E+00  0.79021351673E+03  0.79021351673E+03  0.00000000000E+00 0.  1.
         21   -1    0    0  501  503 -0.00000000000E+00 -0.00000000000E+00 -0.14988054912E+03  0.14988054912E+03  0.00000000000E+00 0. -1.
          6    2    1    2  501    0 -0.18096464354E+03 -0.23130171057E+03  0.39232349235E+03  0.51896754914E+03  0.17076566073E+03 0.  0.
         24    2    3    3    0    0 -0.11606469113E+03 -0.53935057298E+02  0.16395962924E+03  0.22258422051E+03  0.79252585231E+02 0.  0.
         -6    2    1    2    0  502  0.18096464354E+03  0.23130171057E+03  0.24800947525E+03  0.42112651671E+03  0.17201790528E+03 0.  0.
        -24    2    5    5    0    0  0.12071555699E+03  0.23879345629E+03  0.19837748788E+03  0.34256760344E+03  0.80027337594E+02 0.  0.
          5    1    3    3  501    0 -0.64899952407E+02 -0.17736665327E+03  0.22836386311E+03  0.29638332863E+03  0.47000000000E+01 0. -1.
        -11    1    4    4    0    0 -0.28944347408E+02 -0.17865008264E+02  0.10733684193E+03  0.11259720868E+03  0.00000000000E+00 0.  1.
         12    1    4    4    0    0 -0.87120343726E+02 -0.36070049035E+02  0.56622787310E+02  0.10998701183E+03  0.00000000000E+00 0. -1.
         -5    1    5    5    0  502  0.60249086548E+02 -0.74917457204E+01  0.49631987377E+02  0.78558913274E+02  0.47000000000E+01 0.  1.
         11    1    6    6    0    0  0.36686841851E+02  0.17790484722E+02  0.15353841849E+02  0.43567948898E+02  0.00000000000E+00 0. -1.
        -12    1    6    6    0    0  0.84028715142E+02  0.22100297157E+03  0.18302364603E+03  0.29899965454E+03  0.00000000000E+00 0.  1.
</event>
<event>
12    1  0.8407180E-002  0.2000812E+03  0.7818608E-02  0.1149846E+00
         21   -1    0    0  503  502  0.00000000000E+00  0.00000000000E+00  0.29753842852E+02  0.29753842852E+02  0.00000000000E+00 0. -1.
         21   -1    0    0  501  503 -0.00000000000E+00 -0.00000000000E+00 -0.16631448538E+04  0.16631448538E+04  0.00000000000E+00 0. -1.
          6    2    1    2  501    0 -0.81289200785E+02 -0.59376289531E+02 -0.11885041743E+04  0.12050905716E+04  0.17195242185E+03 0.  0.
         24    2    3    3    0    0 -0.23689519161E+02  0.31317591077E+02 -0.61470323704E+03  0.62129890588E+03  0.81303603791E+02 0.  0.
         -6    2    1    2    0  502  0.81289200785E+02  0.59376289531E+02 -0.44488683661E+03  0.48780812507E+03  0.17291324868E+03 0.  0.
        -24    2    5    5    0    0  0.10921278267E+03  0.70551210706E+02 -0.26461883537E+03  0.30498786481E+03  0.78035661210E+02 0.  0.
          5    1    3    3  501    0 -0.57599681624E+02 -0.90693880608E+02 -0.57380093730E+03  0.58379166571E+03  0.47000000000E+01 0. -1.
        -11    1    4    4    0    0  0.81212524818E+01 -0.21889231481E+02 -0.91321286119E+02  0.94258530093E+02  0.00000000000E+00 0.  1.
         12    1    4    4    0    0 -0.31810771643E+02  0.53206822558E+02 -0.52338195092E+03  0.52704037578E+03  0.00000000000E+00 0. -1.
         -5    1    5    5    0  502 -0.27923581883E+02 -0.11174921175E+02 -0.18026800124E+03  0.18282026026E+03  0.47000000000E+01 0.  1.
         11    1    6    6    0    0  0.58965748777E+02  0.17273755255E+02 -0.19304037582E+03  0.20258314058E+03  0.00000000000E+00 0. -1.
        -12    1    6    6    0    0  0.50247033890E+02  0.53277455451E+02 -0.71578459547E+02  0.10240472423E+03  0.00000000000E+00 0.  1.
</event>
<event>
12    1  0.8407180E-002  0.2680241E+03  0.7818608E-02  0.1102594E+00
         21   -1    0    0  503  502  0.00000000000E+00  0.00000000000E+00  0.47572766063E+03  0.47572766063E+03  0.00000000000E+00 0.  1.
         21   -1    0    0  501  503 -0.00000000000E+00 -0.00000000000E+00 -0.15035863227E+03  0.15035863227E+03  0.00000000000E+00 0.  1.
          6    2    1    2  501    0  0.79307447238E+02 -0.18872306407E+03  0.15667216264E+03  0.30939155837E+03  0.17108741551E+03 0.  0.
         24    2    3    3    0    0  0.88854372862E+02 -0.64864401940E+02  0.46675839383E+02  0.14339941065E+03  0.79260751812E+02 0.  0.
         -6    2    1    2    0  502 -0.79307447238E+02  0.18872306407E+03  0.16869686571E+03  0.31669473453E+03  0.17300536488E+03 0.  0.
        -24    2    5    5    0    0 -0.97862507667E+02  0.81749405121E+02  0.56480224254E+02  0.16048231954E+03  0.79401029643E+02 0.  0.
          5    1    3    3  501    0 -0.95469256236E+01 -0.12385866213E+03  0.10999632326E+03  0.16599214772E+03  0.47000000000E+01 0. -1.
        -13    1    4    4    0    0  0.30294864050E+02 -0.58682016360E+02 -0.33614577027E+01  0.66126070727E+02  0.00000000000E+00 0.  1.
         14    1    4    4    0    0  0.58559508811E+02 -0.61823855798E+01  0.50037297085E+02  0.77273339926E+02  0.00000000000E+00 0. -1.
         -5    1    5    5    0  502  0.18555060429E+02  0.10697365895E+03  0.11221664146E+03  0.15621241499E+03  0.47000000000E+01 0.  1.
         11    1    6    6    0    0  0.14809983814E+01  0.64900141044E+01  0.32991438710E+02  0.33656331759E+02  0.00000000000E+00 0. -1.
        -12    1    6    6    0    0 -0.99343506048E+02  0.75259391016E+02  0.23488785544E+02  0.12682598778E+03  0.00000000000E+00 0.  1.
</event>
<event>
12    1  0.8407180E-002  0.1836563E+03  0.7818608E-02  0.1164471E+00
         21   -1    0    0  503  502  0.00000000000E+00  0.00000000000E+00  0.20763676540E+03  0.20763676540E+03  0.00000000000E+00 0.  1.
         21   -1    0    0  501  503 -0.00000000000E+00 -0.00000000000E+00 -0.16573585928E+03  0.16573585928E+03  0.00000000000E+00 0.  1.
          6    2    1    2  501    0 -0.49746140081E+02 -0.35351723188E+02  0.49513386160E+02  0.18955861856E+03  0.17250064254E+03 0.  0.
         24    2    3    3    0    0 -0.34355621031E+02 -0.51661885439E+02 -0.30592472433E+02  0.10624038496E+03  0.80634117620E+02 0.  0.
         -6    2    1    2    0  502  0.49746140081E+02  0.35351723188E+02 -0.76124800396E+01  0.18381400611E+03  0.17322013798E+03 0.  0.
        -24    2    5    5    0    0  0.78490736654E+02  0.71077545761E+02 -0.24357391559E+02  0.13477251049E+03  0.79734144555E+02 0.  0.
          5    1    3    3  501    0 -0.15390519050E+02  0.16310162250E+02  0.80105858592E+02  0.83318233599E+02  0.47000000000E+01 0. -1.
        -11    1    4    4    0    0 -0.50649157857E+01 -0.41192873474E+02  0.20603376969E+02  0.46335788970E+02  0.00000000000E+00 0.  1.
         12    1    4    4    0    0 -0.29290705245E+02 -0.10469011965E+02 -0.51195849402E+02  0.59904595994E+02  0.00000000000E+00 0. -1.
         -5    1    5    5    0  502 -0.28744596573E+02 -0.35725822572E+02  0.16744911520E+02  0.49041495618E+02  0.47000000000E+01 0.  1.
         13    1    6    6    0    0  0.34450280940E+02 -0.56766997696E+01  0.14903240411E+02  0.37962525625E+02  0.00000000000E+00 0. -1.
        -14    1    6    6    0    0  0.44040455714E+02  0.76754245530E+02 -0.39260631970E+02  0.96809984863E+02  0.00000000000E+00 0.  1.
</event>
<event>
12    1  0.8407180E-002  0.2452967E+03  0.7818608E-02  0.1116482E+00
         21   -1    0    0  503  502  0.00000000000E+00  0.00000000000E+00  0.29490926578E+03  0.29490926578E+03  0.00000000000E+00 0.  1.
         21   -1    0    0  501  503 -0.00000000000E+00 -0.00000000000E+00 -0.20761042786E+03  0.20761042786E+03  0.00000000000E+00 0.  1.
          6    2    1    2  501    0  0.16923615340E+03  0.37919745145E+02  0.80494692612E+02  0.25816634693E+03  0.17346954907E+03 0.  0.
         24    2    3    3    0    0  0.44616341440E+02 -0.26239837889E+02  0.69960548038E+02  0.11752635322E+03  0.78986191213E+02 0.  0.
         -6    2    1    2    0  502 -0.16923615340E+03 -0.37919745145E+02  0.68041453105E+01  0.24435334671E+03  0.17199848535E+03 0.  0.
        -24    2    5    5    0    0 -0.90965715417E+02 -0.90669269245E+02 -0.40289723936E+01  0.14923121367E+03  0.75881781390E+02 0.  0.
          5    1    3    3  501    0  0.12461981196E+03  0.64159583035E+02  0.10534144574E+02  0.14063999371E+03  0.47000000000E+01 0. -1.
        -11    1    4    4    0    0  0.61307787460E+02 -0.15854022943E+01  0.31670535036E+02  0.69023047550E+02  0.00000000000E+00 0.  1.
         12    1    4    4    0    0 -0.16691446020E+02 -0.24654435595E+02  0.38290013002E+02  0.48503305665E+02  0.00000000000E+00 0. -1.
         -5    1    5    5    0  502 -0.78270437987E+02  0.52749524100E+02  0.10833117704E+02  0.95122133043E+02  0.47000000000E+01 0.  1.
         13    1    6    6    0    0  0.60814474000E+01  0.81479208394E+01 -0.34205877312E+01  0.10727210118E+02  0.00000000000E+00 0. -1.
        -14    1    6    6    0    0 -0.97047162817E+02 -0.98817190085E+02 -0.60838466246E+00  0.13850400355E+03  0.00000000000E+00 0.  1.
</event>
<event>
12    1  0.8407180E-002  0.1900736E+03  0.7818608E-02  0.1158833E+00
         21   -1    0    0  501  502  0.00000000000E+00  0.00000000000E+00  0.12746401207E+03  0.12746401207E+03  0.00000000000E+00 0.  1.
         21   -1    0    0  502  503 -0.00000000000E+00 -0.00000000000E+00 -0.89205006552E+03  0.89205006552E+03  0.00000000000E+00 0.  1.
         -6    2    1    2    0  503  0.71166393212E+02 -0.30789570344E+02 -0.80495298131E+03  0.82708964034E+03  0.17353765549E+03 0.  0.
        -24    2    3    3    0    0  0.21708357746E+02 -0.15397607323E+02 -0.15863720511E+03  0.17868453366E+03  0.77807844194E+02 0.  0.
          6    2    1    2  501    0 -0.71166393212E+02  0.30789570344E+02  0.40366927861E+02  0.19242443725E+03  0.17142059976E+03 0.  0.
         24    2    5    5    0    0 -0.89797875301E+02  0.73024809464E+02  0.34128695160E+02  0.14560613852E+03  0.81486799765E+02 0.  0.
          5    1    5    5  501    0  0.18631482089E+02 -0.42235239120E+02  0.62382327009E+01  0.46818298726E+02  0.47000000000E+01 0. -1.
        -13    1    6    6    0    0 -0.87890729862E+02  0.45764541780E+02  0.53020449562E+02  0.11238479324E+03  0.00000000000E+00 0.  1.
         14    1    6    6    0    0 -0.19071454396E+01  0.27260267684E+02 -0.18891754401E+02  0.33221345281E+02  0.00000000000E+00 0. -1.
         -5    1    3    3    0  503  0.49458035466E+02 -0.15391963021E+02 -0.64631577620E+03  0.64840510668E+03  0.47000000000E+01 0.  1.
         13    1    4    4    0    0  0.37487090818E+02 -0.38162174696E+02 -0.90427563807E+02  0.10506558833E+03  0.00000000000E+00 0. -1.
        -14    1    4    4    0    0 -0.15778733072E+02  0.22764567373E+02 -0.68209641300E+02  0.73618945329E+02  0.00000000000E+00 0.  1.
</event>
<event>
12    1  0.8407180E-002  0.1724171E+03  0.7818608E-02  0.1175470E+00
         21   -1    0    0  501  502  0.00000000000E+00  0.00000000000E+00  0.25791915957E+03  0.25791915957E+03  0.00000000000E+00 0. -1.
         21   -1    0    0  502  503 -0.00000000000E+00 -0.00000000000E+00 -0.17650621852E+03  0.17650621852E+03  0.00000000000E+00 0. -1.
         -6    2    1    2    0  503 -0.18223872164E+02 -0.23329041512E+01 -0.87534601879E+02  0.19336488489E+03  0.17143546956E+03 0.  0.
        -24    2    3    3    0    0  0.37941506668E+02  0.10074685241E+01 -0.10186681268E+03  0.13511361765E+03  0.80238826187E+02 0.  0.
          6    2    1    2  501    0  0.18223872164E+02  0.23329041512E+01  0.16894754293E+03  0.24106049320E+03  0.17096589472E+03 0.  0.
         24    2    5    5    0    0  0.43121571742E+02  0.48791373252E+02  0.58769392560E+02  0.11883283833E+03  0.80170654916E+02 0.  0.
          5    1    5    5  501    0 -0.24897699578E+02 -0.46458469101E+02  0.11017815037E+03  0.12222765487E+03  0.47000000000E+01 0. -1.
        -13    1    6    6    0    0  0.74528762226E+01 -0.20631729256E+02  0.14277000091E+01  0.21982992140E+02  0.00000000000E+00 0.  1.
         14    1    6    6    0    0  0.35668695519E+02  0.69423102508E+02  0.57341692550E+02  0.96849846187E+02  0.00000000000E+00 0. -1.
         -5    1    3    3    0  503 -0.56165378832E+02 -0.33403726752E+01  0.14332210797E+02  0.58251267242E+02  0.47000000000E+01 0.  1.
         13    1    4    4    0    0 -0.78131547227E+01 -0.31134066189E+02 -0.45811505883E+02  0.55938086627E+02  0.00000000000E+00 0. -1.
        -14    1    4    4    0    0  0.45754661391E+02  0.32141534713E+02 -0.56055306793E+02  0.79175531020E+02  0.00000000000E+00 0.  1.
</event>
<event>
12    1  0.8407180E-002  0.1767290E+03  0.7818608E-02  0.1171643E+00
         21   -1    0    0  501  502  0.00000000000E+00  0.00000000000E+00  0.49435606955E+03  0.49435606955E+03  0.00000000000E+00 0.  1.
         21   -1    0    0  502  503 -0.00000000000E+00 -0.00000000000E+00 -0.66351140171E+02  0.66351140171E+02  0.00000000000E+00 0.  1.
         -6    2    1    2    0  503 -0.27571910803E+02  0.75181821333E+00  0.14595339523E+03  0.22920630520E+03  0.17456334458E+03 0.  0.
        -24    2    3    3    0    0 -0.78785599829E+02 -0.30110747518E+02  0.10245467132E+03  0.15511468024E+03  0.80310500534E+02 0.  0.
          6    2    1    2  501    0  0.27571910803E+02 -0.75181821333E+00  0.28205153415E+03  0.33150090451E+03  0.17198548277E+03 0.  0.
         24    2    5    5    0    0  0.43694732752E+02 -0.37766087289E+02  0.86359918590E+02  0.13163269818E+03  0.80830839860E+02 0.  0.
          5    1    5    5  501    0 -0.16122821950E+02  0.37014269076E+02  0.19569161556E+03  0.19986820633E+03  0.47000000000E+01 0. -1.
        -13    1    6    6    0    0  0.24092106813E+02 -0.56364822472E+02  0.84708171884E+02  0.10456049544E+03  0.00000000000E+00 0.  1.
         14    1    6    6    0    0  0.19602625940E+02  0.18598735183E+02  0.16517467067E+01  0.27072202742E+02  0.00000000000E+00 0. -1.
         -5    1    3    3    0  503  0.51213689027E+02  0.30862565732E+02  0.43498723912E+02  0.74091624960E+02  0.47000000000E+01 0.  1.
         11    1    4    4    0    0 -0.75965735777E+02 -0.53493334496E+02  0.81926529718E+02  0.12387205544E+03  0.00000000000E+00 0. -1.
        -12    1    4    4    0    0 -0.28198640523E+01  0.23382586978E+02  0.20528141600E+02  0.31242624803E+02  0.00000000000E+00 0.  1.
</event>
<event>
12    1  0.8407180E-002  0.2159059E+03  0.7818608E-02  0.1138170E+00
         21   -1    0    0  501  502  0.00000000000E+00  0.00000000000E+00  0.30625719953E+03  0.30625719953E+03  0.00000000000E+00 0. -1.
         21   -1    0    0  502  503 -0.00000000000E+00 -0.00000000000E+00 -0.25195874606E+03  0.25195874606E+03  0.00000000000E+00 0.  1.
         -6    2    1    2    0  503  0.96968329309E+02  0.73083606218E+02 -0.15244871875E+03  0.25928493627E+03  0.17100875984E+03 0.  0.
        -24    2    3    3    0    0  0.10035073660E+03  0.21414863478E+02 -0.41902242691E+02  0.13712228640E+03  0.80733244523E+02 0.  0.
          6    2    1    2  501    0 -0.96968329309E+02 -0.73083606218E+02  0.20674717222E+03  0.29893100932E+03  0.17852530556E+03 0.  0.
         24    2    5    5    0    0 -0.24670174410E+02 -0.57606959439E+02  0.20050990671E+03  0.22458355961E+03  0.79412677056E+02 0.  0.
          5    1    5    5  501    0 -0.72298154899E+02 -0.15476646780E+02  0.62372655087E+01  0.74347449710E+02  0.47000000000E+01 0. -1.
        -11    1    6    6    0    0 -0.46559503587E+02 -0.20228774056E+02  0.14828082635E+03  0.15672968493E+03  0.00000000000E+00 0.  1.
         12    1    6    6    0    0  0.21889329177E+02 -0.37378185382E+02  0.52229080359E+02  0.67853874683E+02  0.00000000000E+00 0. -1.
         -5    1    3    3    0  503 -0.33824072900E+01  0.51668742741E+02 -0.11054647605E+03  0.12216264987E+03  0.47000000000E+01 0.  1.
         13    1    4    4    0    0 -0.91275282196E+01  0.14438905117E+02 -0.18064288158E+02  0.24861863547E+02  0.00000000000E+00 0. -1.
        -14    1    4    4    0    0  0.10947826482E+03  0.69759583609E+01 -0.23837954533E+02  0.11226042285E+03  0.00000000000E+00 0.  1.
</event>
<event>
12    1  0.8407180E-002  0.2776836E+03  0.7818608E-02  0.1096970E+00
         21   -1    0    0  501  502  0.00000000000E+00  0.00000000000E+00  0.91434556917E+02  0.91434556917E+02  0.00000000000E+00 0. -1.
         21   -1    0    0  502  503 -0.00000000000E+00 -0.00000000000E+00 -0.90451039662E+03  0.90451039662E+03  0.00000000000E+00 0.  1.
         -6    2    1    2    0  503  0.21220240185E+03  0.50532434344E+02 -0.53622811585E+03  0.60383164427E+03  0.17172267210E+03 0.  0.
        -24    2    3    3    0    0  0.15828819593E+03  0.92667517404E+02 -0.32485111907E+03  0.38160556211E+03  0.80325174853E+02 0.  0.
          6    2    1    2  501    0 -0.21220240185E+03 -0.50532434344E+02 -0.27684772385E+03  0.39211330927E+03  0.17182781741E+03 0.  0.
         24    2    5    5    0    0 -0.19773214286E+03  0.43443302811E+01 -0.25045401321E+03  0.32934734993E+03  0.81397731207E+02 0.  0.
          5    1    5    5  501    0 -0.14470258991E+02 -0.54876764625E+02 -0.26393710642E+02  0.62765959345E+02  0.47000000000E+01 0. -1.
        -11    1    6    6    0    0  0.58722160363E+00 -0.14631129934E+02 -0.16487800643E+02  0.22051357382E+02  0.00000000000E+00 0.  1.
         12    1    6    6    0    0 -0.19831936446E+03  0.18975460215E+02 -0.23396621256E+03  0.30729599254E+03  0.00000000000E+00 0. -1.
         -5    1    3    3    0  503  0.53914205923E+02 -0.42135083060E+02 -0.21137699678E+03  0.22222608216E+03  0.47000000000E+01 0.  1.
         11    1    4    4    0    0  0.47002190586E+02 -0.10777768738E+02 -0.73856525292E+02  0.88205173018E+02  0.00000000000E+00 0. -1.
        -12    1    4    4    0    0  0.11128600534E+03  0.10344528614E+03 -0.25099459378E+03  0.29340038909E+03  0.00000000000E+00 0.  1.
</event>
<event>
12    1  0.8407180E-002  0.2195632E+03  0.7818608E-02  0.1135182E+00
         21   -1    0    0  501  502  0.00000000000E+00  0.00000000000E+00  0.45334318608E+02  0.45334318608E+02  0.00000000000E+00 0.  1.
         21   -1    0    0  502  503 -0.00000000000E+00 -0.00000000000E+00 -0.15889456324E+04  0.15889456324E+04  0.00000000000E+00 0.  1.
         -6    2    1    2    0  503 -0.10320612211E+03 -0.90166560638E+02 -0.12586454318E+04  0.12776526628E+04  0.17154151515E+03 0.  0.
        -24    2    3    3    0    0 -0.73601311938E+02  0.14609078879E+02 -0.66385872070E+03  0.67296456043E+03  0.80884610665E+02 0.  0.
          6    2    1    2  501    0  0.10320612211E+03  0.90166560638E+02 -0.28496588202E+03  0.35662728825E+03  0.16491196595E+03 0.  0.
         24    2    5    5    0    0  0.95003674576E+02  0.99589830078E+02 -0.14396819801E+03  0.21499920118E+03  0.80956667622E+02 0.  0.
          5    1    5    5  501    0  0.82024475365E+01 -0.94232694400E+01 -0.14099768400E+03  0.14162808707E+03  0.47000000000E+01 0. -1.
        -13    1    6    6    0    0  0.86335405861E+02  0.60918408612E+02 -0.13966991000E+03  0.17513577182E+03  0.00000000000E+00 0.  1.
         14    1    6    6    0    0  0.86682687156E+01  0.38671421466E+02 -0.42982880177E+01  0.39863429363E+02  0.00000000000E+00 0. -1.
         -5    1    3    3    0  503 -0.29604810175E+02 -0.10477563952E+03 -0.59478671109E+03  0.60468810234E+03  0.47000000000E+01 0.  1.
         11    1    4    4    0    0 -0.10686834016E+02  0.35124156315E+02 -0.13220010240E+03  0.13720343237E+03  0.00000000000E+00 0. -1.
        -12    1    4    4    0    0 -0.62914477923E+02 -0.20515077436E+02 -0.53165861830E+03  0.53576112806E+03  0.00000000000E+00 0.  1.
</event>
<event>
12    1  0.8407180E-002  0.2142788E+03  0.7818608E-02  0.1138421E+00
         21   -1    0    0  501  502  0.00000000000E+00  0.00000000000E+00  0.19186596357E+04  0.19186596357E+04  0.00000000000E+00 0. -1.
         21   -1    0    0  502  503 -0.00000000000E+00 -0.00000000000E+00 -0.24983958188E+02  0.24983958188E+02  0.00000000000E+00 0.  1.
         -6    2    1    2    0  503  0.11799674827E+03 -0.49533285433E+02  0.11547767491E+04  0.11743016437E+04  0.17058203645E+03 0.  0.
        -24    2    3    3    0    0  0.12658924683E+03 -0.81856000559E+02  0.80465648835E+03  0.82255617332E+03  0.80008448181E+02 0.  0.
          6    2    1    2  501    0 -0.11799674827E+03  0.49533285433E+02  0.73889892840E+03  0.76934195017E+03  0.17186806261E+03 0.  0.
         24    2    5    5    0    0 -0.10193686022E+02 -0.26158401912E+02  0.29558924176E+03  0.30685270703E+03  0.77442951512E+02 0.  0.
          5    1    5    5  501    0 -0.10780306225E+03  0.75691687344E+02  0.44330968663E+03  0.46248924315E+03  0.47000000000E+01 0. -1.
        -13    1    6    6    0    0 -0.41960950071E+01 -0.29755089653E+02  0.34835771781E+02  0.46005473252E+02  0.00000000000E+00 0.  1.
         14    1    6    6    0    0 -0.59975910152E+01  0.35966877410E+01  0.26075346998E+03  0.26084723378E+03  0.00000000000E+00 0. -1.
         -5    1    3    3    0  503 -0.85924985554E+01  0.32322715127E+02  0.35012026075E+03  0.35174547038E+03  0.47000000000E+01 0.  1.
         11    1    4    4    0    0  0.12155137536E+03 -0.40824191629E+02  0.64597955221E+03  0.65858251825E+03  0.00000000000E+00 0. -1.
        -12    1    4    4    0    0  0.50378714695E+01 -0.41031808931E+02  0.15867693614E+03  0.16397365507E+03  0.00000000000E+00 0.  1.
</event>
<event>
12    1  0.8407180E-002  0.2080848E+03  0.7818608E-02  0.1144457E+00
         21   -1    0    0  503  502  0.00000000000E+00  0.00000000000E+00  0.50633379116E+03  0.50633379116E+03  0.00000000000E+00 0. -1.
         21   -1    0    0  501  503 -0.00000000000E+00 -0.00000000000E+00 -0.86403144611E+02  0.86403144611E+02  0.00000000000E+00 0. -1.
          6    2    1    2  501    0  0.41530415774E+02  0.96855647346E+02  0.27389708544E+03  0.34397516687E+03  0.17942550029E+03 0.  0.
         24    2    3    3    0    0 -0.34238084064E+02  0.72286792713E+02  0.21482400500E+03  0.24469670486E+03  0.85612484180E+02 0.  0.
         -6    2    1    2    0  502 -0.41530415774E+02 -0.96855647346E+02  0.14603356111E+03  0.24876176890E+03  0.17161242624E+03 0.  0.
        -24    2    5    5    0    0  0.15685813903E+02  0.33243982823E+01  0.86563970313E+02  0.11888313051E+03  0.79892311155E+02 0.  0.
          5    1    3    3  501    0  0.75768499838E+02  0.24568854633E+02  0.59073080441E+02  0.99278462007E+02  0.47000000000E+01 0. -1.
        -13    1    4    4    0    0  0.20056464569E+02  0.13900147141E+02  0.12901059529E+02  0.27602775196E+02  0.00000000000E+00 0.  1.
         14    1    4    4    0    0 -0.54294548633E+02  0.58386645571E+02  0.20192294547E+03  0.21709392967E+03  0.00000000000E+00 0. -1.
         -5    1    5    5    0  502 -0.57216229677E+02 -0.10018004563E+03  0.59469590800E+02  0.12987863839E+03  0.47000000000E+01 0.  1.
         13    1    6    6    0    0 -0.36857446844E+01 -0.24449630869E+02 -0.12591539984E+01  0.24757920597E+02  0.00000000000E+00 0. -1.
        -14    1    6    6    0    0  0.19371558587E+02  0.27774029151E+02  0.87823124311E+02  0.94125209913E+02  0.00000000000E+00 0.  1.
</event>
<event>
12    1  0.8407180E-002  0.2177560E+03  0.7818608E-02  0.1136409E+00
         21   -1    0    0  503  502  0.00000000000E+00  0.00000000000E+00  0.84888646476E+02  0.84888646476E+02  0.00000000000E+00 0. -1.
         21   -1    0    0  501  503 -0.00000000000E+00 -0.00000000000E+00 -0.10356376304E+04  0.10356376304E+04  0.00000000000E+00 0.  1.
          6    2    1    2  501    0  0.13045197249E+03  0.15166778096E+02 -0.86264583849E+03  0.88970529801E+03  0.17369492323E+03 0.  0.
         24    2    3    3    0    0  0.93970127312E+02  0.67261003831E+02 -0.72039359947E+03  0.73381263337E+03  0.78483216486E+02 0.  0.
         -6    2    1    2    0  502 -0.13045197249E+03 -0.15166778096E+02 -0.88103145447E+02  0.23082097888E+03  0.16813212593E+03 0.  0.
        -24    2    5    5    0    0 -0.75776892729E+02 -0.63838683976E+02 -0.16761526423E+02  0.12849778809E+03  0.80082568221E+02 0.  0.
          5    1    3    3  501    0  0.36481845174E+02 -0.52094225735E+02 -0.14225223902E+03  0.15589266464E+03  0.47000000000E+01 0. -1.
        -11    1    4    4    0    0  0.84488728554E+01 -0.16900955914E+02 -0.12826123503E+03  0.12964555594E+03  0.00000000000E+00 0.  1.
         12    1    4    4    0    0  0.85521254456E+02  0.84161959745E+02 -0.59213236444E+03  0.60416707743E+03  0.00000000000E+00 0. -1.
         -5    1    5    5    0  502 -0.54675079758E+02  0.48671905880E+02 -0.71341619024E+02  0.10232319079E+03  0.47000000000E+01 0.  1.
         11    1    6    6    0    0 -0.67602299895E+02 -0.95983994432E+01  0.71620733484E+01  0.68654901629E+02  0.00000000000E+00 0. -1.
        -12    1    6    6    0    0 -0.81745928336E+01 -0.54240284533E+02 -0.23923599771E+02  0.59842886463E+02  0.00000000000E+00 0.  1.
</event>
<event>
12    1  0.8407180E-002  0.2407435E+03  0.7818608E-02  0.1119381E+00
         21   -1    0    0  501  502  0.00000000000E+00  0.00000000000E+00  0.44667892029E+03  0.44667892029E+03  0.00000000000E+00 0. -1.
         21   -1    0    0  502  503 -0.00000000000E+00 -0.00000000000E+00 -0.13033664417E+03  0.13033664417E+03  0.00000000000E+00 0.  1.
         -6    2    1    2    0  503 -0.68712983512E+02 -0.15396693378E+03  0.13502006823E+03  0.27602145239E+03  0.17184333725E+03 0.  0.
        -24    2    3    3    0    0 -0.79726095536E+02 -0.15526161080E+03  0.15883265651E+03  0.24933635944E+03  0.80488441821E+02 0.  0.
          6    2    1    2  501    0  0.68712983512E+02  0.15396693378E+03  0.18132220788E+03  0.30099411207E+03  0.17115028960E+03 0.  0.
         24    2    5    5    0    0  0.11122726923E+03  0.10390600506E+03  0.11256417057E+03  0.20579264796E+03  0.80696704690E+02 0.  0.
          5    1    5    5  501    0 -0.42514285722E+02  0.50060928715E+02  0.68758037308E+02  0.95201464110E+02  0.47000000000E+01 0. -1.
        -11    1    6    6    0    0  0.97703863984E+02  0.65435301661E+02  0.43095943803E+02  0.12524010585E+03  0.00000000000E+00 0.  1.
         12    1    6    6    0    0  0.13523405251E+02  0.38470703401E+02  0.69468226770E+02  0.80552542110E+02  0.00000000000E+00 0. -1.
         -5    1    3    3    0  503  0.11013112024E+02  0.12946770245E+01 -0.23812588282E+02  0.26685092950E+02  0.47000000000E+01 0.  1.
         11    1    4    4    0    0 -0.49840248221E+00 -0.88737468178E+02  0.72187706020E+02  0.11439253282E+03  0.00000000000E+00 0. -1.
        -12    1    4    4    0    0 -0.79227693054E+02 -0.66524142622E+02  0.86644950493E+02  0.13494382663E+03  0.00000000000E+00 0.  1.
</event>
<event>
12    1  0.8407180E-002  0.3078304E+03  0.7818608E-02  0.1081419E+00
         21   -1    0    0  501  502  0.00000000000E+00  0.00000000000E+00  0.11216873801E+04  0.11216873801E+04  0.00000000000E+00 0.  1.
         21   -1    0    0  502  503 -0.00000000000E+00 -0.00000000000E+00 -0.91111472227E+02  0.91111472227E+02  0.00000000000E+00 0.  1.
         -6    2    1    2    0  503 -0.11621330760E+03 -0.22653386546E+03  0.35106404167E+03  0.46691059810E+03  0.17302144435E+03 0.  0.
        -24    2    3    3    0    0  0.67295443850E+01 -0.10350193252E+03  0.18049915728E+03  0.22325865133E+03  0.80663144091E+02 0.  0.
          6    2    1    2  501    0  0.11621330760E+03  0.22653386546E+03  0.67951186619E+03  0.74588825421E+03  0.17259717961E+03 0.  0.
         24    2    5    5    0    0  0.44007251054E+02  0.76514398825E+02  0.15284394461E+03  0.19351089715E+03  0.79335392722E+02 0.  0.
          5    1    5    5  501    0  0.72206056542E+02  0.15001946664E+03  0.52666792158E+03  0.55237735706E+03  0.47000000000E+01 0. -1.
        -13    1    6    6    0    0  0.21914631647E+02  0.27738667202E+02  0.13099128229E+03  0.13567756180E+03  0.00000000000E+00 0.  1.
         14    1    6    6    0    0  0.22092619407E+02  0.48775731623E+02  0.21852662318E+02  0.57833335353E+02  0.00000000000E+00 0. -1.
         -5    1    3    3    0  503 -0.12294285198E+03 -0.12303193295E+03  0.17056488439E+03  0.24365194677E+03  0.47000000000E+01 0.  1.
         11    1    4    4    0    0  0.13986683543E+02  0.10293333957E+02  0.24261531077E+02  0.29836251954E+02  0.00000000000E+00 0. -1.
        -12    1    4    4    0    0 -0.72571391583E+01 -0.11379526647E+03  0.15623762620E+03  0.19342239938E+03  0.00000000000E+00 0.  1.
</event>
<event>
12    1  0.8407180E-002  0.2304734E+03  0.7818608E-02  0.1129482E+00
         21   -1    0    0  503  502  0.00000000000E+00  0.00000000000E+00  0.35195799258E+03  0.35195799258E+03  0.00000000000E+00 0. -1.
         21   -1    0    0  501  503 -0.00000000000E+00 -0.00000000000E+00 -0.20884506617E+03  0.20884506617E+03  0.00000000000E+00 0.  1.
          6    2    1    2  501    0 -0.94274967161E+02 -0.81713952191E+02 -0.91493073063E+02  0.23192926956E+03  0.17278675946E+03 0.  0.
         24    2    3    3    0    0 -0.16476757201E+01 -0.59497619019E+02 -0.93704349360E+02  0.13653346084E+03  0.79487101688E+02 0.  0.
         -6    2    1    2    0  502  0.94274967161E+02  0.81713952191E+02  0.23460599948E+03  0.32887378919E+03  0.19378610582E+03 0.  0.
        -24    2    5    5    0    0  0.76137019193E+02 -0.28143590889E+02  0.84100102079E+02  0.14159917778E+03  0.79928671814E+02 0.  0.
          5    1    3    3  501    0 -0.92627291441E+02 -0.22216333172E+02  0.22112762974E+01  0.95395808725E+02  0.47000000000E+01 0. -1.
        -11    1    4    4    0    0 -0.29289878647E+02  0.26549959997E+01 -0.41124494744E+02  0.50558580507E+02  0.00000000000E+00 0.  1.
         12    1    4    4    0    0  0.27642202926E+02 -0.62152615019E+02 -0.52579854616E+02  0.85974880330E+02  0.00000000000E+00 0. -1.
         -5    1    5    5    0  502  0.18137947968E+02  0.10985754308E+03  0.15050589740E+03  0.18727461141E+03  0.47000000000E+01 0.  1.
         11    1    6    6    0    0  0.12073671629E+02 -0.44460831340E+02  0.46898201852E+02  0.65741770641E+02  0.00000000000E+00 0. -1.
        -12    1    6    6    0    0  0.64063347564E+02  0.16317240452E+02  0.37201900227E+02  0.75857407137E+02  0.00000000000E+00 0.  1.
</event>
<event>
12    1  0.8407180E-002  0.1738619E+03  0.7818608E-02  0.1174114E+00
         21   -1    0    0  501  502  0.00000000000E+00  0.00000000000E+00  0.58421463542E+02  0.58421463542E+02  0.00000000000E+00 0. -1.
         21   -1    0    0  502  503 -0.00000000000E+00 -0.00000000000E+00 -0.55097933108E+03  0.55097933108E+03  0.00000000000E+00 0. -1.
         -6    2    1    2    0  503 -0.22124189766E+02  0.67014763304E+01 -0.32388589694E+03  0.36716496568E+03  0.17138742145E+03 0.  0.
        -24    2    3    3    0    0 -0.62202023974E+02 -0.20864647459E+02 -0.29068778697E+03  0.30808596365E+03  0.78186611416E+02 0.  0.
          6    2    1    2  501    0  0.22124189766E+02 -0.67014763304E+01 -0.16867197060E+03  0.24223582894E+03  0.17231823351E+03 0.  0.
         24    2    5    5    0    0  0.10163462509E+02  0.36556973729E+01 -0.73380842019E+01  0.80059866037E+02  0.78987812836E+02 0.  0.
          5    1    5    5  501    0  0.11960727257E+02 -0.10357173703E+02 -0.16133388640E+03  0.16217596291E+03  0.47000000000E+01 0. -1.
        -13    1    6    6    0    0  0.10326866863E+02  0.33568467537E+02 -0.26968382888E+02  0.44280694073E+02  0.00000000000E+00 0.  1.
         14    1    6    6    0    0 -0.16340435452E+00 -0.29912770165E+02  0.19630298686E+02  0.35779171963E+02  0.00000000000E+00 0. -1.
         -5    1    3    3    0  503  0.40077834207E+02  0.27566123789E+02 -0.33198109967E+02  0.59079002030E+02  0.47000000000E+01 0.  1.
         13    1    4    4    0    0 -0.48781523069E+02 -0.48626600764E+02 -0.16775273644E+03  0.18134266977E+03  0.00000000000E+00 0. -1.
        -14    1    4    4    0    0 -0.13420500905E+02  0.27761953305E+02 -0.12293505052E+03  0.12674329388E+03  0.00000000000E+00 0.  1.
</event>
<event>
12    1  0.8407180E-002  0.3047779E+03  0.7818608E-02  0.1083898E+00
         21   -1    0    0  503  502  0.00000000000E+00  0.00000000000E+00  0.68193650030E+03  0.68193650030E+03  0.00000000000E+00 0. -1.
         21   -1    0    0  501  503 -0.00000000000E+00 -0.00000000000E+00 -0.11459355436E+04  0.11459355436E+04  0.00000000000E+00 0.  1.
          6    2    1    2  501    0 -0.70342082283E+02 -0.23083576883E+03 -0.10910724416E+04  0.11306557293E+04  0.17236631006E+03 0.  0.
         24    2    3    3    0    0  0.55548882460E+01 -0.20475509264E+03 -0.79947820672E+03  0.82818285519E+03  0.69035743350E+02 0.  0.
         -6    2    1    2    0  502  0.70342082283E+02  0.23083576883E+03  0.62707339822E+03  0.69721631461E+03  0.18616224614E+03 0.  0.
        -24    2    5    5    0    0 -0.28500917039E+02  0.12660904262E+03  0.23568622487E+03  0.28027608096E+03  0.78514540180E+02 0.  0.
          5    1    3    3  501    0 -0.75896970529E+02 -0.26080676189E+02 -0.29159423483E+03  0.30247287414E+03  0.47000000000E+01 0. -1.
        -11    1    4    4    0    0  0.31552312683E+02 -0.72573645165E+02 -0.35629512016E+03  0.36497766378E+03  0.00000000000E+00 0.  1.
         12    1    4    4    0    0 -0.25997424437E+02 -0.13218144747E+03 -0.44318308656E+03  0.46320519141E+03  0.00000000000E+00 0. -1.
         -5    1    5    5    0  502  0.98842999321E+02  0.10422672621E+03  0.39138717335E+03  0.41694023365E+03  0.47000000000E+01 0.  1.
         13    1    6    6    0    0 -0.28910316856E+02  0.66435040182E+02  0.19395687659E+03  0.20704755725E+03  0.00000000000E+00 0. -1.
        -14    1    6    6    0    0  0.40939981731E+00  0.60174002434E+02  0.41729348276E+02  0.73228523709E+02  0.00000000000E+00 0.  1.
</event>
<event>
12    1  0.8407180E-002  0.2304341E+03  0.7818608E-02  0.1126418E+00
         21   -1    0    0  503  502  0.00000000000E+00  0.00000000000E+00  0.16355389068E+03  0.16355389068E+03  0.00000000000E+00 0. -1.
         21   -1    0    0  501  503 -0.00000000000E+00 -0.00000000000E+00 -0.36918955114E+03  0.36918955114E+03  0.00000000000E+00 0. -1.
          6    2    1    2  501    0 -0.42344288564E+02  0.14729791410E+03 -0.19610889543E+03  0.30258646062E+03  0.17207600941E+03 0.  0.
         24    2    3    3    0    0  0.21262850962E+02  0.90176605354E+01 -0.63144318923E+00  0.54794570000E+02  0.49685200497E+02 0.  0.
         -6    2    1    2    0  502  0.42344288564E+02 -0.14729791410E+03 -0.95267650271E+01  0.23015698119E+03  0.17144025918E+03 0.  0.
        -24    2    5    5    0    0  0.56029466128E+02 -0.17181613454E+03 -0.20973753743E+02  0.19947228192E+03  0.81787576970E+02 0.  0.
          5    1    3    3  501    0 -0.63607139526E+02  0.13828025356E+03 -0.19547745224E+03  0.24779189062E+03  0.47000000000E+01 0. -1.
        -11    1    4    4    0    0  0.29881731409E+02 -0.10154343857E+02 -0.79340781973E+01  0.32541944748E+02  0.00000000000E+00 0.  1.
         12    1    4    4    0    0 -0.86188804467E+01  0.19172004392E+02  0.73026350080E+01  0.22252625252E+02  0.00000000000E+00 0. -1.
         -5    1    5    5    0  502 -0.13685177564E+02  0.24518220441E+02  0.11446988716E+02  0.30684699269E+02  0.47000000000E+01 0.  1.
         11    1    6    6    0    0  0.13987931097E+02 -0.13986808000E+03 -0.34960516007E+02  0.14484812632E+03  0.00000000000E+00 0. -1.
        -12    1    6    6    0    0  0.42041535031E+02 -0.31948054541E+02  0.13986762264E+02  0.54624155603E+02  0.00000000000E+00 0.  1.
</event>
<event>
12    1  0.8407180E-002  0.1843049E+03  0.7818608E-02  0.1163799E+00
         21   -1    0    0  503  502  0.00000000000E+00  0.00000000000E+00  0.18377212332E+04  0.18377212332E+04  0.00000000000E+00 0.  1.
         21   -1    0    0  501  503 -0.00000000000E+00 -0.00000000000E+00 -0.88490351669E+02  0.88490351669E+02  0.00000000000E+00 0.  1.
          6    2    1    2  501    0  0.54983660491E+02 -0.37621880636E+02  0.17932626479E+02  0.18517526063E+03  0.17184204734E+03 0.  0.
         24    2    3    3    0    0  0.56914064703E+01 -0.67784464498E+01 -0.51335162143E+02  0.94615002908E+02  0.78983292279E+02 0.  0.
         -6    2    1    2    0  502 -0.54983660491E+02  0.37621880636E+02  0.17312982551E+04  0.17410363243E+04  0.17139202296E+03 0.  0.
        -24    2    5    5    0    0 -0.78976223202E+02  0.74912055387E+02  0.11080281804E+04  0.11161732384E+04  0.79165582662E+02 0.  0.
          5    1    3    3  501    0  0.49292254020E+02 -0.30843434187E+02  0.69267788622E+02  0.90560257726E+02  0.47000000000E+01 0. -1.
        -11    1    4    4    0    0  0.36266947244E+02 -0.16796558263E+02 -0.81974447250E+01  0.40799680537E+02  0.00000000000E+00 0.  1.
         12    1    4    4    0    0 -0.30575540774E+02  0.10018111813E+02 -0.43137717418E+02  0.53815322371E+02  0.00000000000E+00 0. -1.
         -5    1    5    5    0  502  0.23992562711E+02 -0.37290174751E+02  0.62327007465E+03  0.62486308592E+03  0.47000000000E+01 0.  1.
         13    1    6    6    0    0 -0.25755840583E+01 -0.10801714609E+02  0.29004223231E+02  0.31057296035E+02  0.00000000000E+00 0. -1.
        -14    1    6    6    0    0 -0.76400639144E+02  0.85713769996E+02  0.10790239572E+04  0.10851159423E+04  0.00000000000E+00 0.  1.
</event>
<event>
12    1  0.8407180E-002  0.1905362E+03  0.7818608E-02  0.1160334E+00
         21   -1    0    0  501  502  0.00000000000E+00  0.00000000000E+00  0.24041516591E+02  0.24041516591E+02  0.00000000000E+00 0.  1.
         21   -1    0    0  502  503 -0.00000000000E+00 -0.00000000000E+00 -0.16217752158E+04  0.16217752158E+04  0.00000000000E+00 0.  1.
         -6    2    1    2    0  503  0.44447096773E+02 -0.19894846865E+02 -0.10620740746E+04  0.10772789017E+04  0.17365812056E+03 0.  0.
        -24    2    3    3    0    0 -0.45927577296E+01 -0.53555483959E+02 -0.89820707042E+03  0.90288729965E+03  0.74432863876E+02 0.  0.
          6    2    1    2  501    0 -0.44447096773E+02  0.19894846865E+02 -0.53565962463E+03  0.56853783068E+03  0.18420825745E+03 0.  0.
         24    2    5    5    0    0 -0.36119428871E+02 -0.51480245139E+02 -0.19814940067E+03  0.22343060808E+03  0.81873212106E+02 0.  0.
          5    1    5    5  501    0 -0.83276679025E+01  0.71375092004E+02 -0.33751022396E+03  0.34510722260E+03  0.47000000000E+01 0. -1.
        -13    1    6    6    0    0 -0.55262858526E+02 -0.50017409628E+02 -0.10777161993E+03  0.13103605176E+03  0.00000000000E+00 0.  1.
         14    1    6    6    0    0  0.19143429655E+02 -0.14628355108E+01 -0.90377780733E+02  0.92394556316E+02  0.00000000000E+00 0. -1.
         -5    1    3    3    0  503  0.49039854503E+02  0.33660637094E+02 -0.16386700419E+03  0.17439160210E+03  0.47000000000E+01 0.  1.
         13    1    4    4    0    0 -0.12351945919E+02  0.16867541063E+02 -0.19164276080E+03  0.19277975070E+03  0.00000000000E+00 0. -1.
        -14    1    4    4    0    0  0.77591881894E+01 -0.70423025022E+02 -0.70656430962E+03  0.71010754896E+03  0.00000000000E+00 0.  1.
</event>
<event>
12    1  0.8407180E-002  0.3348242E+03  0.7818608E-02  0.1069330E+00
         21   -1    0    0  501  502  0.00000000000E+00  0.00000000000E+00  0.52351475268E+03  0.52351475268E+03  0.00000000000E+00 0.  1.
         21   -1    0    0  502  503 -0.00000000000E+00 -0.00000000000E+00 -0.23500678414E+03  0.23500678414E+03  0.00000000000E+00 0.  1.
         -6    2    1    2    0  503  0.27817039833E+03 -0.71886080829E+02  0.25927086578E+02  0.33301482612E+03  0.16637392066E+03 0.  0.
        -24    2    3    3    0    0  0.47766658063E+02 -0.40337183824E+02  0.17319528066E+02  0.10025444183E+03  0.76434580090E+02 0.  0.
          6    2    1    2  501    0 -0.27817039833E+03  0.71886080829E+02  0.26258088196E+03  0.42550671070E+03  0.17193272566E+03 0.  0.
         24    2    5    5    0    0 -0.15740813172E+03  0.98873289344E+02  0.11615401528E+03  0.23373926887E+03  0.81172922002E+02 0.  0.
          5    1    5    5  501    0 -0.12076226661E+03 -0.26987208515E+02  0.14642686668E+03  0.19176744183E+03  0.47000000000E+01 0. -1.
        -11    1    6    6    0    0 -0.38702177664E+02  0.14284624287E+02  0.69268848516E+02  0.80623088638E+02  0.00000000000E+00 0.  1.
         12    1    6    6    0    0 -0.11870595406E+03  0.84588665057E+02  0.46885166766E+02  0.15311618023E+03  0.00000000000E+00 0. -1.
         -5    1    3    3    0  503  0.23040374026E+03 -0.31548897004E+02  0.86075585122E+01  0.23276038429E+03  0.47000000000E+01 0.  1.
         13    1    4    4    0    0 -0.14547669938E+02  0.70287565186E+01  0.14847449427E+02  0.21942763575E+02  0.00000000000E+00 0. -1.
        -14    1    4    4    0    0  0.62314328001E+02 -0.47365940343E+02  0.24720786385E+01  0.78311678258E+02  0.00000000000E+00 0.  1.
</event>
<event>
12    1  0.8407180E-002  0.1992682E+03  0.7818608E-02  0.1151536E+00
         21   -1    0    0  501  502  0.00000000000E+00  0.00000000000E+00  0.26872362908E+03  0.26872362908E+03  0.00000000000E+00 0. -1.
         21   -1    0    0  502  503 -0.00000000000E+00 -0.00000000000E+00 -0.24439814992E+03  0.24439814992E+03  0.00000000000E+00 0.  1.
         -6    2    1    2    0  503 -0.99629538665E+02  0.47174527544E+01 -0.15238719967E+03  0.25085788014E+03  0.17250947241E+03 0.  0.
        -24    2    3    3    0    0 -0.40612925015E+02 -0.61465324997E+02 -0.66971279564E+02  0.12764631345E+03  0.79881369522E+02 0.  0.
          6    2    1    2  501    0  0.99629538665E+02 -0.47174527544E+01  0.17671267883E+03  0.26226389885E+03  0.16615258785E+03 0.  0.
         24    2    5    5    0    0  0.11607587699E+02  0.40139616760E+02  0.92401195812E+02  0.13230030124E+03  0.84967427841E+02 0.  0.
          5    1    5    5  501    0  0.88021950965E+02 -0.44857069514E+02  0.84311483018E+02  0.12996359762E+03  0.47000000000E+01 0. -1.
        -13    1    6    6    0    0 -0.79649917279E+01  0.87699312337E+01 -0.14767582171E+02  0.18932360398E+02  0.00000000000E+00 0.  1.
         14    1    6    6    0    0  0.19572579427E+02  0.31369685526E+02  0.10716877798E+03  0.11336794084E+03  0.00000000000E+00 0. -1.
         -5    1    3    3    0  503 -0.59016613649E+02  0.66182777752E+02 -0.85415920110E+02  0.12321156669E+03  0.47000000000E+01 0.  1.
         13    1    4    4    0    0 -0.55255027217E+02 -0.46286964298E+02 -0.17951399613E+02  0.74282257941E+02  0.00000000000E+00 0. -1.
        -14    1    4    4    0    0  0.14642102202E+02 -0.15178360700E+02 -0.49019879951E+02  0.53364055514E+02  0.00000000000E+00 0.  1.
</event>
<event>
12    1  0.8407180E-002  0.2968418E+03  0.7818608E-02  0.1086944E+00
         21   -1    0    0  503  502  0.00000000000E+00  0.00000000000E+00  0.35795774872E+03  0.35795774872E+03  0.00000000000E+00 0. -1.
         21   -1    0    0  501  503 -0.00000000000E+00 -0.00000000000E+00 -0.28589823052E+03  0.28589823052E+03  0.00000000000E+00 0.  1.
          6    2    1    2  501    0  0.12664129075E+03  0.20480912232E+03  0.15721392242E+03  0.33590364456E+03  0.17358066689E+03 0.  0.
         24    2    3    3    0    0  0.15101661289E+03  0.13575301381E+03  0.14251676957E+03  0.26106382392E+03  0.81292019433E+02 0.  0.
         -6    2    1    2    0  502 -0.12664129075E+03 -0.20480912232E+03 -0.85154404223E+02  0.30795233469E+03  0.17204236331E+03 0.  0.
        -24    2    5    5    0    0 -0.13878366178E+03 -0.10608145863E+03 -0.85813227300E+02  0.20836763305E+03  0.74424323192E+02 0.  0.
          5    1    3    3  501    0 -0.24375322137E+02  0.69056108508E+02  0.14697152848E+02  0.74839820640E+02  0.47000000000E+01 0. -1.
        -13    1    4    4    0    0  0.46366844184E+02  0.89659869966E+02  0.43940177908E+02  0.11008867224E+03  0.00000000000E+00 0.  1.
         14    1    4    4    0    0  0.10464976870E+03  0.46093143842E+02  0.98576591661E+02  0.15097515167E+03  0.00000000000E+00 0. -1.
         -5    1    5    5    0  502  0.12142371029E+02 -0.98727663690E+02  0.65882307655E+00  0.99584701635E+02  0.47000000000E+01 0.  1.
         13    1    6    6    0    0 -0.91639968266E+01  0.11024399526E+02 -0.12125582844E+02  0.18776207872E+02  0.00000000000E+00 0. -1.
        -14    1    6    6    0    0 -0.12961966495E+03 -0.11710585815E+03 -0.73687644456E+02  0.18959142518E+03  0.00000000000E+00 0.  1.
</event>
<event>
12    1  0.8407180E-002  0.1797789E+03  0.7818608E-02  0.1169388E+00
         21   -1    0    0  501  502  0.00000000000E+00  0.00000000000E+00  0.18085294791E+03  0.18085294791E+03  0.00000000000E+00 0. -1.
         21   -1    0    0  502  503 -0.00000000000E+00 -0.00000000000E+00 -0.19759283339E+03  0.19759283339E+03  0.00000000000E+00 0. -1.
         -6    2    1    2    0  503 -0.30491193355E+02 -0.35992221074E+02 -0.74926208457E+02  0.19476752178E+03  0.17347996420E+03 0.  0.
        -24    2    3    3    0    0 -0.92078522680E+01  0.27748406266E+02 -0.91802801186E+02  0.12532144512E+03  0.80143319797E+02 0.  0.
          6    2    1    2  501    0  0.30491193355E+02  0.35992221074E+02  0.58186322975E+02  0.18367825952E+03  0.16771076885E+03 0.  0.
         24    2    5    5    0    0 -0.21201286240E+02  0.69695457833E+02  0.16322748210E+02  0.10896099574E+03  0.79366964801E+02 0.  0.
          5    1    5    5  501    0  0.51692479596E+02 -0.33703236760E+02  0.41863574766E+02  0.74717263781E+02  0.47000000000E+01 0. -1.
        -13    1    6    6    0    0  0.27223513075E+01  0.77907928799E+02  0.25551228578E+02  0.82036100884E+02  0.00000000000E+00 0.  1.
         14    1    6    6    0    0 -0.23923637548E+02 -0.82124709652E+01 -0.92284803687E+01  0.26924894852E+02  0.00000000000E+00 0. -1.
         -5    1    3    3    0  503 -0.21283341087E+02 -0.63740627339E+02  0.16876592730E+02  0.69446076661E+02  0.47000000000E+01 0.  1.
         13    1    4    4    0    0  0.17637530363E+02  0.41367787133E+02 -0.82246831192E+02  0.93738559466E+02  0.00000000000E+00 0. -1.
        -14    1    4    4    0    0 -0.26845382631E+02 -0.13619380867E+02 -0.95559699943E+01  0.31582885656E+02  0.00000000000E+00 0.  1.
</event>
<event>
12    1  0.8407180E-002  0.1801122E+03  0.7818608E-02  0.1167857E+00
         21   -1    0    0  501  502  0.00000000000E+00  0.00000000000E+00  0.20378929020E+03  0.20378929020E+03  0.00000000000E+00 0.  1.
         21   -1    0    0  502  503 -0.00000000000E+00 -0.00000000000E+00 -0.18188143773E+03  0.18188143773E+03  0.00000000000E+00 0.  1.
         -6    2    1    2    0  503 -0.14482877014E+02 -0.48978051974E+02  0.79934777380E+02  0.19644197468E+03  0.17202115417E+03 0.  0.
        -24    2    3    3    0    0  0.15630314565E+02  0.31920586229E+02  0.64058065439E+02  0.10854684426E+03  0.80098383828E+02 0.  0.
          6    2    1    2  501    0  0.14482877014E+02  0.48978051974E+02 -0.58026924911E+02  0.18922875324E+03  0.17271882856E+03 0.  0.
         24    2    5    5    0    0  0.74743487120E+02  0.34313442576E+02 -0.53413807950E+02  0.12686079074E+03  0.80477475969E+02 0.  0.
          5    1    5    5  501    0 -0.60260610107E+02  0.14664609399E+02 -0.46131169611E+01  0.62367962507E+02  0.47000000000E+01 0. -1.
        -13    1    6    6    0    0  0.39190242906E+02 -0.15873458008E+02  0.43221693394E+01  0.42503211125E+02  0.00000000000E+00 0.  1.
         14    1    6    6    0    0  0.35553244214E+02  0.50186900583E+02 -0.57735977289E+02  0.84357579611E+02  0.00000000000E+00 0. -1.
         -5    1    3    3    0  503 -0.30113191579E+02 -0.80898638203E+02  0.15876711942E+02  0.87895130424E+02  0.47000000000E+01 0.  1.
         13    1    4    4    0    0 -0.29133499034E+02  0.31305227994E+02  0.33856826134E+02  0.54544135722E+02  0.00000000000E+00 0. -1.
        -14    1    4    4    0    0  0.44763813599E+02  0.61535823495E+00  0.30201239304E+02  0.54002708536E+02  0.00000000000E+00 0.  1.
</event>
<event>
12    1  0.8407180E-002  0.1837114E+03  0.7818608E-02  0.1164729E+00
         21   -1    0    0  501  502  0.00000000000E+00  0.00000000000E+00  0.21153417023E+03  0.21153417023E+03  0.00000000000E+00 0.  1.
         21   -1    0    0  502  503 -0.00000000000E+00 -0.00000000000E+00 -0.41318917556E+03  0.41318917556E+03  0.00000000000E+00 0.  1.
         -6    2    1    2    0  503 -0.19529928388E+02 -0.59890799666E+02 -0.34659620022E+03  0.39227387135E+03  0.17257328343E+03 0.  0.
        -24    2    3    3    0    0  0.24105594445E+02  0.17232698032E+02 -0.23088151072E+03  0.24645181501E+03  0.80957887610E+02 0.  0.
          6    2    1    2  501    0  0.19529928388E+02  0.59890799666E+02  0.14494119489E+03  0.23244947444E+03  0.17045962045E+03 0.  0.
         24    2    5    5    0    0 -0.44000242490E+02  0.70854944566E+02  0.10495413528E+03  0.15644059324E+03  0.80634013858E+02 0.  0.
          5    1    5    5  501    0  0.63530170878E+02 -0.10964144899E+02  0.39987059609E+02  0.76008881200E+02  0.47000000000E+01 0. -1.
        -11    1    6    6    0    0  0.16836788174E+02  0.40801752268E+02  0.62091153058E+02  0.76181176889E+02  0.00000000000E+00 0.  1.
         12    1    6    6    0    0 -0.60837030664E+02  0.30053192298E+02  0.42862982223E+02  0.80259416347E+02  0.00000000000E+00 0. -1.
         -5    1    3    3    0  503 -0.43635522833E+02 -0.77123497698E+02 -0.11571468950E+03  0.14582205634E+03  0.47000000000E+01 0.  1.
         13    1    4    4    0    0  0.36893299759E+02  0.21684376498E+02 -0.53294442425E+02  0.68349289277E+02  0.00000000000E+00 0. -1.
        -14    1    4    4    0    0 -0.12787705314E+02 -0.44516784668E+01 -0.17758706829E+03  0.17810252573E+03  0.00000000000E+00 0.  1.
</event>
<event>
12    1  0.8407180E-002  0.1970566E+03  0.7818608E-02  0.1152463E+00
         21   -1    0    0  501  502  0.00000000000E+00  0.00000000000E+00  0.13934667535E+03  0.13934667535E+03  0.00000000000E+00 0.  1.
         21   -1    0    0  502  503 -0.00000000000E+00 -0.00000000000E+00 -0.67126782473E+03  0.67126782473E+03  0.00000000000E+00 0. -1.
         -6    2    1    2    0  503 -0.98516227967E+02  0.49979609770E+01 -0.57676345226E+03  0.60949763278E+03  0.17058973507E+03 0.  0.
        -24    2    3    3    0    0 -0.12813215322E+03  0.28347552114E+02 -0.51426024021E+03  0.53634677529E+03  0.77348796373E+02 0.  0.
          6    2    1    2  501    0  0.98516227967E+02 -0.49979609770E+01  0.44842302874E+02  0.20111686730E+03  0.16943062120E+03 0.  0.
         24    2    5    5    0    0  0.64263755414E+02 -0.66428078728E+02  0.45524126803E+02  0.13062256876E+03  0.80295015069E+02 0.  0.
          5    1    5    5  501    0  0.34252472553E+02  0.61430117751E+02 -0.68182392900E+00  0.70494298541E+02  0.47000000000E+01 0. -1.
        -11    1    6    6    0    0  0.75898947364E+02 -0.44080858518E+02  0.11851613488E+02  0.88567674921E+02  0.00000000000E+00 0.  1.
         12    1    6    6    0    0 -0.11635191950E+02 -0.22347220210E+02  0.33672513316E+02  0.42054893839E+02  0.00000000000E+00 0. -1.
         -5    1    3    3    0  503  0.29615925253E+02 -0.23349591137E+02 -0.62503212044E+02  0.73150857484E+02  0.47000000000E+01 0.  1.
         13    1    4    4    0    0 -0.15633141591E+02 -0.10838928817E+02 -0.18903803236E+03  0.18999277664E+03  0.00000000000E+00 0. -1.
        -14    1    4    4    0    0 -0.11249901163E+03  0.39186480930E+02 -0.32522220785E+03  0.34635399866E+03  0.00000000000E+00 0.  1.
</event>
<event>
12    1  0.8407180E-002  0.1953369E+03  0.7818608E-02  0.1153830E+00
         21   -1    0    0  501  502  0.00000000000E+00  0.00000000000E+00  0.30819100656E+02  0.30819100656E+02  0.00000000000E+00 0. -1.
         21   -1    0    0  502  503 -0.00000000000E+00 -0.00000000000E+00 -0.17880706581E+04  0.17880706581E+04  0.00000000000E+00 0. -1.
         -6    2    1    2    0  503  0.64880847412E+02  0.66343866502E+02 -0.13849676395E+04  0.13986750404E+04  0.17188796759E+03 0.  0.
        -24    2    3    3    0    0  0.49165845289E+02  0.10446551638E+03 -0.12379489337E+04  0.12459111333E+04  0.80291127571E+02 0.  0.
          6    2    1    2  501    0 -0.64880847412E+02 -0.66343866502E+02 -0.37228391800E+03  0.42021471834E+03  0.17138862542E+03 0.  0.
         24    2    5    5    0    0  0.24625017374E+02 -0.59099760246E+02 -0.22761089384E+03  0.24987344082E+03  0.80813639262E+02 0.  0.
          5    1    5    5  501    0 -0.89505864786E+02 -0.72441062553E+01 -0.14467302416E+03  0.17034127752E+03  0.47000000000E+01 0. -1.
        -13    1    6    6    0    0  0.27662984139E+01 -0.72951518591E+02 -0.19516080904E+03  0.20836822660E+03  0.00000000000E+00 0.  1.
         14    1    6    6    0    0  0.21858718960E+02  0.13851758344E+02 -0.32450084797E+02  0.41505214216E+02  0.00000000000E+00 0. -1.
         -5    1    3    3    0  503  0.15715002123E+02 -0.38121649879E+02 -0.14701870577E+03  0.15276390715E+03  0.47000000000E+01 0.  1.
         11    1    4    4    0    0 -0.49213266044E+00  0.87476624419E+02 -0.83104848778E+03  0.83563986923E+03  0.00000000000E+00 0. -1.
        -12    1    4    4    0    0  0.49657977950E+02  0.16988891962E+02 -0.40690044591E+03  0.41027126406E+03  0.00000000000E+00 0.  1.
</event>
<event>
12    1  0.8407180E-002  0.1834812E+03  0.7818608E-02  0.1164926E+00
         21   -1    0    0  503  502  0.00000000000E+00  0.00000000000E+00  0.90344567060E+03  0.90344567060E+03  0.00000000000E+00 0. -1.
         21   -1    0    0  501  503 -0.00000000000E+00 -0.00000000000E+00 -0.55581082247E+02  0.55581082247E+02  0.00000000000E+00 0. -1.
          6    2    1    2  501    0  0.55834331708E+02  0.78827505077E+01  0.14432455636E+03  0.23195459830E+03  0.17260865492E+03 0.  0.
         24    2    3    3    0    0  0.11937388554E+02  0.40823320739E+02  0.15253314445E+03  0.17626354244E+03  0.77417255673E+02 0.  0.
         -6    2    1    2    0  502 -0.55834331708E+02 -0.78827505077E+01  0.70354003200E+03  0.72707215455E+03  0.17460163498E+03 0.  0.
        -24    2    5    5    0    0 -0.90899042106E+02  0.36764043878E+02  0.49646154383E+03  0.51230143860E+03  0.79777620380E+02 0.  0.
          5    1    3    3  501    0  0.43896943154E+02 -0.32940570232E+02 -0.82085880889E+01  0.55691055869E+02  0.47000000000E+01 0. -1.
        -13    1    4    4    0    0 -0.19707909540E+02  0.44385156464E+02  0.53585718649E+02  0.72317861251E+02  0.00000000000E+00 0.  1.
         14    1    4    4    0    0  0.31645298094E+02 -0.35618357247E+01  0.98947425797E+02  0.10394568118E+03  0.00000000000E+00 0. -1.
         -5    1    5    5    0  502  0.35064710398E+02 -0.44646794386E+02  0.20707848817E+03  0.21477071594E+03  0.47000000000E+01 0.  1.
         13    1    6    6    0    0 -0.69488041853E+02 -0.14025666448E+02  0.25892131741E+03  0.26845028569E+03  0.00000000000E+00 0. -1.
        -14    1    6    6    0    0 -0.21411000254E+02  0.50789710326E+02  0.23754022642E+03  0.24385115291E+03  0.00000000000E+00 0.  1.
</event>
<event>
12    1  0.8407180E-002  0.1967706E+03  0.7818608E-02  0.1152764E+00
         21   -1    0    0  503  502  0.00000000000E+00  0.00000000000E+00  0.23551702393E+02  0.23551702393E+02  0.00000000000E+00 0.  1.
         21   -1    0    0  501  503 -0.00000000000E+00 -0.00000000000E+00 -0.22214672305E+04  0.22214672305E+04  0.00000000000E+00 0.  1.
          6    2    1    2  501    0  0.36382951298E+02 -0.86712644767E+02 -0.16738552414E+04  0.16852351603E+04  0.17141579405E+03 0.  0.
         24    2    3    3    0    0  0.74935535306E+02 -0.45066851144E+02 -0.71631366354E+03  0.72600180122E+03  0.79542411746E+02 0.  0.
         -6    2    1    2    0  502 -0.36382951298E+02  0.86712644767E+02 -0.52406028670E+03  0.55978377259E+03  0.17284642329E+03 0.  0.
        -24    2    5    5    0    0  0.57948293203E+01 -0.10260023739E+02 -0.14323162685E+03  0.16451775864E+03  0.80074626720E+02 0.  0.
          5    1    3    3  501    0 -0.38552584007E+02 -0.41645793622E+02 -0.95754157781E+03  0.95923335904E+03  0.47000000000E+01 0. -1.
        -13    1    4    4    0    0 -0.32513769388E+01  0.34452648781E+01 -0.28238042039E+03  0.28242015354E+03  0.00000000000E+00 0.  1.
         14    1    4    4    0    0  0.78186912245E+02 -0.48512116022E+02 -0.43393324315E+03  0.44358164768E+03  0.00000000000E+00 0. -1.
         -5    1    5    5    0  502 -0.42177780619E+02  0.96972668506E+02 -0.38082865985E+03  0.39526601394E+03  0.47000000000E+01 0.  1.
         11    1    6    6    0    0 -0.21788046497E+01 -0.10085340441E+02 -0.15218091674E+03  0.15253030093E+03  0.00000000000E+00 0. -1.
        -12    1    6    6    0    0  0.79736339699E+01 -0.17468329809E+00  0.89492898886E+01  0.11987457714E+02  0.00000000000E+00 0.  1.
</event>
<event>
12    1  0.8407180E-002  0.2133270E+03  0.7818608E-02  0.1139105E+00
         21   -1    0    0  503  502  0.00000000000E+00  0.00000000000E+00  0.74315974351E+02  0.74315974351E+02  0.00000000000E+00 0. -1.
         21   -1    0    0  501  503 -0.00000000000E+00 -0.00000000000E+00 -0.11110989570E+04  0.11110989570E+04  0.00000000000E+00 0.  1.
          6    2    1    2  501    0 -0.63898296785E+01 -0.12467152640E+03 -0.91584733146E+03  0.94019293331E+03  0.17205405516E+03 0.  0.
         24    2    3    3    0    0  0.26780667211E+02 -0.14926611866E+03 -0.74489858935E+03  0.76426471426E+03  0.78924436827E+02 0.  0.
         -6    2    1    2    0  502  0.63898296785E+01  0.12467152640E+03 -0.12093565115E+03  0.24522199799E+03  0.17298721676E+03 0.  0.
        -24    2    5    5    0    0  0.26442677778E+02  0.11824804035E+03 -0.14981026417E+03  0.20917742604E+03  0.81426445705E+02 0.  0.
          5    1    3    3  501    0 -0.33170496890E+02  0.24594592258E+02 -0.17094874210E+03  0.17592821905E+03  0.47000000000E+01 0. -1.
        -11    1    4    4    0    0 -0.29905039890E+01  0.32565120291E+01 -0.12858973305E+03  0.12866571972E+03  0.00000000000E+00 0.  1.
         12    1    4    4    0    0  0.29771171200E+02 -0.15252263068E+03 -0.61630885630E+03  0.63559899454E+03  0.00000000000E+00 0. -1.
         -5    1    5    5    0  502 -0.20052848100E+02  0.64234860425E+01  0.28874613022E+02  0.36044571949E+02  0.47000000000E+01 0.  1.
         11    1    6    6    0    0  0.43846503728E+01  0.66302649970E+01  0.10142894301E+02  0.12886577421E+02  0.00000000000E+00 0. -1.
        -12    1    6    6    0    0  0.22058027405E+02  0.11161777536E+03 -0.15995315847E+03  0.19629084862E+03  0.00000000000E+00 0.  1.
</event>
<event>
12    1  0.8407180E-002  0.2168627E+03  0.7818608E-02  0.1136721E+00
         21   -1    0    0  503  502  0.00000000000E+00  0.00000000000E+00  0.11688030227E+03  0.11688030227E+03  0.00000000000E+00 0. -1.
         21   -1    0    0  501  503 -0.00000000000E+00 -0.00000000000E+00 -0.40022195371E+03  0.40022195371E+03  0.00000000000E+00 0. -1.
          6    2    1    2  501    0 -0.54925477564E+02  0.11755120080E+03 -0.16115353622E+03  0.26818585841E+03  0.17064026348E+03 0.  0.
         24    2    3    3    0    0  0.60209021218E+01  0.12944318165E+03 -0.10573692385E+03  0.18482536818E+03  0.78665946381E+02 0.  0.
         -6    2    1    2    0  502  0.54925477564E+02 -0.11755120080E+03 -0.12218811522E+03  0.24891639757E+03  0.17376519958E+03 0.  0.
        -24    2    5    5    0    0  0.53735171580E+01 -0.10193469492E+03 -0.14283484868E+03  0.19281247936E+03  0.79720144789E+02 0.  0.
          5    1    3    3  501    0 -0.60946379685E+02 -0.11891980849E+02 -0.55416612366E+02  0.83360490230E+02  0.47000000000E+01 0. -1.
        -11    1    4    4    0    0  0.25793364123E+02  0.38318424098E+02 -0.72241901672E+02  0.85746671162E+02  0.00000000000E+00 0.  1.
         12    1    4    4    0    0 -0.19772462001E+02  0.91124757551E+02 -0.33495022181E+02  0.99078697020E+02  0.00000000000E+00 0. -1.
         -5    1    5    5    0  502  0.49551960406E+02 -0.15616505883E+02  0.20646733461E+02  0.56103918211E+02  0.47000000000E+01 0.  1.
         11    1    6    6    0    0  0.64020885843E+01 -0.11552193789E+03 -0.13085190030E+03  0.17466689636E+03  0.00000000000E+00 0. -1.
        -12    1    6    6    0    0 -0.10285714263E+01  0.13587242968E+02 -0.11982948377E+02  0.18145583001E+02  0.00000000000E+00 0.  1.
</event>
<event>
12    1  0.8407180E-002  0.1813414E+03  0.7818608E-02  0.1166753E+00
         21   -1    0    0  501  502  0.00000000000E+00  0.00000000000E+00  0.96556324183E+03  0.96556324183E+03  0.00000000000E+00 0.  1.
         21   -1    0    0  502  503 -0.00000000000E+00 -0.00000000000E+00 -0.70842146268E+02  0.70842146268E+02  0.00000000000E+00 0.  1.
         -6    2    1    2    0  503  0.85226477132E+01 -0.54751520692E+02  0.73589231476E+02  0.19570406388E+03  0.17266829787E+03 0.  0.
        -24    2    3    3    0    0 -0.46040866000E+02 -0.62740625456E+02  0.83947172595E+02  0.13939793839E+03  0.79551932826E+02 0.  0.
          6    2    1    2  501    0 -0.85226477132E+01  0.54751520692E+02  0.82113186409E+03  0.84070132422E+03  0.17161239401E+03 0.  0.
         24    2    5    5    0    0 -0.41827152087E+02  0.87528718429E+02  0.47342138877E+03  0.48983354378E+03  0.79989387208E+02 0.  0.
          5    1    5    5  501    0  0.33304504373E+02 -0.32777197737E+02  0.34771047532E+03  0.35086778044E+03  0.47000000000E+01 0. -1.
        -11    1    6    6    0    0 -0.60453433654E+02  0.61780811991E+02  0.25833771708E+03  0.27241487191E+03  0.00000000000E+00 0.  1.
         12    1    6    6    0    0  0.18626281567E+02  0.25747906438E+02  0.21508367168E+03  0.21741867186E+03  0.00000000000E+00 0. -1.
         -5    1    3    3    0  503  0.54563513714E+02  0.79891047639E+01 -0.10357941118E+02  0.56306125492E+02  0.47000000000E+01 0.  1.
         13    1    4    4    0    0 -0.22052259200E+02  0.14332766030E+02  0.38905657881E+02  0.46961479247E+02  0.00000000000E+00 0. -1.
        -14    1    4    4    0    0 -0.23988606801E+02 -0.77073391486E+02  0.45041514713E+02  0.92436459144E+02  0.00000000000E+00 0.  1.
</event>
<event>
12    1  0.8407180E-002  0.2463586E+03  0.7818608E-02  0.1115630E+00
         21   -1    0    0  501  502  0.00000000000E+00  0.00000000000E+00  0.23923867537E+03  0.23923867537E+03  0.00000000000E+00 0. -1.
         21   -1    0    0  502  503 -0.00000000000E+00 -0.00000000000E+00 -0.25399363244E+03  0.25399363244E+03  0.00000000000E+00 0.  1.
         -6    2    1    2    0  503 -0.16913545403E+03 -0.50291482919E+02  0.13584786659E+01  0.24636232659E+03  0.17192008445E+03 0.  0.
        -24    2    3    3    0    0 -0.82872928862E+01  0.19034936343E+01 -0.26665518080E+01  0.77144309263E+02  0.76627876401E+02 0.  0.
          6    2    1    2  501    0  0.16913545403E+03  0.50291482919E+02 -0.16113435736E+02  0.24686998122E+03  0.17189854495E+03 0.  0.
         24    2    5    5    0    0  0.80078985986E+02  0.52837750907E+02 -0.68897949608E+02  0.14320787202E+03  0.80975892894E+02 0.  0.
          5    1    5    5  501    0  0.89056468040E+02 -0.25462679889E+01  0.52784513872E+02  0.10366210921E+03  0.47000000000E+01 0. -1.
        -11    1    6    6    0    0  0.14031968683E+02 -0.19330156284E+02 -0.28963574484E+02  0.37542505697E+02  0.00000000000E+00 0.  1.
         12    1    6    6    0    0  0.66047017303E+02  0.72167907191E+02 -0.39934375123E+02  0.10566536632E+03  0.00000000000E+00 0. -1.
         -5    1    3    3    0  503 -0.16084816114E+03 -0.52194976553E+02  0.40250304739E+01  0.16921801733E+03  0.47000000000E+01 0.  1.
         11    1    4    4    0    0  0.38112880003E+01 -0.31821246961E+02 -0.19545258610E+02  0.37538444407E+02  0.00000000000E+00 0. -1.
        -12    1    4    4    0    0 -0.12098580887E+02  0.33724740595E+02  0.16878706802E+02  0.39605864856E+02  0.00000000000E+00 0.  1.
</event>
<event>
12    1  0.8407180E-002  0.2051819E+03  0.7818608E-02  0.1149015E+00
         21   -1    0    0  501  502  0.00000000000E+00  0.00000000000E+00  0.38649709068E+03  0.38649709068E+03  0.00000000000E+00 0.  1.
         21   -1    0    0  502  503 -0.00000000000E+00 -0.00000000000E+00 -0.11097352455E+03  0.11097352455E+03  0.00000000000E+00 0.  1.
         -6    2    1    2    0  503  0.30265869962E+02 -0.71081007657E+02  0.55090897777E+02  0.19632252492E+03  0.17186911950E+03 0.  0.
        -24    2    3    3    0    0  0.28650802959E+02  0.35776096530E+02  0.32711419840E+02  0.87034006816E+02  0.66363271178E+02 0.  0.
          6    2    1    2  501    0 -0.30265869962E+02  0.71081007657E+02  0.22043266835E+03  0.30114809032E+03  0.19008176791E+03 0.  0.
         24    2    5    5    0    0 -0.29865748671E+02 -0.35578300124E+02  0.14189428797E+03  0.16860852933E+03  0.78339446137E+02 0.  0.
          5    1    5    5  501    0 -0.40012129197E+00  0.10665930778E+03  0.78538380384E+02  0.13253956099E+03  0.47000000000E+01 0. -1.
        -11    1    6    6    0    0 -0.82196507822E+01  0.73361937944E+01 -0.63849224911E+01  0.12733798867E+02  0.00000000000E+00 0.  1.
         12    1    6    6    0    0 -0.21646097888E+02 -0.42914493918E+02  0.14827921046E+03  0.15587473046E+03  0.00000000000E+00 0. -1.
         -5    1    3    3    0  503  0.16150670035E+01 -0.10685710419E+03  0.22379477938E+02  0.10928851810E+03  0.47000000000E+01 0.  1.
         11    1    4    4    0    0 -0.10850008944E+01  0.41374486375E+02  0.38152269955E+02  0.56290505883E+02  0.00000000000E+00 0. -1.
        -12    1    4    4    0    0  0.29735803853E+02 -0.55983898453E+01 -0.54408501155E+01  0.30743500933E+02  0.00000000000E+00 0.  1.
</event>
<event>
12    1  0.8407180E-002  0.2974683E+03  0.7818608E-02  0.1087079E+00
         21   -1    0    0  503  502  0.00000000000E+00  0.00000000000E+00  0.79506948733E+03  0.79506948733E+03  0.00000000000E+00 0. -1.
         21   -1    0    0  501  503 -0.00000000000E+00 -0.00000000000E+00 -0.11571968185E+03  0.11571968185E+03  0.00000000000E+00 0.  1.
          6    2    1    2  501    0  0.14546041730E+03  0.18996692218E+03  0.44163792144E+03  0.53000792833E+03  0.16916910452E+03 0.  0.
         24    2    3    3    0    0  0.78606714955E+01  0.82348887131E+02  0.21536471217E+03  0.24411111697E+03  0.79781882751E+02 0.  0.
         -6    2    1    2    0  502 -0.14546041730E+03 -0.18996692218E+03  0.23771188404E+03  0.38078124084E+03  0.17675194209E+03 0.  0.
        -24    2    5    5    0    0 -0.16643454842E+03 -0.11101323385E+03  0.16064618083E+03  0.26837656260E+03  0.78704427712E+02 0.  0.
          5    1    3    3  501    0  0.13759974580E+03  0.10761803505E+03  0.22627320927E+03  0.28589681136E+03  0.47000000000E+01 0. -1.
        -13    1    4    4    0    0 -0.74838492732E+01  0.61173556395E+02  0.58137903977E+02  0.84724423166E+02  0.00000000000E+00 0.  1.
         14    1    4    4    0    0  0.15344520769E+02  0.21175330736E+02  0.15722680819E+03  0.15938669381E+03  0.00000000000E+00 0. -1.
         -5    1    5    5    0  502  0.20974131120E+02 -0.78953688327E+02  0.77065703215E+02  0.11240467823E+03  0.47000000000E+01 0.  1.
         13    1    6    6    0    0 -0.12524107507E+03 -0.56402320274E+02  0.14181109750E+03  0.19742577337E+03  0.00000000000E+00 0. -1.
        -14    1    6    6    0    0 -0.41193473345E+02 -0.54610913581E+02  0.18835083329E+02  0.70950789230E+02  0.00000000000E+00 0.  1.
</event>
<event>
12    1  0.8407180E-002  0.2750827E+03  0.7818608E-02  0.1098677E+00
         21   -1    0    0  501  502  0.00000000000E+00  0.00000000000E+00  0.88803038119E+02  0.88803038119E+02  0.00000000000E+00 0.  1.
         21   -1    0    0  502  503 -0.00000000000E+00 -0.00000000000E+00 -0.94237674792E+03  0.94237674792E+03  0.00000000000E+00 0.  1.
         -6    2    1    2    0  503 -0.95808985231E+02  0.19157298828E+03 -0.26335972980E+03  0.38082650405E+03  0.17260042705E+03 0.  0.
        -24    2    3    3    0    0 -0.44697747647E+02  0.12934186114E+03 -0.10542869144E+03  0.20348678862E+03  0.10753817218E+03 0.  0.
          6    2    1    2  501    0  0.95808985231E+02 -0.19157298828E+03 -0.59021398000E+03  0.65035328199E+03  0.16949123198E+03 0.  0.
         24    2    5    5    0    0  0.77492055605E+02 -0.80598829312E+02 -0.19498920859E+03  0.23940865822E+03  0.82428903886E+02 0.  0.
          5    1    5    5  501    0  0.18316929626E+02 -0.11097415897E+03 -0.39522477140E+03  0.41094462376E+03  0.47000000000E+01 0. -1.
        -11    1    6    6    0    0  0.76606369885E+02 -0.77619282890E+02 -0.11186945602E+03  0.15623080418E+03  0.00000000000E+00 0.  1.
         12    1    6    6    0    0  0.88568571942E+00 -0.29795464222E+01 -0.83119752571E+02  0.83177854045E+02  0.00000000000E+00 0. -1.
         -5    1    3    3    0  503 -0.51111237583E+02  0.62231127138E+02 -0.15793103836E+03  0.17733971543E+03  0.47000000000E+01 0.  1.
         13    1    4    4    0    0  0.34977171963E+02  0.27745751712E+02 -0.32285529793E+02  0.55096140796E+02  0.00000000000E+00 0. -1.
        -14    1    4    4    0    0 -0.79674919611E+02  0.10159610943E+03 -0.73143161650E+02  0.14839064782E+03  0.00000000000E+00 0.  1.
</event>
<event>
12    1  0.8407180E-002  0.1758872E+03  0.7818608E-02  0.1172068E+00
         21   -1    0    0  501  502  0.00000000000E+00  0.00000000000E+00  0.11037193728E+03  0.11037193728E+03  0.00000000000E+00 0.  1.
         21   -1    0    0  502  503 -0.00000000000E+00 -0.00000000000E+00 -0.32409697326E+03  0.32409697326E+03  0.00000000000E+00 0.  1.
         -6    2    1    2    0  503 -0.26353641440E+02 -0.18709638928E+02 -0.18778267518E+03  0.25667887771E+03  0.17198008070E+03 0.  0.
        -24    2    3    3    0    0 -0.56377644810E+02  0.29717494824E+02 -0.68152028240E+02  0.12408849438E+03  0.81802733160E+02 0.  0.
          6    2    1    2  501    0  0.26353641440E+02  0.18709638928E+02 -0.25942360803E+02  0.17779003284E+03  0.17289223432E+03 0.  0.
         24    2    5    5    0    0 -0.17637816621E+02  0.12565472093E+02 -0.78409503758E+02  0.10888509645E+03  0.72380455139E+02 0.  0.
          5    1    5    5  501    0  0.43991458060E+02  0.61441668351E+01  0.52467142954E+02  0.68904936385E+02  0.47000000000E+01 0. -1.
        -11    1    6    6    0    0 -0.68375698082E+01  0.21126434904E+02  0.62841504370E+01  0.23077459985E+02  0.00000000000E+00 0.  1.
         12    1    6    6    0    0 -0.10800246812E+02 -0.85609628111E+01 -0.84693654195E+02  0.85807636469E+02  0.00000000000E+00 0. -1.
         -5    1    3    3    0  503  0.30024003370E+02 -0.48427133752E+02 -0.11963064694E+03  0.13259038332E+03  0.47000000000E+01 0.  1.
         13    1    4    4    0    0 -0.63513778830E+01  0.49431207455E+02 -0.35365984692E+02  0.61110859466E+02  0.00000000000E+00 0. -1.
        -14    1    4    4    0    0 -0.50026266927E+02 -0.19713712631E+02 -0.32786043548E+02  0.62977634918E+02  0.00000000000E+00 0.  1.
</event>
<event>
12    1  0.8407180E-002  0.2609088E+03  0.7818608E-02  0.1106718E+00
         21   -1    0    0  501  502  0.00000000000E+00  0.00000000000E+00  0.14255039659E+03  0.14255039659E+03  0.00000000000E+00 0. -1.
         21   -1    0    0  502  503 -0.00000000000E+00 -0.00000000000E+00 -0.85288848391E+03  0.85288848391E+03  0.00000000000E+00 0.  1.
         -6    2    1    2    0  503  0.96457451211E+02 -0.17038000263E+03 -0.68629956618E+03  0.73422101227E+03  0.17245293599E+03 0.  0.
        -24    2    3    3    0    0  0.41832101744E+02 -0.97227814593E+01 -0.23133322927E+03  0.24861713127E+03  0.80317854694E+02 0.  0.
          6    2    1    2  501    0 -0.96457451211E+02  0.17038000263E+03 -0.24038521142E+02  0.26121786823E+03  0.17124117201E+03 0.  0.
         24    2    5    5    0    0  0.22683104631E+02  0.64635857117E+02 -0.11585667850E+02  0.10136337216E+03  0.73810488794E+02 0.  0.
          5    1    5    5  501    0 -0.11914055584E+03  0.10574414551E+03 -0.12452853292E+02  0.15985449606E+03  0.47000000000E+01 0. -1.
        -11    1    6    6    0    0  0.12409523511E+02 -0.12445403925E+02  0.10566297079E+02  0.20506852186E+02  0.00000000000E+00 0.  1.
         12    1    6    6    0    0  0.10273581120E+02  0.77081261042E+02 -0.22151964929E+02  0.80856519979E+02  0.00000000000E+00 0. -1.
         -5    1    3    3    0  503  0.54625349467E+02 -0.16065722117E+03 -0.45496633691E+03  0.48560388100E+03  0.47000000000E+01 0.  1.
         13    1    4    4    0    0  0.26298546486E+02 -0.26203564255E+02 -0.35130259213E+02  0.51111402244E+02  0.00000000000E+00 0. -1.
        -14    1    4    4    0    0  0.15533555259E+02  0.16480782796E+02 -0.19620297005E+03  0.19750572903E+03  0.00000000000E+00 0.  1.
</event>
<event>
12    1  0.8407180E-002  0.5298197E+03  0.7818608E-02  0.1006282E+00
         21   -1    0    0  501  502  0.00000000000E+00  0.00000000000E+00  0.76524596001E+03  0.76524596001E+03  0.00000000000E+00 0.  1.
         21   -1    0    0  502  503 -0.00000000000E+00 -0.00000000000E+00 -0.16540620184E+04  0.16540620184E+04  0.00000000000E+00 0. -1.
         -6    2    1    2    0  503  0.28570457102E+03  0.41184222748E+03 -0.15115525913E+04  0.16016835536E+04  0.17134131799E+03 0.  0.
        -24    2    3    3    0    0  0.19852993477E+03  0.31455504950E+03 -0.91796113704E+03  0.99387016379E+03  0.82257152918E+02 0.  0.
          6    2    1    2  501    0 -0.28570457102E+03 -0.41184222748E+03  0.62273653292E+03  0.81762442484E+03  0.17166184325E+03 0.  0.
         24    2    5    5    0    0 -0.27232286729E+03 -0.41366056352E+03  0.62690873723E+03  0.80272900174E+03  0.78003074088E+02 0.  0.
          5    1    5    5  501    0 -0.13381703727E+02  0.18183360437E+01 -0.41722043020E+01  0.14895423100E+02  0.47000000000E+01 0. -1.
        -13    1    6    6    0    0 -0.51607910778E+02 -0.86345230884E+02  0.18179348900E+03  0.20776849615E+03  0.00000000000E+00 0.  1.
         14    1    6    6    0    0 -0.22071495651E+03 -0.32731533264E+03  0.44511524823E+03  0.59496050559E+03  0.00000000000E+00 0. -1.
         -5    1    3    3    0  503  0.87174636243E+02  0.97287177980E+02 -0.59359145430E+03  0.60781338980E+03  0.47000000000E+01 0.  1.
         13    1    4    4    0    0  0.17349289490E+03  0.21912475963E+03 -0.72819588545E+03  0.77999018741E+03  0.00000000000E+00 0. -1.
        -14    1    4    4    0    0  0.25037039874E+02  0.95430289872E+02 -0.18976525158E+03  0.21387997639E+03  0.00000000000E+00 0.  1.
</event>
<event>
12    1  0.8407180E-002  0.2177467E+03  0.7818608E-02  0.1135652E+00
         21   -1    0    0  503  502  0.00000000000E+00  0.00000000000E+00  0.14978976609E+04  0.14978976609E+04  0.00000000000E+00 0. -1.
         21   -1    0    0  501  503 -0.00000000000E+00 -0.00000000000E+00 -0.31745875726E+02  0.31745875726E+02  0.00000000000E+00 0. -1.
          6    2    1    2  501    0  0.83430477426E+02  0.10540568792E+03  0.67938923620E+03  0.71330479380E+03  0.17077175111E+03 0.  0.
         24    2    3    3    0    0  0.46558323701E+02  0.12008993626E+03  0.34950024672E+03  0.38100369803E+03  0.80150640396E+02 0.  0.
         -6    2    1    2    0  502 -0.83430477426E+02 -0.10540568792E+03  0.78676254894E+03  0.81633874280E+03  0.17129690880E+03 0.  0.
        -24    2    5    5    0    0 -0.60680630233E+02 -0.68670251358E+02  0.27245672008E+03  0.30019959155E+03  0.86541251109E+02 0.  0.
          5    1    3    3  501    0  0.36872153725E+02 -0.14684248338E+02  0.32988898948E+03  0.33230109577E+03  0.47000000000E+01 0. -1.
        -13    1    4    4    0    0  0.62414211688E+02  0.53095670940E+02  0.21054342796E+03  0.22592746435E+03  0.00000000000E+00 0.  1.
         14    1    4    4    0    0 -0.15855887987E+02  0.66994265321E+02  0.13895681877E+03  0.15507623368E+03  0.00000000000E+00 0. -1.
         -5    1    5    5    0  502 -0.22749847193E+02 -0.36735436566E+02  0.51430582886E+03  0.51613915125E+03  0.47000000000E+01 0.  1.
         11    1    6    6    0    0 -0.10854748810E+01  0.18450807860E+02  0.24328450261E+02  0.30552971353E+02  0.00000000000E+00 0. -1.
        -12    1    6    6    0    0 -0.59595155352E+02 -0.87121059218E+02  0.24812826982E+03  0.26964662020E+03  0.00000000000E+00 0.  1.
</event>
<event>
12    1  0.8407180E-002  0.1769865E+03  0.7818608E-02  0.1170830E+00
         21   -1    0    0  501  502  0.00000000000E+00  0.00000000000E+00  0.22355155135E+03  0.22355155135E+03  0.00000000000E+00 0.  1.
         21   -1    0    0  502  503 -0.00000000000E+00 -0.00000000000E+00 -0.22835999435E+03  0.22835999435E+03  0.00000000000E+00 0.  1.
         -6    2    1    2    0  503  0.34135422077E+02 -0.19755126496E+02 -0.14306289192E+03  0.22757686485E+03  0.17253621738E+03 0.  0.
        -24    2    3    3    0    0  0.52472040545E+02  0.35509002110E+02 -0.48001373770E+02  0.11600116086E+03  0.84486289817E+02 0.  0.
          6    2    1    2  501    0 -0.34135422077E+02  0.19755126496E+02  0.13825444893E+03  0.22433468085E+03  0.17220994257E+03 0.  0.
         24    2    5    5    0    0  0.38544957298E+02  0.49264897721E+01  0.11603115226E+03  0.14675703633E+03  0.81021079876E+02 0.  0.
          5    1    5    5  501    0 -0.72680379376E+02  0.14828636724E+02  0.22223296669E+02  0.77577644513E+02  0.47000000000E+01 0. -1.
        -13    1    6    6    0    0 -0.89090812310E+01 -0.21519930890E+01 -0.89944302496E+01  0.12841439878E+02  0.00000000000E+00 0.  1.
         14    1    6    6    0    0  0.47454038529E+02  0.70784828611E+01  0.12502558251E+03  0.13391559646E+03  0.00000000000E+00 0. -1.
         -5    1    3    3    0  503 -0.18336618468E+02 -0.55264128606E+02 -0.95061518154E+02  0.11157570399E+03  0.47000000000E+01 0.  1.
         13    1    4    4    0    0 -0.15031874666E+02  0.96733860315E+01 -0.39332793327E+02  0.43204169755E+02  0.00000000000E+00 0. -1.
        -14    1    4    4    0    0  0.67503915211E+02  0.25835616079E+02 -0.86685804427E+01  0.72796991105E+02  0.00000000000E+00 0.  1.
</event>
<event>
12    1  0.8407180E-002  0.2763479E+03  0.7818608E-02  0.1097763E+00
         21   -1    0    0  503  502  0.00000000000E+00  0.00000000000E+00  0.47033546696E+02  0.47033546696E+02  0.00000000000E+00 0.  1.
         21   -1    0    0  501  503 -0.00000000000E+00 -0.00000000000E+00 -0.18465809506E+04  0.18465809506E+04  0.00000000000E+00 0. -1.
          6    2    1    2  501    0  0.11261562059E+03 -0.18312199404E+03 -0.12313187631E+04  0.12619485193E+04  0.17364396400E+03 0.  0.
         24    2    3    3    0    0  0.21144950945E+02 -0.14012796784E+03 -0.55787240622E+03  0.58094377973E+03  0.78683525956E+02 0.  0.
         -6    2    1    2    0  502 -0.11261562059E+03  0.18312199404E+03 -0.56822864082E+03  0.63166597803E+03  0.17292245909E+03 0.  0.
        -24    2    5    5    0    0 -0.49786294687E+02  0.13717053789E+02 -0.19392275455E+03  0.21600680940E+03  0.79912916801E+02 0.  0.
          5    1    3    3  501    0  0.91470669642E+02 -0.42994026197E+02 -0.67344635686E+03  0.68100473953E+03  0.47000000000E+01 0. -1.
        -11    1    4    4    0    0 -0.52773829332E+00 -0.52242409368E+02 -0.87256321479E+02  0.10170159036E+03  0.00000000000E+00 0.  1.
         12    1    4    4    0    0  0.21672689238E+02 -0.87885558476E+02 -0.47061608475E+03  0.47924218937E+03  0.00000000000E+00 0. -1.
         -5    1    5    5    0  502 -0.62829325900E+02  0.16940494025E+03 -0.37430588626E+03  0.41565916863E+03  0.47000000000E+01 0.  1.
         13    1    6    6    0    0 -0.26837654490E+02  0.37664613534E+01 -0.18846718092E+03  0.19040568325E+03  0.00000000000E+00 0. -1.
        -14    1    6    6    0    0 -0.22948640197E+02  0.99505924357E+01 -0.54555736347E+01  0.25601126155E+02  0.00000000000E+00 0.  1.
</event>
<event>
12    1  0.8407180E-002  0.1935169E+03  0.7818608E-02  0.1156089E+00
         21   -1    0    0  501  502  0.00000000000E+00  0.00000000000E+00  0.43743271306E+03  0.43743271306E+03  0.00000000000E+00 0.  1.
         21   -1    0    0  502  503 -0.00000000000E+00 -0.00000000000E+00 -0.19647845187E+03  0.19647845187E+03  0.00000000000E+00 0.  1.
         -6    2    1    2    0  503 -0.46209665931E+02  0.75040915969E+02 -0.11876555512E+03  0.22705519300E+03  0.17228560964E+03 0.  0.
        -24    2    3    3    0    0 -0.93735437194E+02  0.58954810474E+02 -0.60069169883E+02  0.14969359164E+03  0.80857061193E+02 0.  0.
          6    2    1    2  501    0  0.46209665931E+02 -0.75040915969E+02  0.35971981631E+03  0.40685597193E+03  0.16842494873E+03 0.  0.
         24    2    5    5    0    0  0.94214663828E+02 -0.38293471345E+02  0.24733139289E+03  0.27915279175E+03  0.80066662249E+02 0.  0.
          5    1    5    5  501    0 -0.48004997898E+02 -0.36747444624E+02  0.11238842342E+03  0.12770318018E+03  0.47000000000E+01 0. -1.
        -11    1    6    6    0    0  0.48183439202E+02 -0.33915733728E+02  0.52529568461E+02  0.78938434050E+02  0.00000000000E+00 0.  1.
         12    1    6    6    0    0  0.46031224626E+02 -0.43777376168E+01  0.19480182443E+03  0.20021435770E+03  0.00000000000E+00 0. -1.
         -5    1    3    3    0  503  0.47525771263E+02  0.16086105495E+02 -0.58696385238E+02  0.77361601354E+02  0.47000000000E+01 0.  1.
         11    1    4    4    0    0  0.81623806325E+01  0.25909398996E+02 -0.60038007271E+00  0.27171342811E+02  0.00000000000E+00 0. -1.
        -12    1    4    4    0    0 -0.10189781783E+03  0.33045411478E+02 -0.59468789811E+02  0.12252224883E+03  0.00000000000E+00 0.  1.
</event>
<event>
12    1  0.8407180E-002  0.2423490E+03  0.7818608E-02  0.1119385E+00
         21   -1    0    0  501  502  0.00000000000E+00  0.00000000000E+00  0.26250415462E+03  0.26250415462E+03  0.00000000000E+00 0. -1.
         21   -1    0    0  502  503 -0.00000000000E+00 -0.00000000000E+00 -0.21756396639E+03  0.21756396639E+03  0.00000000000E+00 0.  1.
         -6    2    1    2    0  503  0.69944434603E+02 -0.15522584816E+03  0.27766310891E+02  0.23711137778E+03  0.16267621087E+03 0.  0.
        -24    2    3    3    0    0  0.35910694873E+02 -0.61000543045E+02  0.71238940176E+02  0.12780143742E+03  0.79041612781E+02 0.  0.
          6    2    1    2  501    0 -0.69944434603E+02  0.15522584816E+03  0.17173877336E+02  0.24295674324E+03  0.17246956008E+03 0.  0.
         24    2    5    5    0    0 -0.93819128737E+02  0.88063081997E+02 -0.35375164765E+02  0.15427568548E+03  0.77410913452E+02 0.  0.
          5    1    5    5  501    0  0.23874694135E+02  0.67162766161E+02  0.52549042101E+02  0.88681057753E+02  0.47000000000E+01 0. -1.
        -11    1    6    6    0    0 -0.54488468316E+02  0.92785260653E+02 -0.39105551190E+02  0.11448730020E+03  0.00000000000E+00 0.  1.
         12    1    6    6    0    0 -0.39330660421E+02 -0.47221786555E+01  0.37303864252E+01  0.39788385281E+02  0.00000000000E+00 0. -1.
         -5    1    3    3    0  503  0.34033739730E+02 -0.94225305114E+02 -0.43472629285E+02  0.10930994036E+03  0.47000000000E+01 0.  1.
         13    1    4    4    0    0  0.31530905344E+02 -0.44462884749E+02 -0.29690717578E-01  0.54508228678E+02  0.00000000000E+00 0. -1.
        -14    1    4    4    0    0  0.43797895289E+01 -0.16537658295E+02  0.71268630893E+02  0.73293208742E+02  0.00000000000E+00 0.  1.
</event>
<event>
12    1  0.8407180E-002  0.1812219E+03  0.7818608E-02  0.1168721E+00
         21   -1    0    0  503  502  0.00000000000E+00  0.00000000000E+00  0.32235583585E+02  0.32235583585E+02  0.00000000000E+00 0.  1.
         21   -1    0    0  501  503 -0.00000000000E+00 -0.00000000000E+00 -0.10487988349E+04  0.10487988349E+04  0.00000000000E+00 0.  1.
          6    2    1    2  501    0  0.16271698319E+02  0.14868019287E+02 -0.66632103766E+03  0.69052522690E+03  0.17987645089E+03 0.  0.
         24    2    3    3    0    0  0.24845985351E+02  0.72290890248E+02 -0.30329670755E+03  0.32285736216E+03  0.80029292689E+02 0.  0.
         -6    2    1    2    0  502 -0.16271698319E+02 -0.14868019287E+02 -0.35024221365E+03  0.39050919158E+03  0.17129505050E+03 0.  0.
        -24    2    5    5    0    0 -0.20787912635E+02 -0.71905370572E+02 -0.26358852847E+03  0.28656398107E+03  0.83889709012E+02 0.  0.
          5    1    3    3  501    0 -0.85742870313E+01 -0.57422870961E+02 -0.36302433011E+03  0.36766786474E+03  0.47000000000E+01 0. -1.
        -11    1    4    4    0    0 -0.14480256960E+02  0.69776405057E+02 -0.19464436875E+03  0.20727965368E+03  0.00000000000E+00 0.  1.
         12    1    4    4    0    0  0.39326242310E+02  0.25144851913E+01 -0.10865233880E+03  0.11557770848E+03  0.00000000000E+00 0. -1.
         -5    1    5    5    0  502  0.45162143159E+01  0.57037351285E+02 -0.86653685179E+02  0.10394521051E+03  0.47000000000E+01 0.  1.
         11    1    6    6    0    0  0.18599899893E+02  0.10305046304E+02 -0.48804217649E+02  0.53235344609E+02  0.00000000000E+00 0. -1.
        -12    1    6    6    0    0 -0.39387812528E+02 -0.82210416876E+02 -0.21478431082E+03  0.23332863646E+03  0.00000000000E+00 0.  1.
</event>
<event>
12    1  0.8407180E-002  0.1883661E+03  0.7818608E-02  0.1161559E+00
         21   -1    0    0  501  502  0.00000000000E+00  0.00000000000E+00  0.98169579093E+03  0.98169579093E+03  0.00000000000E+00 0. -1.
         21   -1    0    0  502  503 -0.00000000000E+00 -0.00000000000E+00 -0.37174909080E+02  0.37174909080E+02  0.00000000000E+00 0. -1.
         -6    2    1    2    0  503  0.22897902530E+02 -0.74252329702E+02  0.59206142703E+03  0.61923406801E+03  0.16394015738E+03 0.  0.
        -24    2    3    3    0    0  0.53072340712E+01 -0.31824363106E+02  0.54543373959E+03  0.55361550964E+03  0.89169565522E+02 0.  0.
          6    2    1    2  501    0 -0.22897902530E+02  0.74252329702E+02  0.35245945481E+03  0.39963663199E+03  0.17159268031E+03 0.  0.
         24    2    5    5    0    0 -0.16589647394E+01 -0.19007316801E+02  0.10161590352E+03  0.13113517693E+03  0.80663576196E+02 0.  0.
          5    1    5    5  501    0 -0.21238937791E+02  0.93259646503E+02  0.25084355129E+03  0.26850145506E+03  0.47000000000E+01 0. -1.
        -13    1    6    6    0    0  0.25372231427E+02 -0.38097700377E+02  0.78145616539E+02  0.90564464808E+02  0.00000000000E+00 0.  1.
         14    1    6    6    0    0 -0.27031196166E+02  0.19090383576E+02  0.23470286982E+02  0.40570712124E+02  0.00000000000E+00 0. -1.
         -5    1    3    3    0  503  0.17590668459E+02 -0.42427966596E+02  0.46627687447E+02  0.65618558373E+02  0.47000000000E+01 0.  1.
         13    1    4    4    0    0  0.38918309499E+02 -0.67402703123E+01  0.12491969614E+03  0.13101525309E+03  0.00000000000E+00 0. -1.
        -14    1    4    4    0    0 -0.33611075428E+02 -0.25084092794E+02  0.42051404344E+03  0.42260025655E+03  0.00000000000E+00 0.  1.
</event>
<event>
12    1  0.8407180E-002  0.1854628E+03  0.7818608E-02  0.1163705E+00
         21   -1    0    0  501  502  0.00000000000E+00  0.00000000000E+00  0.33983467299E+03  0.33983467299E+03  0.00000000000E+00 0.  1.
         21   -1    0    0  502  503 -0.00000000000E+00 -0.00000000000E+00 -0.46348950219E+03  0.46348950219E+03  0.00000000000E+00 0.  1.
         -6    2    1    2    0  503  0.49821370647E+02  0.37391598240E+01 -0.41831718604E+03  0.45758685933E+03  0.17860659396E+03 0.  0.
        -24    2    3    3    0    0  0.79940771730E+02  0.46841168517E+02 -0.21800534691E+03  0.25043502040E+03  0.81281892884E+02 0.  0.
          6    2    1    2  501    0 -0.49821370647E+02 -0.37391598240E+01  0.29466235684E+03  0.34573731585E+03  0.17381667568E+03 0.  0.
         24    2    5    5    0    0 -0.36886716233E+02  0.46989458960E+02  0.26541963950E+03  0.28558812994E+03  0.86858251419E+02 0.  0.
          5    1    5    5  501    0 -0.12934654414E+02 -0.50728618784E+02  0.29242717335E+02  0.60149185910E+02  0.47000000000E+01 0. -1.
        -11    1    6    6    0    0 -0.29086103977E+02 -0.20041597727E+02  0.12331221360E+03  0.12827146646E+03  0.00000000000E+00 0.  1.
         12    1    6    6    0    0 -0.78006122559E+01  0.67031056686E+02  0.14210742590E+03  0.15731666348E+03  0.00000000000E+00 0. -1.
         -5    1    3    3    0  503 -0.30119401084E+02 -0.43102008693E+02 -0.20031183913E+03  0.20715183893E+03  0.47000000000E+01 0.  1.
         13    1    4    4    0    0  0.14646535735E+01  0.40514369589E+02 -0.10633596437E+03  0.11380200645E+03  0.00000000000E+00 0. -1.
        -14    1    4    4    0    0  0.78476118157E+02  0.63267989279E+01 -0.11166938254E+03  0.13663301395E+03  0.00000000000E+00 0.  1.
</event>
<event>
12    1  0.8407180E-002  0.1937475E+03  0.7818608E-02  0.1155149E+00
         21   -1    0    0  501  502  0.00000000000E+00  0.00000000000E+00  0.10983236499E+03  0.10983236499E+03  0.00000000000E+00 0.  1.
         21   -1    0    0  502  503 -0.00000000000E+00 -0.00000000000E+00 -0.35428478157E+03  0.35428478157E+03  0.00000000000E+00 0. -1.
         -6    2    1    2    0  503  0.77986536051E+02 -0.45748280077E+02 -0.16614198779E+03  0.25514199417E+03  0.17122929699E+03 0.  0.
        -24    2    3    3    0    0  0.79142833780E+02  0.26580176926E+02 -0.12948715079E+03  0.17391139776E+03  0.80673156058E+02 0.  0.
          6    2    1    2  501    0 -0.77986536051E+02  0.45748280077E+02 -0.78310428787E+02  0.20897515240E+03  0.17135718872E+03 0.  0.
         24    2    5    5    0    0 -0.73317397489E+02 -0.26844453232E+02 -0.78764441565E+02  0.13607932322E+03  0.78852263812E+02 0.  0.
          5    1    5    5  501    0 -0.46691385627E+01  0.72592733308E+02  0.45401277848E+00  0.72895829179E+02  0.47000000000E+01 0. -1.
        -13    1    6    6    0    0 -0.21292059294E+02  0.15001170027E+02  0.73981546624E+01  0.27076181111E+02  0.00000000000E+00 0.  1.
         14    1    6    6    0    0 -0.52025338195E+02 -0.41845623259E+02 -0.86162596228E+02  0.10900314211E+03  0.00000000000E+00 0. -1.
         -5    1    3    3    0  503 -0.11562977286E+01 -0.72328457003E+02 -0.36654836996E+02  0.81230596403E+02  0.47000000000E+01 0.  1.
         11    1    4    4    0    0  0.35419035236E+02  0.53914229386E+02 -0.73694265064E+02  0.97939251022E+02  0.00000000000E+00 0. -1.
        -12    1    4    4    0    0  0.43723798544E+02 -0.27334052460E+02 -0.55792885726E+02  0.75972146742E+02  0.00000000000E+00 0.  1.
</event>
<event>
12    1  0.8407180E-002  0.1927280E+03  0.7818608E-02  0.1156366E+00
         21   -1    0    0  503  502  0.00000000000E+00  0.00000000000E+00  0.57494086435E+03  0.57494086435E+03  0.00000000000E+00 0. -1.
         21   -1    0    0  501  503 -0.00000000000E+00 -0.00000000000E+00 -0.70686279748E+02  0.70686279748E+02  0.00000000000E+00 0. -1.
          6    2    1    2  501    0  0.50113194097E+02 -0.72246687313E+02  0.35165905398E+03  0.40100892085E+03  0.17150261895E+03 0.  0.
         24    2    3    3    0    0  0.55579898120E+02 -0.85327432154E+02  0.36119370218E+03  0.38328915069E+03  0.77972987530E+02 0.  0.
         -6    2    1    2    0  502 -0.50113194097E+02  0.72246687313E+02  0.15259553062E+03  0.24461822324E+03  0.16976973561E+03 0.  0.
        -24    2    5    5    0    0 -0.21359941201E+02  0.11286089043E+03  0.99024330699E+02  0.17135004115E+03  0.79757074017E+02 0.  0.
          5    1    3    3  501    0 -0.54667040233E+01  0.13080744841E+02 -0.95346481996E+01  0.17719770167E+02  0.47000000000E+01 0. -1.
        -11    1    4    4    0    0  0.12099652231E+02  0.14752695679E+02  0.49728604832E+02  0.53263287097E+02  0.00000000000E+00 0.  1.
         12    1    4    4    0    0  0.43480245889E+02 -0.10008012783E+03  0.31146509735E+03  0.33002586359E+03  0.00000000000E+00 0. -1.
         -5    1    5    5    0  502 -0.28753252895E+02 -0.40614203113E+02  0.53571199918E+02  0.73268182093E+02  0.47000000000E+01 0.  1.
         11    1    6    6    0    0  0.11296121872E+02  0.77831066542E+02  0.23789061998E+02  0.82165666547E+02  0.00000000000E+00 0. -1.
        -12    1    6    6    0    0 -0.32656063073E+02  0.35029823884E+02  0.75235268700E+02  0.89184374602E+02  0.00000000000E+00 0.  1.
</event>
<event>
12    1  0.8407180E-002  0.2859476E+03  0.7818608E-02  0.1092605E+00
         21   -1    0    0  501  502  0.00000000000E+00  0.00000000000E+00  0.66533336365E+03  0.66533336365E+03  0.00000000000E+00 0.  1.
         21   -1    0    0  502  503 -0.00000000000E+00 -0.00000000000E+00 -0.16196515804E+03  0.16196515804E+03  0.00000000000E+00 0.  1.
         -6    2    1    2    0  503  0.53949548003E+02 -0.22077517793E+03  0.47203756544E+02  0.28891944465E+03  0.17202911947E+03 0.  0.
        -24    2    3    3    0    0  0.30771532937E+02 -0.13112190805E+03  0.95760530717E+02  0.18425436213E+03  0.81484653211E+02 0.  0.
          6    2    1    2  501    0 -0.53949548003E+02  0.22077517793E+03  0.45616444907E+03  0.53837907704E+03  0.17353326219E+03 0.  0.
         24    2    5    5    0    0 -0.35468743233E+02  0.23875311668E+03  0.38241133647E+03  0.46010802209E+03  0.84852102240E+02 0.  0.
          5    1    5    5  501    0 -0.18480804769E+02 -0.17977938751E+02  0.73753112594E+02  0.78271054956E+02  0.47000000000E+01 0. -1.
        -11    1    6    6    0    0 -0.61579570068E+02  0.19589929419E+03  0.31618907837E+03  0.37702003951E+03  0.00000000000E+00 0.  1.
         12    1    6    6    0    0  0.26110826834E+02  0.42853822491E+02  0.66222258108E+02  0.83087982579E+02  0.00000000000E+00 0. -1.
         -5    1    3    3    0  503  0.23178015066E+02 -0.89653269876E+02 -0.48556774172E+02  0.10466508252E+03  0.47000000000E+01 0.  1.
         13    1    4    4    0    0  0.40735285386E+01 -0.16502839982E+02 -0.14979865697E+02  0.22656869566E+02  0.00000000000E+00 0. -1.
        -14    1    4    4    0    0  0.26698004398E+02 -0.11461906807E+03  0.11074039641E+03  0.16159749256E+03  0.00000000000E+00 0.  1.
</event>
<event>
12    1  0.8407180E-002  0.1922640E+03  0.7818608E-02  0.1156946E+00
         21   -1    0    0  501  502  0.00000000000E+00  0.00000000000E+00  0.44474903994E+03  0.44474903994E+03  0.00000000000E+00 0. -1.
         21   -1    0    0  502  503 -0.00000000000E+00 -0.00000000000E+00 -0.52001426440E+03  0.52001426440E+03  0.00000000000E+00 0. -1.
         -6    2    1    2    0  503 -0.90286785958E+02  0.58976164584E+01 -0.48024827591E+03  0.51645904882E+03  0.16704806792E+03 0.  0.
        -24    2    3    3    0    0 -0.10032701728E+03  0.52947202957E+02 -0.30117004754E+03  0.33097165920E+03  0.77265289483E+02 0.  0.
          6    2    1    2  501    0  0.90286785958E+02 -0.58976164584E+01  0.40498305144E+03  0.44830425552E+03  0.16964359098E+03 0.  0.
         24    2    5    5    0    0  0.79493080761E+02  0.42326201905E+01  0.13332989025E+03  0.17620747907E+03  0.83277554504E+02 0.  0.
          5    1    5    5  501    0  0.10793705197E+02 -0.10130236649E+02  0.27165316120E+03  0.27209677645E+03  0.47000000000E+01 0. -1.
        -11    1    6    6    0    0  0.31968857677E+01 -0.24492450687E+02  0.66011707470E+02  0.70481527667E+02  0.00000000000E+00 0.  1.
         12    1    6    6    0    0  0.76296194993E+02  0.28725070878E+02  0.67318182777E+02  0.10572595140E+03  0.00000000000E+00 0. -1.
         -5    1    3    3    0  503  0.10040231318E+02 -0.47049586499E+02 -0.17907822836E+03  0.18548738962E+03  0.47000000000E+01 0.  1.
         13    1    4    4    0    0 -0.40611993626E+02 -0.11049120773E+02 -0.15486564263E+03  0.16048297219E+03  0.00000000000E+00 0. -1.
        -14    1    4    4    0    0 -0.59715023650E+02  0.63996323730E+02 -0.14630440492E+03  0.17048868701E+03  0.00000000000E+00 0.  1.
</event>
<event>
12    1  0.8407180E-002  0.4232744E+03  0.7818608E-02  0.1036015E+00
         21   -1    0    0  503  502  0.00000000000E+00  0.00000000000E+00  0.20068243180E+03  0.20068243180E+03  0.00000000000E+00 0.  1.
         21   -1    0    0  501  503 -0.00000000000E+00 -0.00000000000E+00 -0.95797188057E+03  0.95797188057E+03  0.00000000000E+00 0. -1.
          6    2    1    2  501    0  0.30134557855E+03 -0.24351848160E+03 -0.53003504537E+03  0.67823178066E+03  0.17014931791E+03 0.  0.
         24    2    3    3    0    0  0.61356667215E+02 -0.57256503923E+02 -0.18238135149E+03  0.21652474935E+03  0.81099086662E+02 0.  0.
         -6    2    1    2    0  502 -0.30134557855E+03  0.24351848160E+03 -0.22725440340E+03  0.48042253171E+03  0.17044305947E+03 0.  0.
        -24    2    5    5    0    0 -0.28473875336E+03  0.26230631907E+03 -0.22521722112E+03  0.45482937654E+03  0.79159348062E+02 0.  0.
          5    1    3    3  501    0  0.23998891134E+03 -0.18626197767E+03 -0.34765369388E+03  0.46170703131E+03  0.47000000000E+01 0. -1.
        -13    1    4    4    0    0  0.97023222800E+01  0.19840483970E+02 -0.21654836155E+02  0.30930758004E+02  0.00000000000E+00 0.  1.
         14    1    4    4    0    0  0.51654344935E+02 -0.77096987893E+02 -0.16072651533E+03  0.18559399135E+03  0.00000000000E+00 0. -1.
         -5    1    5    5    0  502 -0.16606825187E+02 -0.18787837478E+02 -0.20371822802E+01  0.25593155170E+02  0.47000000000E+01 0.  1.
         11    1    6    6    0    0 -0.11723945828E+03  0.86747914347E+02 -0.12581461104E+03  0.19261258414E+03  0.00000000000E+00 0. -1.
        -12    1    6    6    0    0 -0.16749929509E+03  0.17555840473E+03 -0.99402610080E+02  0.26221679240E+03  0.00000000000E+00 0.  1.
</event>
<event>
12    1  0.8407180E-002  0.2988890E+03  0.7818608E-02  0.1085925E+00
         21   -1    0    0  503  502  0.00000000000E+00  0.00000000000E+00  0.94702839222E+02  0.94702839222E+02  0.00000000000E+00 0.  1.
         21   -1    0    0  501  503 -0.00000000000E+00 -0.00000000000E+00 -0.17040024487E+04  0.17040024487E+04  0.00000000000E+00 0. -1.
          6    2    1    2  501    0  0.20524601689E+02  0.24329488891E+03 -0.14060510645E+04  0.14372573887E+04  0.17063277271E+03 0.  0.
         24    2    3    3    0    0  0.73062505037E+02  0.20301976204E+03 -0.11506527250E+04  0.11733772664E+04  0.79103490969E+02 0.  0.
         -6    2    1    2    0  502 -0.20524601689E+02 -0.24329488891E+03 -0.20324854491E+03  0.36144789917E+03  0.17239765241E+03 0.  0.
        -24    2    5    5    0    0 -0.35622646426E+02 -0.11825889036E+03 -0.17947068578E+03  0.23319257384E+03  0.83155945977E+02 0.  0.
          5    1    3    3  501    0 -0.52537903349E+02  0.40275126870E+02 -0.25539833953E+03  0.26388012235E+03  0.47000000000E+01 0. -1.
        -13    1    4    4    0    0  0.22165436365E+02  0.18296218072E+01 -0.10501608805E+03  0.10734539037E+03  0.00000000000E+00 0.  1.
         14    1    4    4    0    0  0.50897068673E+02  0.20119014024E+03 -0.10456366370E+04  0.10660318760E+04  0.00000000000E+00 0. -1.
         -5    1    5    5    0  502  0.15098044737E+02 -0.12503599856E+03 -0.23777859129E+02  0.12825532533E+03  0.47000000000E+01 0.  1.
         11    1    6    6    0    0  0.92077399541E+01 -0.99815581784E+02 -0.11556009739E+03  0.15297734784E+03  0.00000000000E+00 0. -1.
        -12    1    6    6    0    0 -0.44830386380E+02 -0.18443308574E+02 -0.63910588393E+02  0.80215226004E+02  0.00000000000E+00 0.  1.
</event>
<event>
12    1  0.8407180E-002  0.2087884E+03  0.7818608E-02  0.1142837E+00
         21   -1    0    0  501  502  0.00000000000E+00  0.00000000000E+00  0.86623901446E+02  0.86623901446E+02  0.00000000000E+00 0. -1.
         21   -1    0    0  502  503 -0.00000000000E+00 -0.00000000000E+00 -0.49961543960E+03  0.49961543960E+03  0.00000000000E+00 0.  1.
         -6    2    1    2    0  503  0.23622802533E+02  0.11588680645E+03 -0.20380275018E+03  0.29176730037E+03  0.17206047738E+03 0.  0.
        -24    2    3    3    0    0 -0.33585234204E+01  0.11707548978E+02 -0.14968745097E+03  0.17121911396E+03  0.82227158683E+02 0.  0.
          6    2    1    2  501    0 -0.23622802533E+02 -0.11588680645E+03 -0.20918878797E+03  0.29447204068E+03  0.17019413920E+03 0.  0.
         24    2    5    5    0    0 -0.17252088444E+02 -0.67268496539E+01 -0.14613211878E+03  0.16816006303E+03  0.81119206103E+02 0.  0.
          5    1    5    5  501    0 -0.63707140895E+01 -0.10915995680E+03 -0.63056669199E+02  0.12631197765E+03  0.47000000000E+01 0. -1.
        -11    1    6    6    0    0 -0.48623849857E+02 -0.12698581267E+02 -0.76178365909E+02  0.91261581039E+02  0.00000000000E+00 0.  1.
         12    1    6    6    0    0  0.31371761413E+02  0.59717316128E+01 -0.69953752866E+02  0.76898481992E+02  0.00000000000E+00 0. -1.
         -5    1    3    3    0  503  0.26981325954E+02  0.10417925748E+03 -0.54115299216E+02  0.12054818641E+03  0.47000000000E+01 0.  1.
         11    1    4    4    0    0  0.28970509150E+01  0.46848595246E+02 -0.75686104132E+02  0.89059363007E+02  0.00000000000E+00 0. -1.
        -12    1    4    4    0    0 -0.62555743354E+01 -0.35141046268E+02 -0.74001346835E+02  0.82159750952E+02  0.00000000000E+00 0.  1.
</event>
<event>
12    1  0.8407180E-002  0.2351917E+03  0.7818608E-02  0.1123395E+00
         21   -1    0    0  501  502  0.00000000000E+00  0.00000000000E+00  0.75919250185E+03  0.75919250185E+03  0.00000000000E+00 0.  1.
         21   -1    0    0  502  503 -0.00000000000E+00 -0.00000000000E+00 -0.14481076959E+03  0.14481076959E+03  0.00000000000E+00 0.  1.
         -6    2    1    2    0  503  0.16177867357E+03 -0.65555546011E+01 -0.13515472876E+02  0.23350341812E+03  0.16770767349E+03 0.  0.
        -24    2    3    3    0    0  0.11584062129E+03  0.10920897735E+02 -0.68948596940E+02  0.15926965035E+03  0.84110623318E+02 0.  0.
          6    2    1    2  501    0 -0.16177867357E+03  0.65555546011E+01  0.62789720513E+03  0.67049985332E+03  0.17058674794E+03 0.  0.
         24    2    5    5    0    0 -0.16860572687E+03  0.16097889210E+02  0.63082289440E+03  0.65752624688E+03  0.75605608673E+02 0.  0.
          5    1    5    5  501    0  0.68270532960E+01 -0.95423346085E+01 -0.29256892688E+01  0.12973606445E+02  0.47000000000E+01 0. -1.
        -11    1    6    6    0    0 -0.31316420270E+02 -0.22843977168E+02  0.86148357640E+02  0.94467481154E+02  0.00000000000E+00 0.  1.
         12    1    6    6    0    0 -0.13728930660E+03  0.38941866378E+02  0.54467453676E+03  0.56305876572E+03  0.00000000000E+00 0. -1.
         -5    1    3    3    0  503  0.45938052278E+02 -0.17476452336E+02  0.55433124064E+02  0.74233767767E+02  0.47000000000E+01 0.  1.
         13    1    4    4    0    0  0.10976511439E+03 -0.12123525969E+02 -0.76417955704E+02  0.13429469153E+03  0.00000000000E+00 0. -1.
        -14    1    4    4    0    0  0.60755069046E+01  0.23044423704E+02  0.74693587639E+01  0.24974958826E+02  0.00000000000E+00 0.  1.
</event>
<event>
12    1  0.8407180E-002  0.1790882E+03  0.7818608E-02  0.1168957E+00
         21   -1    0    0  503  502  0.00000000000E+00  0.00000000000E+00  0.17432955988E+03  0.17432955988E+03  0.00000000000E+00 0. -1.
         21   -1    0    0  501  503 -0.00000000000E+00 -0.00000000000E+00 -0.37221958736E+03  0.37221958736E+03  0.00000000000E+00 0. -1.
          6    2    1    2  501    0  0.37585989459E+02 -0.35852113960E+02  0.95824180670E+02  0.20311294022E+03  0.17138994196E+03 0.  0.
         24    2    3    3    0    0  0.50803742768E+02 -0.76842599164E+02  0.10253127652E+03  0.15927227400E+03  0.79807200653E+02 0.  0.
         -6    2    1    2    0  502 -0.37585989459E+02  0.35852113960E+02 -0.29371420816E+03  0.34343620702E+03  0.17024192063E+03 0.  0.
        -24    2    5    5    0    0 -0.83096572321E+02  0.35884396441E+02 -0.26095661300E+03  0.28716575087E+03  0.78568978387E+02 0.  0.
          5    1    3    3  501    0 -0.13217753309E+02  0.40990485205E+02 -0.67070958477E+01  0.43840666219E+02  0.47000000000E+01 0. -1.
        -13    1    4    4    0    0 -0.48442501291E+00  0.91509803797E+01  0.40419085856E+02  0.41444874363E+02  0.00000000000E+00 0.  1.
         14    1    4    4    0    0  0.51288167781E+02 -0.85993579544E+02  0.62112190662E+02  0.11782739964E+03  0.00000000000E+00 0. -1.
         -5    1    5    5    0  502  0.45510582862E+02 -0.32282481291E-01 -0.32757595157E+02  0.56270456148E+02  0.47000000000E+01 0.  1.
         11    1    6    6    0    0 -0.43158601692E+02  0.37870369475E+01 -0.21171453975E+03  0.21610195022E+03  0.00000000000E+00 0. -1.
        -12    1    6    6    0    0 -0.39937970629E+02  0.32097359493E+02 -0.49242073252E+02  0.71063800648E+02  0.00000000000E+00 0.  1.
</event>
<event>
12    1  0.8407180E-002  0.2769694E+03  0.7818608E-02  0.1097530E+00
         21   -1    0    0  501  502  0.00000000000E+00  0.00000000000E+00  0.33512844504E+03  0.33512844504E+03  0.00000000000E+00 0.  1.
         21   -1    0    0  502  503 -0.00000000000E+00 -0.00000000000E+00 -0.59957222943E+03  0.59957222943E+03  0.00000000000E+00 0. -1.
         -6    2    1    2    0  503  0.21190121304E+03 -0.41280178802E+02 -0.50008440935E+03  0.57105446706E+03  0.17150105138E+03 0.  0.
        -24    2    3    3    0    0  0.46154670406E+02 -0.28727001617E+02 -0.10510867467E+03  0.14250176360E+03  0.79394111354E+02 0.  0.
          6    2    1    2  501    0 -0.21190121304E+03  0.41280178802E+02  0.23564062496E+03  0.36364620741E+03  0.17351046879E+03 0.  0.
         24    2    5    5    0    0 -0.11274820635E+03 -0.32948890501E+02  0.18020289850E+03  0.22786437879E+03  0.75175149333E+02 0.  0.
          5    1    5    5  501    0 -0.99153006692E+02  0.74229069304E+02  0.55437726459E+02  0.13578182861E+03  0.47000000000E+01 0. -1.
        -13    1    6    6    0    0 -0.24695618806E+02  0.16887038212E+02  0.80232312696E+02  0.85628673051E+02  0.00000000000E+00 0.  1.
         14    1    6    6    0    0 -0.88052587540E+02 -0.49835928713E+02  0.99970585801E+02  0.14223570574E+03  0.00000000000E+00 0. -1.
         -5    1    3    3    0  503  0.16574654263E+03 -0.12553177186E+02 -0.39497573468E+03  0.42855270346E+03  0.47000000000E+01 0.  1.
         11    1    4    4    0    0  0.15926503048E+02  0.26964280382E+02 -0.47304024428E+02  0.56730914350E+02  0.00000000000E+00 0. -1.
        -12    1    4    4    0    0  0.30228167358E+02 -0.55691281999E+02 -0.57804650241E+02  0.85770849255E+02  0.00000000000E+00 0.  1.
</event>
<event>
12    1  0.8407180E-002  0.1860925E+03  0.7818608E-02  0.1162234E+00
         21   -1    0    0  501  502  0.00000000000E+00  0.00000000000E+00  0.69012449815E+03  0.69012449815E+03  0.00000000000E+00 0.  1.
         21   -1    0    0  502  503 -0.00000000000E+00 -0.00000000000E+00 -0.72289532214E+02  0.72289532214E+02  0.00000000000E+00 0.  1.
         -6    2    1    2    0  503  0.32259467166E+02 -0.62285372489E+02  0.96494060941E+02  0.20885576990E+03  0.17143362557E+03 0.  0.
        -24    2    3    3    0    0  0.25772296748E+02  0.33166933706E+02  0.48077623617E+02  0.10152698745E+03  0.78943109372E+02 0.  0.
          6    2    1    2  501    0 -0.32259467166E+02  0.62285372489E+02  0.52134090499E+03  0.55355826046E+03  0.17236666633E+03 0.  0.
         24    2    5    5    0    0  0.26527926066E+02  0.23438127885E+02  0.42689633679E+03  0.43563060264E+03  0.79249371566E+02 0.  0.
          5    1    5    5  501    0 -0.58787393233E+02  0.38847244605E+02  0.94444568205E+02  0.11792765782E+03  0.47000000000E+01 0. -1.
        -11    1    6    6    0    0 -0.19562717988E+02 -0.10492137720E+01  0.33661743084E+02  0.38947576717E+02  0.00000000000E+00 0.  1.
         12    1    6    6    0    0  0.46090644054E+02  0.24487341657E+02  0.39323459370E+03  0.39668302592E+03  0.00000000000E+00 0. -1.
         -5    1    3    3    0  503  0.64871704182E+01 -0.95452306195E+02  0.48416437323E+02  0.10732878244E+03  0.47000000000E+01 0.  1.
         11    1    4    4    0    0 -0.15295526135E+02 -0.12642000566E+02  0.32473271535E+02  0.38056361652E+02  0.00000000000E+00 0. -1.
        -12    1    4    4    0    0  0.41067822883E+02  0.45808934272E+02  0.15604352082E+02  0.63470625800E+02  0.00000000000E+00 0.  1.
</event>
<event>
12    1  0.8407180E-002  0.2145584E+03  0.7818608E-02  0.1138093E+00
         21   -1    0    0  501  502  0.00000000000E+00  0.00000000000E+00  0.11476439554E+04  0.11476439554E+04  0.00000000000E+00 0.  1.
         21   -1    0    0  502  503 -0.00000000000E+00 -0.00000000000E+00 -0.10593122828E+03  0.10593122828E+03  0.00000000000E+00 0.  1.
         -6    2    1    2    0  503 -0.11426033398E+03  0.55994609125E+02  0.26685655391E+02  0.21621154684E+03  0.17275557476E+03 0.  0.
        -24    2    3    3    0    0 -0.14588210565E+03  0.23567039900E+02  0.29298022277E+02  0.17060016504E+03  0.80056530559E+02 0.  0.
          6    2    1    2  501    0  0.11426033398E+03 -0.55994609125E+02  0.10150270717E+04  0.10373636369E+04  0.17219912463E+03 0.  0.
         24    2    5    5    0    0 -0.59031889686E+01 -0.38661198761E+02  0.26896239186E+03  0.28147057832E+03  0.73180477575E+02 0.  0.
          5    1    5    5  501    0  0.12016352295E+03 -0.17333410365E+02  0.74606467988E+03  0.75589305853E+03  0.47000000000E+01 0. -1.
        -13    1    6    6    0    0 -0.19354316139E+02  0.37881102834E+00  0.15869757566E+02  0.25031625121E+02  0.00000000000E+00 0.  1.
         14    1    6    6    0    0  0.13451127170E+02 -0.39040009789E+02  0.25309263429E+03  0.25643895320E+03  0.00000000000E+00 0. -1.
         -5    1    3    3    0  503  0.31621771665E+02  0.32427569225E+02 -0.26123668863E+01  0.45611381801E+02  0.47000000000E+01 0.  1.
         11    1    4    4    0    0 -0.88437745491E+02 -0.19785249813E+02 -0.52382669368E+01  0.90775163884E+02  0.00000000000E+00 0. -1.
        -12    1    4    4    0    0 -0.57444360156E+02  0.43352289713E+02  0.34536289214E+02  0.79825001157E+02  0.00000000000E+00 0.  1.
</event>
<event>
12    1  0.8407180E-002  0.1850722E+03  0.7818608E-02  0.1163255E+00
         21   -1    0    0  501  502  0.00000000000E+00  0.00000000000E+00  0.19023800053E+03  0.19023800053E+03  0.00000000000E+00 0. -1.
         21   -1    0    0  502  503 -0.00000000000E+00 -0.00000000000E+00 -0.19811698396E+03  0.19811698396E+03  0.00000000000E+00 0. -1.
         -6    2    1    2    0  503 -0.24975759886E+02 -0.60686489430E+02 -0.64402773581E+02  0.19595777494E+03  0.17304650743E+03 0.  0.
        -24    2    3    3    0    0 -0.19878743435E+02 -0.99915354136E+02 -0.80380349932E+02  0.15303626112E+03  0.81122463781E+02 0.  0.
          6    2    1    2  501    0  0.24975759886E+02  0.60686489430E+02  0.56523790148E+02  0.19239720955E+03  0.17179961819E+03 0.  0.
         24    2    5    5    0    0  0.88346485117E+01 -0.33937544619E+02  0.37278845567E+02  0.94383428949E+02  0.79301395853E+02 0.  0.
          5    1    5    5  501    0  0.16141111374E+02  0.94624034049E+02  0.19244944581E+02  0.98013780603E+02  0.47000000000E+01 0. -1.
        -11    1    6    6    0    0  0.17753635028E+02 -0.38466210687E+02 -0.12053741948E+02  0.44046947866E+02  0.00000000000E+00 0.  1.
         12    1    6    6    0    0 -0.89189865164E+01  0.45286660683E+01  0.49332587515E+02  0.50336481083E+02  0.00000000000E+00 0. -1.
         -5    1    3    3    0  503 -0.50970164512E+01  0.39228864706E+02  0.15977576351E+02  0.42921513823E+02  0.47000000000E+01 0.  1.
         11    1    4    4    0    0 -0.44848879619E+02 -0.29563895325E+02 -0.21105100699E+02  0.57713700153E+02  0.00000000000E+00 0. -1.
        -12    1    4    4    0    0  0.24970136184E+02 -0.70351458810E+02 -0.59275249232E+02  0.95322560967E+02  0.00000000000E+00 0.  1.
</event>
<event>
12    1  0.8407180E-002  0.1892386E+03  0.7818608E-02  0.1159339E+00
         21   -1    0    0  501  502  0.00000000000E+00  0.00000000000E+00  0.60444955684E+02  0.60444955684E+02  0.00000000000E+00 0. -1.
         21   -1    0    0  502  503 -0.00000000000E+00 -0.00000000000E+00 -0.61519096469E+03  0.61519096469E+03  0.00000000000E+00 0.  1.
         -6    2    1    2    0  503  0.77037476449E+02 -0.11949350334E+02 -0.34534636704E+03  0.39339584800E+03  0.17151857113E+03 0.  0.
        -24    2    3    3    0    0  0.40357121167E+02  0.50242430642E+02 -0.11574154208E+03  0.15266003485E+03  0.75868192368E+02 0.  0.
          6    2    1    2  501    0 -0.77037476449E+02  0.11949350334E+02 -0.20939964196E+03  0.28224007237E+03  0.17243459237E+03 0.  0.
         24    2    5    5    0    0 -0.15841208745E+02  0.63031691455E+02 -0.83657623768E+02  0.13328526750E+03  0.80885267479E+02 0.  0.
          5    1    5    5  501    0 -0.61196267703E+02 -0.51082341121E+02 -0.12574201819E+03  0.14895480487E+03  0.47000000000E+01 0. -1.
        -11    1    6    6    0    0  0.16760873172E+02 -0.48063546687E+00 -0.53000914073E+02  0.55590060016E+02  0.00000000000E+00 0.  1.
         12    1    6    6    0    0 -0.32602081917E+02  0.63512326922E+02 -0.30656709695E+02  0.77695207482E+02  0.00000000000E+00 0. -1.
         -5    1    3    3    0  503  0.36680355281E+02 -0.62191780977E+02 -0.22960482497E+03  0.24073581315E+03  0.47000000000E+01 0.  1.
         11    1    4    4    0    0  0.52300871777E+02  0.90052317985E+01 -0.43481516195E+02  0.68608437083E+02  0.00000000000E+00 0. -1.
        -12    1    4    4    0    0 -0.11943750610E+02  0.41237198844E+02 -0.72260025881E+02  0.84051597769E+02  0.00000000000E+00 0.  1.
</event>
<event>
12    1  0.8407180E-002  0.2361225E+03  0.7818608E-02  0.1122426E+00
         21   -1    0    0  501  502  0.00000000000E+00  0.00000000000E+00  0.19584016975E+03  0.19584016975E+03  0.00000000000E+00 0. -1.
         21   -1    0    0  502  503 -0.00000000000E+00 -0.00000000000E+00 -0.28469034174E+03  0.28469034174E+03  0.00000000000E+00 0. -1.
         -6    2    1    2    0  503  0.16071234096E+03  0.21573260077E+02 -0.50126787833E+02  0.24125377591E+03  0.17145503040E+03 0.  0.
        -24    2    3    3    0    0  0.40226000482E+02  0.60627663155E+02 -0.33755767910E+02  0.11345586930E+03  0.80242991953E+02 0.  0.
          6    2    1    2  501    0 -0.16071234096E+03 -0.21573260077E+02 -0.38723384156E+02  0.23927673557E+03  0.17163913778E+03 0.  0.
         24    2    5    5    0    0 -0.29846443779E+02 -0.54373512544E+02 -0.24295198953E+02  0.10351222572E+03  0.79229004211E+02 0.  0.
          5    1    5    5  501    0 -0.13086589718E+03  0.32800252467E+02 -0.14428185203E+02  0.13576450985E+03  0.47000000000E+01 0. -1.
        -11    1    6    6    0    0  0.11780358618E+02  0.14887705952E+02  0.48281203630E+00  0.18990885844E+02  0.00000000000E+00 0.  1.
         12    1    6    6    0    0 -0.41626802397E+02 -0.69261218497E+02 -0.24778010990E+02  0.84521339874E+02  0.00000000000E+00 0. -1.
         -5    1    3    3    0  503  0.12048634048E+03 -0.39054403078E+02 -0.16371019923E+02  0.12779790661E+03  0.47000000000E+01 0.  1.
         13    1    4    4    0    0  0.64698992061E+02  0.42127501072E+02 -0.19518488400E+02  0.79634523353E+02  0.00000000000E+00 0. -1.
        -14    1    4    4    0    0 -0.24472991579E+02  0.18500162084E+02 -0.14237279510E+02  0.33821345949E+02  0.00000000000E+00 0.  1.
</event>
<event>
12    1  0.8407180E-002  0.2629883E+03  0.7818608E-02  0.1105422E+00
         21   -1    0    0  503  502  0.00000000000E+00  0.00000000000E+00  0.47090148420E+03  0.47090148420E+03  0.00000000000E+00 0. -1.
         21   -1    0    0  501  503 -0.00000000000E+00 -0.00000000000E+00 -0.21068924379E+03  0.21068924379E+03  0.00000000000E+00 0. -1.
          6    2    1    2  501    0 -0.10374945804E+03 -0.17014900882E+03 -0.57864063875E+02  0.26887363380E+03  0.17096825968E+03 0.  0.
         24    2    3    3    0    0  0.12552406610E+02 -0.60488407327E+02 -0.90915200259E+01  0.10168385458E+03  0.80252976356E+02 0.  0.
         -6    2    1    2    0  502  0.10374945804E+03  0.17014900882E+03  0.31807630429E+03  0.41271709418E+03  0.17160486367E+03 0.  0.
        -24    2    5    5    0    0  0.13347373592E+03  0.14129263457E+03  0.30225295479E+03  0.36812234764E+03  0.79864681716E+02 0.  0.
          5    1    3    3  501    0 -0.11630186465E+03 -0.10966060150E+03 -0.48772543849E+02  0.16718977922E+03  0.47000000000E+01 0. -1.
        -13    1    4    4    0    0  0.58551354151E+01 -0.14109813114E+00  0.29278337298E+02  0.29858391691E+02  0.00000000000E+00 0.  1.
         14    1    4    4    0    0  0.66972711952E+01 -0.60347309196E+02 -0.38369857324E+02  0.71825462893E+02  0.00000000000E+00 0. -1.
         -5    1    5    5    0  502 -0.29724277875E+02  0.28856374253E+02  0.15823349493E+02  0.44594746545E+02  0.47000000000E+01 0.  1.
         11    1    6    6    0    0  0.35592466404E+01  0.52745139083E+02  0.79582373243E+02  0.95540944440E+02  0.00000000000E+00 0. -1.
        -12    1    6    6    0    0  0.12991448928E+03  0.88547495486E+02  0.22267058155E+03  0.27258140320E+03  0.00000000000E+00 0.  1.
</event>
<event>
12    1  0.8407180E-002  0.3118472E+03  0.7818608E-02  0.1079468E+00
         21   -1    0    0  501  502  0.00000000000E+00  0.00000000000E+00  0.13995154436E+03  0.13995154436E+03  0.00000000000E+00 0. -1.
         21   -1    0    0  502  503 -0.00000000000E+00 -0.00000000000E+00 -0.71104335242E+03  0.71104335242E+03  0.00000000000E+00 0.  1.
         -6    2    1    2    0  503 -0.11067518736E+03 -0.23557696165E+03 -0.22125481062E+03  0.38236421982E+03  0.17176496564E+03 0.  0.
        -24    2    3    3    0    0  0.11953897783E+02 -0.72209073385E+02 -0.82526023514E+02  0.13539311663E+03  0.78509270303E+02 0.  0.
          6    2    1    2  501    0  0.11067518736E+03  0.23557696165E+03 -0.34983699744E+03  0.46863067695E+03  0.17170697320E+03 0.  0.
         24    2    5    5    0    0  0.10443715060E+03  0.25143775652E+03 -0.35077003249E+03  0.45092648335E+03  0.78530337251E+02 0.  0.
          5    1    5    5  501    0  0.62380367565E+01 -0.15860794871E+02  0.93303505028E+00  0.17704193597E+02  0.47000000000E+01 0. -1.
        -13    1    6    6    0    0  0.50038642207E+02  0.50668889926E+02 -0.12559748830E+03  0.14438120095E+03  0.00000000000E+00 0.  1.
         14    1    6    6    0    0  0.54398508398E+02  0.20076886659E+03 -0.22517254419E+03  0.30654528240E+03  0.00000000000E+00 0. -1.
         -5    1    3    3    0  503 -0.12262908514E+03 -0.16336788826E+03 -0.13872878711E+03  0.24697110319E+03  0.47000000000E+01 0.  1.
         11    1    4    4    0    0  0.37668917211E+01 -0.84315675033E+02 -0.46155234826E+02  0.96195780736E+02  0.00000000000E+00 0. -1.
        -12    1    4    4    0    0  0.81870060619E+01  0.12106601649E+02 -0.36370788688E+02  0.39197335898E+02  0.00000000000E+00 0.  1.
</event>
<event>
12    1  0.8407180E-002  0.1917321E+03  0.7818608E-02  0.1156935E+00
         21   -1    0    0  503  502  0.00000000000E+00  0.00000000000E+00  0.24923725971E+03  0.24923725971E+03  0.00000000000E+00 0.  1.
         21   -1    0    0  501  503 -0.00000000000E+00 -0.00000000000E+00 -0.15100657019E+03  0.15100657019E+03  0.00000000000E+00 0.  1.
          6    2    1    2  501    0 -0.13992533730E+02  0.82806046968E+02  0.18182985755E+02  0.19247269212E+03  0.17222799954E+03 0.  0.
         24    2    3    3    0    0  0.25236537582E+01  0.97734726436E+02  0.63331974514E+02  0.14191410130E+03  0.81056940309E+02 0.  0.
         -6    2    1    2    0  502  0.13992533730E+02 -0.82806046968E+02  0.80047703765E+02  0.20777113777E+03  0.17236176606E+03 0.  0.
        -24    2    5    5    0    0  0.42160710583E+02 -0.11632965956E+02  0.91804388545E+02  0.13018658206E+03  0.81287446626E+02 0.  0.
          5    1    3    3  501    0 -0.16516187488E+02 -0.14928679468E+02 -0.45148988758E+02  0.50558590820E+02  0.47000000000E+01 0. -1.
        -11    1    4    4    0    0 -0.26205617524E+02  0.60780255840E+02  0.67974508337E+02  0.94876275609E+02  0.00000000000E+00 0.  1.
         12    1    4    4    0    0  0.28729271282E+02  0.36954470596E+02 -0.46425338232E+01  0.47037825691E+02  0.00000000000E+00 0. -1.
         -5    1    5    5    0  502 -0.28168176853E+02 -0.71173081012E+02 -0.11756684780E+02  0.77584555712E+02  0.47000000000E+01 0.  1.
         13    1    6    6    0    0  0.22748153091E+02 -0.34822949109E+01  0.10355084454E+03  0.10607724662E+03  0.00000000000E+00 0. -1.
        -14    1    6    6    0    0  0.19412557492E+02 -0.81506710453E+01 -0.11746455993E+02  0.24109335438E+02  0.00000000000E+00 0.  1.
</event>
<event>
12    1  0.8407180E-002  0.2023760E+03  0.7818608E-02  0.1148009E+00
         21   -1    0    0  501  502  0.00000000000E+00  0.00000000000E+00  0.10915303621E+03  0.10915303621E+03  0.00000000000E+00 0. -1.
         21   -1    0    0  502  503 -0.00000000000E+00 -0.00000000000E+00 -0.80409829658E+03  0.80409829658E+03  0.00000000000E+00 0.  1.
         -6    2    1    2    0  503  0.80252019815E+02 -0.67868066607E+02 -0.68135263356E+03  0.71041940832E+03  0.17148721034E+03 0.  0.
        -24    2    3    3    0    0  0.30997205146E+02 -0.10857482567E+02 -0.56848308243E+03  0.57463329330E+03  0.77147230032E+02 0.  0.
          6    2    1    2  501    0 -0.80252019815E+02  0.67868066607E+02 -0.13592626811E+02  0.20283192446E+03  0.17294383171E+03 0.  0.
         24    2    5    5    0    0  0.11654848213E+02  0.47426038422E+01 -0.35469343847E+02  0.89111314244E+02  0.80773907887E+02 0.  0.
          5    1    5    5  501    0 -0.91906868029E+02  0.63125462765E+02  0.21876717036E+02  0.11372061022E+03  0.47000000000E+01 0. -1.
        -13    1    6    6    0    0 -0.14357999920E+02 -0.47106499759E+01  0.21205871651E+02  0.26039035646E+02  0.00000000000E+00 0.  1.
         14    1    6    6    0    0  0.26012848134E+02  0.94532538181E+01 -0.56675215498E+02  0.63072278598E+02  0.00000000000E+00 0. -1.
         -5    1    3    3    0  503  0.49254814669E+02 -0.57010584040E+02 -0.11286955113E+03  0.13578611502E+03  0.47000000000E+01 0.  1.
         11    1    4    4    0    0  0.31852368132E+02  0.70338638624E+01 -0.88566855307E+02  0.94382924597E+02  0.00000000000E+00 0. -1.
        -12    1    4    4    0    0 -0.85516298571E+00 -0.17891346429E+02 -0.47991622713E+03  0.48025036870E+03  0.00000000000E+00 0.  1.
</event>
<event>
12    1  0.8407180E-002  0.1747713E+03  0.7818608E-02  0.1177970E+00
         21   -1    0    0  503  502  0.00000000000E+00  0.00000000000E+00  0.34858197927E+03  0.34858197927E+03  0.00000000000E+00 0.  1.
         21   -1    0    0  501  503 -0.00000000000E+00 -0.00000000000E+00 -0.83715544632E+02  0.83715544632E+02  0.00000000000E+00 0.  1.
          6    2    1    2  501    0 -0.65209445539E+00 -0.32109309084E+02  0.85487607952E+02  0.19455885235E+03  0.17179517734E+03 0.  0.
         24    2    3    3    0    0  0.26874012991E+02 -0.74938162113E+02  0.25694148767E+02  0.11588646199E+03  0.80196895685E+02 0.  0.
         -6    2    1    2    0  502  0.65209445539E+00  0.32109309084E+02  0.17937882669E+03  0.23773867155E+03  0.15268097305E+03 0.  0.
        -24    2    5    5    0    0  0.52967183354E+02  0.25574945356E+02  0.14471012554E+03  0.17446485963E+03  0.77700492083E+02 0.  0.
          5    1    3    3  501    0 -0.27526107446E+02  0.42828853030E+02  0.59793459185E+02  0.78672390356E+02  0.47000000000E+01 0. -1.
        -11    1    4    4    0    0  0.96657129190E+01 -0.58382527016E+02  0.53120130647E+02  0.79521655836E+02  0.00000000000E+00 0.  1.
         12    1    4    4    0    0  0.17208300072E+02 -0.16555635098E+02 -0.27425981880E+02  0.36364806158E+02  0.00000000000E+00 0. -1.
         -5    1    5    5    0  502 -0.52315088898E+02  0.65343637280E+01  0.34668701147E+02  0.63273811921E+02  0.47000000000E+01 0.  1.
         11    1    6    6    0    0  0.36069441332E+02  0.50410393680E+02  0.67633035623E+02  0.91741157048E+02  0.00000000000E+00 0. -1.
        -12    1    6    6    0    0  0.16897742022E+02 -0.24835448325E+02  0.77077089917E+02  0.82723702583E+02  0.00000000000E+00 0.  1.
</event>
<event>
12    1  0.8407180E-002  0.2003939E+03  0.7818608E-02  0.1149628E+00
         21   -1    0    0  501  502  0.00000000000E+00  0.00000000000E+00  0.59377711158E+03  0.59377711158E+03  0.00000000000E+00 0. -1.
         21   -1    0    0  502  503 -0.00000000000E+00 -0.00000000000E+00 -0.13328458562E+03  0.13328458562E+03  0.00000000000E+00 0. -1.
         -6    2    1    2    0  503 -0.97496641059E+02 -0.31039385439E+02 -0.25275194826E+02  0.20198159956E+03  0.17230407024E+03 0.  0.
        -24    2    3    3    0    0 -0.93932190981E+02 -0.83043283732E+02 -0.28155939139E+02  0.14956500458E+03  0.76534242076E+02 0.  0.
          6    2    1    2  501    0  0.97496641059E+02  0.31039385439E+02  0.48576772078E+03  0.52508009764E+03  0.17108416618E+03 0.  0.
         24    2    5    5    0    0  0.72712363302E+02 -0.29518829401E+02  0.41262781356E+03  0.42682993816E+03  0.75918604608E+02 0.  0.
          5    1    5    5  501    0  0.24784277758E+02  0.60558214840E+02  0.73139907227E+02  0.98250159480E+02  0.47000000000E+01 0. -1.
        -13    1    6    6    0    0  0.17294480305E+01  0.52056936477E+00 -0.33315374304E+01  0.37896074472E+01  0.00000000000E+00 0.  1.
         14    1    6    6    0    0  0.70982915271E+02 -0.30039398766E+02  0.41595935099E+03  0.42304033072E+03  0.00000000000E+00 0. -1.
         -5    1    3    3    0  503 -0.35644500784E+01  0.52003898293E+02  0.28807443134E+01  0.52416594985E+02  0.47000000000E+01 0.  1.
         13    1    4    4    0    0 -0.39930010831E+02  0.24558464280E+01  0.10406065491E+02  0.41336704581E+02  0.00000000000E+00 0. -1.
        -14    1    4    4    0    0 -0.54002180150E+02 -0.85499130160E+02 -0.38562004630E+02  0.10822830000E+03  0.00000000000E+00 0.  1.
</event>
<event>
12    1  0.8407180E-002  0.2941243E+03  0.7818608E-02  0.1088240E+00
         21   -1    0    0  503  502  0.00000000000E+00  0.00000000000E+00  0.32596008489E+03  0.32596008489E+03  0.00000000000E+00 0. -1.
         21   -1    0    0  501  503 -0.00000000000E+00 -0.00000000000E+00 -0.38368136212E+03  0.38368136212E+03  0.00000000000E+00 0.  1.
          6    2    1    2  501    0 -0.94895173781E+02 -0.21909853439E+03 -0.22600553916E+03  0.37077761623E+03  0.17143008835E+03 0.  0.
         24    2    3    3    0    0 -0.40802312065E+02 -0.20107582884E+03 -0.11938866167E+03  0.24978131806E+03  0.77722176403E+02 0.  0.
         -6    2    1    2    0  502  0.94895173781E+02  0.21909853439E+03  0.16828426193E+03  0.33886383077E+03  0.17175517812E+03 0.  0.
        -24    2    5    5    0    0  0.21662683999E+02  0.26199707553E+02  0.56917723493E+02  0.10434826447E+03  0.80580621094E+02 0.  0.
          5    1    3    3  501    0 -0.54092861716E+02 -0.18022705545E+02 -0.10661687750E+03  0.12099629817E+03  0.47000000000E+01 0. -1.
        -13    1    4    4    0    0  0.21968358795E+02 -0.57635179838E+02 -0.45513559377E+02  0.76654463863E+02  0.00000000000E+00 0.  1.
         14    1    4    4    0    0 -0.62770670860E+02 -0.14344064900E+03 -0.73875102289E+02  0.17312685420E+03  0.00000000000E+00 0. -1.
         -5    1    5    5    0  502  0.73232489782E+02  0.19289882683E+03  0.11136653844E+03  0.23451556630E+03  0.47000000000E+01 0.  1.
         11    1    6    6    0    0  0.15196641267E+02  0.37765104408E+02  0.72955902889E+02  0.83544627494E+02  0.00000000000E+00 0. -1.
        -12    1    6    6    0    0  0.64660427319E+01 -0.11565396855E+02 -0.16038179396E+02  0.20803636974E+02  0.00000000000E+00 0.  1.
</event>
<event>
12    1  0.8407180E-002  0.2557190E+03  0.7818608E-02  0.1109913E+00
         21   -1    0    0  501  502  0.00000000000E+00  0.00000000000E+00  0.56555299638E+03  0.56555299638E+03  0.00000000000E+00 0.  1.
         21   -1    0    0  502  503 -0.00000000000E+00 -0.00000000000E+00 -0.11602346991E+03  0.11602346991E+03  0.00000000000E+00 0.  1.
         -6    2    1    2    0  503 -0.12506771231E+03 -0.14304256477E+03  0.19432333878E+03  0.32029762746E+03  0.16948717404E+03 0.  0.
        -24    2    3    3    0    0 -0.46112693260E+02 -0.53831535033E+02  0.18418785907E+02  0.10779585198E+03  0.79097910126E+02 0.  0.
          6    2    1    2  501    0  0.12506771231E+03  0.14304256477E+03  0.25520618769E+03  0.36127883883E+03  0.17114056549E+03 0.  0.
         24    2    5    5    0    0  0.10211870709E+03  0.80879964791E+02  0.25269130800E+03  0.29480132161E+03  0.78007198654E+02 0.  0.
          5    1    5    5  501    0  0.22949005217E+02  0.62162599977E+02  0.25148796902E+01  0.66477517223E+02  0.47000000000E+01 0. -1.
        -13    1    6    6    0    0  0.34078668460E+02  0.49403815599E+02  0.48120064878E+02  0.76926154743E+02  0.00000000000E+00 0.  1.
         14    1    6    6    0    0  0.68040038629E+02  0.31476149192E+02  0.20457124312E+03  0.21787516686E+03  0.00000000000E+00 0. -1.
         -5    1    3    3    0  503 -0.78955019046E+02 -0.89211029735E+02  0.17590455287E+03  0.21250177548E+03  0.47000000000E+01 0.  1.
         13    1    4    4    0    0  0.80525419749E+01 -0.43311373221E+02  0.27418610875E+02  0.51889292777E+02  0.00000000000E+00 0. -1.
        -14    1    4    4    0    0 -0.54165235235E+02 -0.10520161812E+02 -0.89998249677E+01  0.55906559204E+02  0.00000000000E+00 0.  1.
</event>
<event>
12    1  0.8407180E-002  0.2455326E+03  0.7818608E-02  0.1116536E+00
         21   -1    0    0  503  502  0.00000000000E+00  0.00000000000E+00  0.74088156277E+03  0.74088156277E+03  0.00000000000E+00 0.  1.
         21   -1    0    0  501  503 -0.00000000000E+00 -0.00000000000E+00 -0.96104898522E+02  0.96104898522E+02  0.00000000000E+00 0.  1.
          6    2    1    2  501    0 -0.38330277859E+02 -0.16771046336E+03  0.49171150125E+03  0.54960572368E+03  0.17518630462E+03 0.  0.
         24    2    3    3    0    0 -0.46939635989E+02 -0.27924988051E+02  0.27702210165E+03  0.29323152753E+03  0.79122370734E+02 0.  0.
         -6    2    1    2    0  502  0.38330277859E+02  0.16771046336E+03  0.15306516300E+03  0.28738073761E+03  0.17193817059E+03 0.  0.
        -24    2    5    5    0    0 -0.25071791092E+02  0.11938076974E+03  0.52795000797E+02  0.15919424432E+03  0.87607833121E+02 0.  0.
          5    1    3    3  501    0  0.86093581295E+01 -0.13978547531E+03  0.21468939960E+03  0.25637419615E+03  0.47000000000E+01 0. -1.
        -11    1    4    4    0    0 -0.41729250147E+02 -0.33741375961E+02  0.27983301652E+03  0.28493214614E+03  0.00000000000E+00 0.  1.
         12    1    4    4    0    0 -0.52103858421E+01  0.58163879098E+01 -0.28109148746E+01  0.82993813850E+01  0.00000000000E+00 0. -1.
         -5    1    5    5    0  502  0.63402068951E+02  0.48329693615E+02  0.10027016221E+03  0.12818649329E+03  0.47000000000E+01 0.  1.
         13    1    6    6    0    0 -0.11392088265E+02  0.98052850907E+02  0.76198972941E+02  0.12470134211E+03  0.00000000000E+00 0. -1.
        -14    1    6    6    0    0 -0.13679702826E+02  0.21327918834E+02 -0.23403972144E+02  0.34492902217E+02  0.00000000000E+00 0.  1.
</event>
<event>
12    1  0.8407180E-002  0.2143156E+03  0.7818608E-02  0.1138540E+00
         21   -1    0    0  503  502  0.00000000000E+00  0.00000000000E+00  0.22424326671E+04  0.22424326671E+04  0.00000000000E+00 0.  1.
         21   -1    0    0  501  503 -0.00000000000E+00 -0.00000000000E+00 -0.22228068395E+02  0.22228068395E+02  0.00000000000E+00 0.  1.
          6    2    1    2  501    0  0.46214333643E+02 -0.11604017228E+03  0.14383001575E+04  0.14539168019E+04  0.17194661301E+03 0.  0.
         24    2    3    3    0    0  0.68491690636E+01 -0.17452322120E+02  0.96982197704E+03  0.97353874672E+03  0.82894689553E+02 0.  0.
         -6    2    1    2    0  502 -0.46214333643E+02  0.11604017228E+03  0.78190444128E+03  0.81074393362E+03  0.17415534555E+03 0.  0.
        -24    2    5    5    0    0  0.59073717860E+01  0.97748067721E+02  0.70110303357E+03  0.71275296080E+03  0.82956239434E+02 0.  0.
          5    1    3    3  501    0  0.39365164579E+02 -0.98587850157E+02  0.46847818041E+03  0.48037805518E+03  0.47000000000E+01 0. -1.
        -13    1    4    4    0    0  0.26129756447E+02 -0.85575423042E+01  0.10766768106E+03  0.11112301853E+03  0.00000000000E+00 0.  1.
         14    1    4    4    0    0 -0.19280587384E+02 -0.88947798159E+01  0.86215429598E+03  0.86241572819E+03  0.00000000000E+00 0. -1.
         -5    1    5    5    0  502 -0.52121705429E+02  0.18292104556E+02  0.80801407714E+02  0.97990972821E+02  0.47000000000E+01 0.  1.
         13    1    6    6    0    0  0.40947379422E+01  0.10492176147E+03  0.69572940626E+03  0.70360837803E+03  0.00000000000E+00 0. -1.
        -14    1    6    6    0    0  0.18126338438E+01 -0.71736937485E+01  0.53736273146E+01  0.91445827661E+01  0.00000000000E+00 0.  1.
</event>
<event>
12    1  0.8407180E-002  0.1780123E+03  0.7818608E-02  0.1169765E+00
         21   -1    0    0  501  502  0.00000000000E+00  0.00000000000E+00  0.23880339463E+02  0.23880339463E+02  0.00000000000E+00 0. -1.
         21   -1    0    0  502  503 -0.00000000000E+00 -0.00000000000E+00 -0.16532132038E+04  0.16532132038E+04  0.00000000000E+00 0. -1.
         -6    2    1    2    0  503  0.42703527133E+02 -0.23557593179E+01 -0.11874096397E+04  0.12006646212E+04  0.17269840592E+03 0.  0.
        -24    2    3    3    0    0  0.68021725580E+02  0.34372438484E+02 -0.51049604711E+03  0.52226645385E+03  0.79671921160E+02 0.  0.
          6    2    1    2  501    0 -0.42703527133E+02  0.23557593179E+01 -0.44192322465E+03  0.47642892204E+03  0.17279826515E+03 0.  0.
         24    2    5    5    0    0 -0.94011300792E+02 -0.45629343760E+01 -0.35322547331E+03  0.37361969554E+03  0.77230155083E+02 0.  0.
          5    1    5    5  501    0  0.51307773659E+02  0.69186936938E+01 -0.88697751347E+02  0.10280922650E+03  0.47000000000E+01 0. -1.
        -11    1    6    6    0    0 -0.40466345788E+02 -0.16856856865E+02 -0.27231205767E+03  0.27581793908E+03  0.00000000000E+00 0.  1.
         12    1    6    6    0    0 -0.53544955004E+02  0.12293922489E+02 -0.80913415635E+02  0.97801756458E+02  0.00000000000E+00 0. -1.
         -5    1    3    3    0  503 -0.25318198447E+02 -0.36728197802E+02 -0.67691359255E+03  0.67839816735E+03  0.47000000000E+01 0.  1.
         13    1    4    4    0    0  0.68345375706E+02  0.92656075527E+01 -0.21697053643E+03  0.22766896042E+03  0.00000000000E+00 0. -1.
        -14    1    4    4    0    0 -0.32365012672E+00  0.25106830931E+02 -0.29352551068E+03  0.29459749342E+03  0.00000000000E+00 0.  1.
</event>
<event>
12    1  0.8407180E-002  0.2455088E+03  0.7818608E-02  0.1116364E+00
         21   -1    0    0  501  502  0.00000000000E+00  0.00000000000E+00  0.23148032855E+03  0.23148032855E+03  0.00000000000E+00 0.  1.
         21   -1    0    0  502  503 -0.00000000000E+00 -0.00000000000E+00 -0.45516695789E+03  0.45516695789E+03  0.00000000000E+00 0.  1.
         -6    2    1    2    0  503  0.16113429271E+03  0.66006519957E+02 -0.33698678990E+03  0.41625590324E+03  0.17142858412E+03 0.  0.
        -24    2    3    3    0    0  0.29770951543E+02  0.66629288610E+02 -0.11801580304E+03  0.16085993943E+03  0.81378244578E+02 0.  0.
          6    2    1    2  501    0 -0.16113429271E+03 -0.66006519957E+02  0.11330016055E+03  0.27039138320E+03  0.17307065829E+03 0.  0.
         24    2    5    5    0    0 -0.14713344699E+03 -0.73649159101E+02  0.23751213468E+02  0.17931154164E+03  0.67201629182E+02 0.  0.
          5    1    5    5  501    0 -0.14000845722E+02  0.76426391447E+01  0.89548947087E+02  0.91079841559E+02  0.47000000000E+01 0. -1.
        -11    1    6    6    0    0 -0.98593941893E+02 -0.65157424398E+02  0.43907376948E+02  0.12607185682E+03  0.00000000000E+00 0.  1.
         12    1    6    6    0    0 -0.48539505096E+02 -0.84917347033E+01 -0.20156163479E+02  0.53239684818E+02  0.00000000000E+00 0. -1.
         -5    1    3    3    0  503  0.13136334117E+03 -0.62276865290E+00 -0.21897098686E+03  0.25539596381E+03  0.47000000000E+01 0.  1.
         13    1    4    4    0    0  0.37797187755E+02 -0.41528176304E+01 -0.38830308750E+02  0.54347641845E+02  0.00000000000E+00 0. -1.
        -14    1    4    4    0    0 -0.80262362116E+01  0.70782106240E+02 -0.79185494292E+02  0.10651229759E+03  0.00000000000E+00 0.  1.
</event>
<event>
12    1  0.8407180E-002  0.2106997E+03  0.7818608E-02  0.1141044E+00
         21   -1    0    0  501  502  0.00000000000E+00  0.00000000000E+00  0.71026955530E+03  0.71026955530E+03  0.00000000000E+00 0. -1.
         21   -1    0    0  502  503 -0.00000000000E+00 -0.00000000000E+00 -0.22351786144E+03  0.22351786144E+03  0.00000000000E+00 0.  1.
         -6    2    1    2    0  503 -0.92161731855E+02 -0.77496721437E+02 -0.15297963384E+03  0.26025157533E+03  0.17270954647E+03 0.  0.
        -24    2    3    3    0    0  0.18848858995E+02 -0.27214130355E+02 -0.86827754236E+02  0.12150774152E+03  0.78289105032E+02 0.  0.
          6    2    1    2  501    0  0.92161731855E+02  0.77496721437E+02  0.63973132769E+03  0.67353584141E+03  0.17290121854E+03 0.  0.
         24    2    5    5    0    0  0.82179948411E+02  0.61716810738E+02  0.23559329143E+03  0.26893939563E+03  0.79130846733E+02 0.  0.
          5    1    5    5  501    0  0.99817834439E+01  0.15779910699E+02  0.40413803626E+03  0.40459644578E+03  0.47000000000E+01 0. -1.
        -11    1    6    6    0    0  0.12367987604E+02  0.45517246619E+01 -0.32898141982E+01  0.13583379264E+02  0.00000000000E+00 0.  1.
         12    1    6    6    0    0  0.69811960807E+02  0.57165086076E+02  0.23888310563E+03  0.25535601636E+03  0.00000000000E+00 0. -1.
         -5    1    3    3    0  503 -0.11101059085E+03 -0.50282591083E+02 -0.66151879599E+02  0.13874383381E+03  0.47000000000E+01 0.  1.
         13    1    4    4    0    0 -0.15014619043E+02  0.17095425640E+02 -0.49275674449E+02  0.54275081347E+02  0.00000000000E+00 0. -1.
        -14    1    4    4    0    0  0.33863478038E+02 -0.44309555995E+02 -0.37552079787E+02  0.67232660171E+02  0.00000000000E+00 0.  1.
</event>
<event>
12    1  0.8407180E-002  0.1816188E+03  0.7818608E-02  0.1166388E+00
         21   -1    0    0  501  502  0.00000000000E+00  0.00000000000E+00  0.13909170050E+03  0.13909170050E+03  0.00000000000E+00 0. -1.
         21   -1    0    0  502  503 -0.00000000000E+00 -0.00000000000E+00 -0.44677993024E+03  0.44677993024E+03  0.00000000000E+00 0. -1.
         -6    2    1    2    0  503 -0.34708046919E+02 -0.44651219380E+02 -0.35473839598E+03  0.39825737326E+03  0.17196286186E+03 0.  0.
        -24    2    3    3    0    0 -0.61301179332E+02 -0.83396614606E+02 -0.22592478574E+03  0.26105884365E+03  0.79980504645E+02 0.  0.
          6    2    1    2  501    0  0.34708046919E+02  0.44651219380E+02  0.47050166234E+02  0.18761425748E+03  0.17258914090E+03 0.  0.
         24    2    5    5    0    0  0.62142263675E+02  0.13014127424E+02 -0.24405812714E+02  0.10465891550E+03  0.79541287720E+02 0.  0.
          5    1    5    5  501    0 -0.27434216755E+02  0.31637091955E+02  0.71455978948E+02  0.82955341985E+02  0.47000000000E+01 0. -1.
        -13    1    6    6    0    0  0.38046275542E+02  0.31946459268E+02 -0.45571843168E+02  0.67415786223E+02  0.00000000000E+00 0.  1.
         14    1    6    6    0    0  0.24095988133E+02 -0.18932331843E+02  0.21166030454E+02  0.37243129277E+02  0.00000000000E+00 0. -1.
         -5    1    3    3    0  503  0.26593132413E+02  0.38745395227E+02 -0.12881361024E+03  0.13719852960E+03  0.47000000000E+01 0.  1.
         11    1    4    4    0    0 -0.62395839821E+02 -0.36434587821E+02 -0.18553368098E+03  0.19910667190E+03  0.00000000000E+00 0. -1.
        -12    1    4    4    0    0  0.10946604892E+01 -0.46962026785E+02 -0.40391104757E+02  0.61952171752E+02  0.00000000000E+00 0.  1.
</event>
<event>
12    1  0.8407180E-002  0.2239573E+03  0.7818608E-02  0.1132218E+00
         21   -1    0    0  501  502  0.00000000000E+00  0.00000000000E+00  0.30758479047E+03  0.30758479047E+03  0.00000000000E+00 0.  1.
         21   -1    0    0  502  503 -0.00000000000E+00 -0.00000000000E+00 -0.15894034939E+03  0.15894034939E+03  0.00000000000E+00 0. -1.
         -6    2    1    2    0  503 -0.65804258850E+02 -0.12394022515E+03  0.57094692618E+02  0.22457841519E+03  0.16578383742E+03 0.  0.
        -24    2    3    3    0    0  0.35205565006E-01 -0.77744987437E+02  0.83770106184E+02  0.13971085513E+03  0.80357999228E+02 0.  0.
          6    2    1    2  501    0  0.65804258850E+02  0.12394022515E+03  0.91549748460E+02  0.24194672468E+03  0.17454363709E+03 0.  0.
         24    2    5    5    0    0  0.80811043653E+02  0.15162212845E+03  0.93216863407E+02  0.21006631325E+03  0.76933592976E+02 0.  0.
          5    1    5    5  501    0 -0.15006784803E+02 -0.27681903301E+02 -0.16671149478E+01  0.31880411427E+02  0.47000000000E+01 0. -1.
        -13    1    6    6    0    0  0.38815062898E+02  0.16872264735E+02  0.42792412881E+02  0.60186983852E+02  0.00000000000E+00 0.  1.
         14    1    6    6    0    0  0.41995980756E+02  0.13474986371E+03  0.50424450527E+02  0.14987932940E+03  0.00000000000E+00 0. -1.
         -5    1    3    3    0  503 -0.65839464415E+02 -0.46195237710E+02 -0.26675413566E+02  0.84867560060E+02  0.47000000000E+01 0.  1.
         13    1    4    4    0    0 -0.23970204257E+02 -0.57877741714E+01 -0.25572067755E+01  0.24791295417E+02  0.00000000000E+00 0. -1.
        -14    1    4    4    0    0  0.24005409822E+02 -0.71957213266E+02  0.86327312959E+02  0.11491955971E+03  0.00000000000E+00 0.  1.
</event>
<event>
12    1  0.8407180E-002  0.1860129E+03  0.7818608E-02  0.1162743E+00
         21   -1    0    0  503  502  0.00000000000E+00  0.00000000000E+00  0.57152828624E+03  0.57152828624E+03  0.00000000000E+00 0.  1.
         21   -1    0    0  501  503 -0.00000000000E+00 -0.00000000000E+00 -0.92445685545E+02  0.92445685545E+02  0.00000000000E+00 0.  1.
          6    2    1    2  501    0  0.14819650422E+02 -0.70764680500E+02  0.42972797689E+02  0.19091221963E+03  0.17138714134E+03 0.  0.
         24    2    3    3    0    0  0.22280726055E+02 -0.54432882122E+02 -0.42425201387E+02  0.10352055221E+03  0.73873118304E+02 0.  0.
         -6    2    1    2    0  502 -0.14819650422E+02  0.70764680500E+02  0.43610980301E+03  0.47306175216E+03  0.16842921074E+03 0.  0.
        -24    2    5    5    0    0 -0.13998221096E+01  0.96775450233E+02  0.42205708808E+03  0.44025594885E+03  0.79534065809E+02 0.  0.
          5    1    3    3  501    0 -0.74610756330E+01 -0.16331798378E+02  0.85397999076E+02  0.87391667418E+02  0.47000000000E+01 0. -1.
        -13    1    4    4    0    0 -0.27396077130E+02 -0.18990577288E+02 -0.16891087988E+02  0.37369719310E+02  0.00000000000E+00 0.  1.
         14    1    4    4    0    0  0.49676803185E+02 -0.35442304834E+02 -0.25534113399E+02  0.66150832903E+02  0.00000000000E+00 0. -1.
         -5    1    5    5    0  502 -0.13419828312E+02 -0.26010769733E+02  0.14052714923E+02  0.32805803309E+02  0.47000000000E+01 0.  1.
         11    1    6    6    0    0 -0.33486973490E+02  0.22969802521E+02  0.92615686413E+02  0.10112692318E+03  0.00000000000E+00 0. -1.
        -12    1    6    6    0    0  0.32087151380E+02  0.73805647711E+02  0.32944140167E+03  0.33912902567E+03  0.00000000000E+00 0.  1.
</event>
<event>
12    1  0.8407180E-002  0.1885531E+03  0.7818608E-02  0.1159839E+00
         21   -1    0    0  503  502  0.00000000000E+00  0.00000000000E+00  0.75535926383E+03  0.75535926383E+03  0.00000000000E+00 0.  1.
         21   -1    0    0  501  503 -0.00000000000E+00 -0.00000000000E+00 -0.53911688107E+02  0.53911688107E+02  0.00000000000E+00 0.  1.
          6    2    1    2  501    0  0.53432906662E+02 -0.54848064306E+02  0.20601506769E+03  0.27927494436E+03  0.17230467422E+03 0.  0.
         24    2    3    3    0    0  0.19988518225E+02 -0.59144734030E+02  0.39475514575E+02  0.10929111795E+03  0.80551795678E+02 0.  0.
         -6    2    1    2    0  502 -0.53432906662E+02  0.54848064306E+02  0.49543250804E+03  0.52999600758E+03  0.17198550045E+03 0.  0.
        -24    2    5    5    0    0 -0.85269588588E+02  0.69165017510E+02  0.24843230755E+03  0.28049703263E+03  0.70037643396E+02 0.  0.
          5    1    3    3  501    0  0.33444388437E+02  0.42966697245E+01  0.16653955312E+03  0.16998382641E+03  0.47000000000E+01 0. -1.
        -13    1    4    4    0    0  0.12965004947E+02 -0.72351293514E+02  0.51789579329E+02  0.89916414261E+02  0.00000000000E+00 0.  1.
         14    1    4    4    0    0  0.70235132779E+01  0.13206559484E+02 -0.12314064754E+02  0.19374703687E+02  0.00000000000E+00 0. -1.
         -5    1    5    5    0  502  0.31836681926E+02 -0.14316953204E+02  0.24700020048E+03  0.24949897496E+03  0.47000000000E+01 0.  1.
         13    1    6    6    0    0 -0.28358979469E+02  0.58160535703E+02  0.83248046145E+02  0.10543773905E+03  0.00000000000E+00 0. -1.
        -14    1    6    6    0    0 -0.56910609119E+02  0.11004481806E+02  0.16518426141E+03  0.17505929357E+03  0.00000000000E+00 0.  1.
</event>
<event>
12    1  0.8407180E-002  0.2154584E+03  0.7818608E-02  0.1137568E+00
         21   -1    0    0  503  502  0.00000000000E+00  0.00000000000E+00  0.72457686998E+02  0.72457686998E+02  0.00000000000E+00 0. -1.
         21   -1    0    0  501  503 -0.00000000000E+00 -0.00000000000E+00 -0.13606427151E+04  0.13606427151E+04  0.00000000000E+00 0. -1.
          6    2    1    2  501    0 -0.11770081184E+03 -0.52419635590E+02 -0.11658110825E+04  0.11853148142E+04  0.17103926249E+03 0.  0.
         24    2    3    3    0    0 -0.39141680746E+02  0.36398056058E+02 -0.51327100208E+03  0.52207219945E+03  0.79090898380E+02 0.  0.
         -6    2    1    2    0  502  0.11770081184E+03  0.52419635590E+02 -0.12237394554E+03  0.24778558787E+03  0.17268762464E+03 0.  0.
        -24    2    5    5    0    0  0.14336807661E+03  0.13906942550E+02 -0.72727496361E+02  0.17974959796E+03  0.79201141408E+02 0.  0.
          5    1    3    3  501    0 -0.78559131096E+02 -0.88817691647E+02 -0.65254008046E+03  0.66324261476E+03  0.47000000000E+01 0. -1.
        -13    1    4    4    0    0  0.72948713742E+01  0.36894747257E+02 -0.11250721201E+03  0.11862676880E+03  0.00000000000E+00 0.  1.
         14    1    4    4    0    0 -0.46436552120E+02 -0.49669119977E+00 -0.40076379008E+03  0.40344543065E+03  0.00000000000E+00 0. -1.
         -5    1    5    5    0  502 -0.25667264765E+02  0.38512693040E+02 -0.49646449181E+02  0.68035989902E+02  0.47000000000E+01 0.  1.
         13    1    6    6    0    0  0.31069745336E+02  0.15746898220E+02  0.14311429665E+02  0.37657813237E+02  0.00000000000E+00 0. -1.
        -14    1    6    6    0    0  0.11229833127E+03 -0.18399556697E+01 -0.87038926025E+02  0.14209178473E+03  0.00000000000E+00 0.  1.
</event>
<event>
12    1  0.8407180E-002  0.2019178E+03  0.7818608E-02  0.1148624E+00
         21   -1    0    0  501  502  0.00000000000E+00  0.00000000000E+00  0.41930736218E+02  0.41930736218E+02  0.00000000000E+00 0. -1.
         21   -1    0    0  502  503 -0.00000000000E+00 -0.00000000000E+00 -0.96288925262E+03  0.96288925262E+03  0.00000000000E+00 0. -1.
         -6    2    1    2    0  503  0.95223740459E+02  0.36247913772E+02 -0.47978133562E+03  0.51963125783E+03  0.17159557718E+03 0.  0.
        -24    2    3    3    0    0  0.67229765425E+01  0.45530473502E+01 -0.34950216429E+03  0.35890881928E+03  0.81227144846E+02 0.  0.
          6    2    1    2  501    0 -0.95223740459E+02 -0.36247913772E+02 -0.44117718078E+03  0.48518873101E+03  0.17432535058E+03 0.  0.
         24    2    5    5    0    0 -0.21484237559E+02  0.11309600317E+02 -0.92381258805E+02  0.12549453225E+03  0.81394724169E+02 0.  0.
          5    1    5    5  501    0 -0.73739502900E+02 -0.47557514089E+02 -0.34879592198E+03  0.35969419876E+03  0.47000000000E+01 0. -1.
        -13    1    6    6    0    0 -0.22518441620E+01 -0.34734101404E+02 -0.42573534647E+02  0.54991221616E+02  0.00000000000E+00 0.  1.
         14    1    6    6    0    0 -0.19232393397E+02  0.46043701721E+02 -0.49807724158E+02  0.70503310630E+02  0.00000000000E+00 0. -1.
         -5    1    3    3    0  503  0.88500763917E+02  0.31694866422E+02 -0.13027917133E+03  0.16072243855E+03  0.47000000000E+01 0.  1.
         11    1    4    4    0    0  0.34288369282E+02  0.96254157724E+01 -0.75513603811E+02  0.83490390210E+02  0.00000000000E+00 0. -1.
        -12    1    4    4    0    0 -0.27565392740E+02 -0.50723684222E+01 -0.27398856048E+03  0.27541842907E+03  0.00000000000E+00 0.  1.
</event>
<event>
12    1  0.8407180E-002  0.2167166E+03  0.7818608E-02  0.1136512E+00
         21   -1    0    0  501  502  0.00000000000E+00  0.00000000000E+00  0.80070576607E+03  0.80070576607E+03  0.00000000000E+00 0. -1.
         21   -1    0    0  502  503 -0.00000000000E+00 -0.00000000000E+00 -0.78910332120E+02  0.78910332120E+02  0.00000000000E+00 0.  1.
         -6    2    1    2    0  503  0.35200566677E+02  0.12675828431E+03  0.13633985173E+03  0.25533705788E+03  0.17117743840E+03 0.  0.
        -24    2    3    3    0    0 -0.18276982512E+02  0.47948838236E+02  0.11081835785E+02  0.97912670893E+02  0.82649530302E+02 0.  0.
          6    2    1    2  501    0 -0.35200566677E+02 -0.12675828431E+03  0.58545558222E+03  0.62427904031E+03  0.17221886914E+03 0.  0.
         24    2    5    5    0    0 -0.55428810382E+02 -0.14281233474E+03  0.38307411299E+03  0.42020242856E+03  0.79728219283E+02 0.  0.
          5    1    5    5  501    0  0.20228243704E+02  0.16054050427E+02  0.20238146923E+03  0.20407661175E+03  0.47000000000E+01 0. -1.
        -11    1    6    6    0    0 -0.30473014278E+02 -0.31113750429E+01  0.74992384683E+02  0.81007055337E+02  0.00000000000E+00 0.  1.
         12    1    6    6    0    0 -0.24955796104E+02 -0.13970095970E+03  0.30808172831E+03  0.33919537322E+03  0.00000000000E+00 0. -1.
         -5    1    3    3    0  503  0.53477549190E+02  0.78809446076E+02  0.12525801595E+03  0.15742438698E+03  0.47000000000E+01 0.  1.
         13    1    4    4    0    0 -0.21762631321E+02 -0.12355222085E+02  0.25587320924E+02  0.35790705873E+02  0.00000000000E+00 0. -1.
        -14    1    4    4    0    0  0.34856488090E+01  0.60304060321E+02 -0.14505485140E+02  0.62121965020E+02  0.00000000000E+00 0.  1.
</event>
<event>
12    1  0.8407180E-002  0.2262274E+03  0.7818608E-02  0.1129769E+00
         21   -1    0    0  501  502  0.00000000000E+00  0.00000000000E+00  0.46527016371E+03  0.46527016371E+03  0.00000000000E+00 0. -1.
         21   -1    0    0  502  503 -0.00000000000E+00 -0.00000000000E+00 -0.58189960297E+03  0.58189960297E+03  0.00000000000E+00 0. -1.
         -6    2    1    2    0  503 -0.66853340714E+02 -0.12899069537E+03 -0.53047748741E+03  0.57670200629E+03  0.17340954631E+03 0.  0.
        -24    2    3    3    0    0 -0.80154035567E+02 -0.15756303541E+03 -0.47015155188E+03  0.50847740957E+03  0.79094973078E+02 0.  0.
          6    2    1    2  501    0  0.66853340714E+02  0.12899069537E+03  0.41384804815E+03  0.47046776039E+03  0.17018148534E+03 0.  0.
         24    2    5    5    0    0  0.37380898883E+01  0.33459603972E+02  0.28467323895E+03  0.29778902504E+03  0.80659358091E+02 0.  0.
          5    1    5    5  501    0  0.63115250825E+02  0.95531091395E+02  0.12917480920E+03  0.17267873535E+03  0.47000000000E+01 0. -1.
        -11    1    6    6    0    0  0.11880809487E+02 -0.21166504365E+02  0.38627692570E+02  0.45620972967E+02  0.00000000000E+00 0.  1.
         12    1    6    6    0    0 -0.81427195985E+01  0.54626108338E+02  0.24604554638E+03  0.25216805208E+03  0.00000000000E+00 0. -1.
         -5    1    3    3    0  503  0.13300694854E+02  0.28572340044E+02 -0.60325935530E+02  0.68224596714E+02  0.47000000000E+01 0.  1.
         13    1    4    4    0    0 -0.21705869781E+02 -0.11686096675E+03 -0.33901035254E+03  0.35924316203E+03  0.00000000000E+00 0. -1.
        -14    1    4    4    0    0 -0.58448165786E+02 -0.40702068662E+02 -0.13114119934E+03  0.14923424755E+03  0.00000000000E+00 0.  1.
</event>
<event>
12    1  0.8407180E-002  0.2118739E+03  0.7818608E-02  0.1140405E+00
         21   -1    0    0  501  502  0.00000000000E+00  0.00000000000E+00  0.13770013076E+03  0.13770013076E+03  0.00000000000E+00 0. -1.
         21   -1    0    0  502  503 -0.00000000000E+00 -0.00000000000E+00 -0.34103009901E+03  0.34103009901E+03  0.00000000000E+00 0.  1.
         -6    2    1    2    0  503  0.11138198203E+03 -0.54272001702E+02 -0.47095384755E+02  0.21548167320E+03  0.16989108314E+03 0.  0.
        -24    2    3    3    0    0  0.77212031068E+02 -0.92964902478E+02  0.88194824876E+00  0.14485136383E+03  0.79855926124E+02 0.  0.
          6    2    1    2  501    0 -0.11138198203E+03  0.54272001702E+02 -0.15623458349E+03  0.26324855658E+03  0.17186960572E+03 0.  0.
         24    2    5    5    0    0 -0.13460063596E+03  0.60920136639E+02 -0.16679487796E+03  0.23647331787E+03  0.79186517183E+02 0.  0.
          5    1    5    5  501    0  0.23218653930E+02 -0.66481349373E+01  0.10560294465E+02  0.26775238704E+02  0.47000000000E+01 0. -1.
        -13    1    6    6    0    0 -0.13048022804E+03  0.41240749140E+02 -0.10797350476E+03  0.17431054767E+03  0.00000000000E+00 0.  1.
         14    1    6    6    0    0 -0.41204079138E+01  0.19679387499E+02 -0.58821373199E+02  0.62162770199E+02  0.00000000000E+00 0. -1.
         -5    1    3    3    0  503  0.34169950960E+02  0.38692900776E+02 -0.47977333004E+02  0.70630309367E+02  0.47000000000E+01 0.  1.
         11    1    4    4    0    0  0.75299253949E+02 -0.28746870004E+02  0.97314396140E-01  0.80600059866E+02  0.00000000000E+00 0. -1.
        -12    1    4    4    0    0  0.19127771192E+01 -0.64218032475E+02  0.78463385262E+00  0.64251303967E+02  0.00000000000E+00 0.  1.
</event>
<event>
12    1  0.8407180E-002  0.1909740E+03  0.7818608E-02  0.1157802E+00
         21   -1    0    0  503  502  0.00000000000E+00  0.00000000000E+00  0.29095737842E+02  0.29095737842E+02  0.00000000000E+00 0.  1.
         21   -1    0    0  501  503 -0.00000000000E+00 -0.00000000000E+00 -0.16121777127E+04  0.16121777127E+04  0.00000000000E+00 0.  1.
          6    2    1    2  501    0  0.58476131290E+02  0.55717670776E+02 -0.11835553248E+04  0.11988637499E+04  0.17305249876E+03 0.  0.
         24    2    3    3    0    0  0.68408098559E+02  0.41544641953E+02 -0.11723222901E+04  0.11777027058E+04  0.78984088212E+02 0.  0.
         -6    2    1    2    0  502 -0.58476131290E+02 -0.55717670776E+02 -0.39952665003E+03  0.44240970056E+03  0.17199093667E+03 0.  0.
        -24    2    5    5    0    0  0.20009425639E+02 -0.66133920770E+02 -0.17448851977E+03  0.20380389388E+03  0.79471447940E+02 0.  0.
          5    1    3    3  501    0 -0.99319672694E+01  0.14173028823E+02 -0.11233034661E+02  0.21161044104E+02  0.47000000000E+01 0. -1.
        -13    1    4    4    0    0  0.22979171986E+02  0.51565386866E+02 -0.39796018068E+03  0.40194444501E+03  0.00000000000E+00 0.  1.
         14    1    4    4    0    0  0.45428926573E+02 -0.10020744913E+02 -0.77436210946E+03  0.77575826084E+03  0.00000000000E+00 0. -1.
         -5    1    5    5    0  502 -0.78485556929E+02  0.10416249994E+02 -0.22503813027E+03  0.23860580669E+03  0.47000000000E+01 0.  1.
         13    1    6    6    0    0 -0.43749411230E+00 -0.48938631751E+01  0.84677121219E+01  0.97899666218E+01  0.00000000000E+00 0. -1.
        -14    1    6    6    0    0  0.20446919752E+02 -0.61240057595E+02 -0.18295623189E+03  0.19401392725E+03  0.00000000000E+00 0.  1.
</event>
<event>
12    1  0.8407180E-002  0.1806101E+03  0.7818608E-02  0.1167325E+00
         21   -1    0    0  501  502  0.00000000000E+00  0.00000000000E+00  0.17056504143E+03  0.17056504143E+03  0.00000000000E+00 0.  1.
         21   -1    0    0  502  503 -0.00000000000E+00 -0.00000000000E+00 -0.42111022610E+03  0.42111022610E+03  0.00000000000E+00 0.  1.
         -6    2    1    2    0  503  0.22724919748E+02  0.50883124415E+02 -0.34414777625E+03  0.38866141888E+03  0.17179782391E+03 0.  0.
        -24    2    3    3    0    0 -0.83023517134E+01 -0.36172127320E+02 -0.14537790092E+03  0.16940617546E+03  0.78653457451E+02 0.  0.
          6    2    1    2  501    0 -0.22724919748E+02 -0.50883124415E+02  0.93602591583E+02  0.20301384865E+03  0.17131159700E+03 0.  0.
         24    2    5    5    0    0 -0.17440781903E+02  0.15613345875E+02 -0.51971178974E+01  0.83710976656E+02  0.80203242674E+02 0.  0.
          5    1    5    5  501    0 -0.52841378444E+01 -0.66496470289E+02  0.98799709481E+02  0.11930287200E+03  0.47000000000E+01 0. -1.
        -13    1    6    6    0    0 -0.39915106983E+02 -0.16325476381E+02 -0.10266103411E+02  0.44329784838E+02  0.00000000000E+00 0.  1.
         14    1    6    6    0    0  0.22474325080E+02  0.31938822256E+02  0.50689855139E+01  0.39381191818E+02  0.00000000000E+00 0. -1.
         -5    1    3    3    0  503  0.31027271461E+02  0.87055251735E+02 -0.19876987533E+03  0.21925524342E+03  0.47000000000E+01 0.  1.
         11    1    4    4    0    0 -0.42031854416E+02 -0.88609006242E+01 -0.62275525577E+02  0.75653376867E+02  0.00000000000E+00 0. -1.
        -12    1    4    4    0    0  0.33729502702E+02 -0.27311226696E+02 -0.83102375346E+02  0.93752798595E+02  0.00000000000E+00 0.  1.
</event>
<event>
12    1  0.8407180E-002  0.1753375E+03  0.7818608E-02  0.1172693E+00
         21   -1    0    0  503  502  0.00000000000E+00  0.00000000000E+00  0.48752397819E+02  0.48752397819E+02  0.00000000000E+00 0. -1.
         21   -1    0    0  501  503 -0.00000000000E+00 -0.00000000000E+00 -0.86717599385E+03  0.86717599385E+03  0.00000000000E+00 0. -1.
          6    2    1    2  501    0 -0.26742954357E+02  0.21929679653E+02 -0.65157425991E+03  0.67475347830E+03  0.17189282663E+03 0.  0.
         24    2    3    3    0    0 -0.74036888558E+02 -0.18255577747E+02 -0.34922279598E+03  0.36606258296E+03  0.78933683729E+02 0.  0.
         -6    2    1    2    0  502  0.26742954357E+02 -0.21929679653E+02 -0.16684933612E+03  0.24117491337E+03  0.17067671610E+03 0.  0.
        -24    2    5    5    0    0  0.54738377303E+02 -0.35080527057E+02 -0.17976519267E+03  0.20732823194E+03  0.80265421792E+02 0.  0.
          5    1    3    3  501    0  0.47293934201E+02  0.40185257400E+02 -0.30235146393E+03  0.30869089534E+03  0.47000000000E+01 0. -1.
        -11    1    4    4    0    0 -0.73313675072E+02 -0.15886335078E+02 -0.35336310148E+03  0.36123780544E+03  0.00000000000E+00 0.  1.
         12    1    4    4    0    0 -0.72321348604E+00 -0.23692426692E+01  0.41403054940E+01  0.48247775240E+01  0.00000000000E+00 0. -1.
         -5    1    5    5    0  502 -0.27995422946E+02  0.13150847404E+02  0.12915856549E+02  0.33846681429E+02  0.47000000000E+01 0.  1.
         13    1    6    6    0    0 -0.12191544653E+02  0.77068843623E+01 -0.48452341029E+01  0.15215325205E+02  0.00000000000E+00 0. -1.
        -14    1    6    6    0    0  0.66929921956E+02 -0.42787411419E+02 -0.17491995857E+03  0.19211290674E+03  0.00000000000E+00 0.  1.
</event>
<event>
12    1  0.8407180E-002  0.2949267E+03  0.7818608E-02  0.1088478E+00
         21   -1    0    0  503  502  0.00000000000E+00  0.00000000000E+00  0.83562248432E+03  0.83562248432E+03  0.00000000000E+00 0. -1.
         21   -1    0    0  501  503 -0.00000000000E+00 -0.00000000000E+00 -0.12938055233E+03  0.12938055233E+03  0.00000000000E+00 0. -1.
          6    2    1    2  501    0 -0.20549059964E+02 -0.23178351359E+03  0.13470363506E+03  0.32423271391E+03  0.18120684985E+03 0.  0.
         24    2    3    3    0    0  0.35649394813E+02 -0.19224524371E+03  0.14234850074E+03  0.25493570766E+03  0.80622616521E+02 0.  0.
         -6    2    1    2    0  502  0.20549059964E+02  0.23178351359E+03  0.57153829693E+03  0.64077032274E+03  0.17258250378E+03 0.  0.
        -24    2    5    5    0    0  0.54146812534E+02  0.17293307655E+03  0.51704401098E+03  0.55368473198E+03  0.79965910605E+02 0.  0.
          5    1    3    3  501    0 -0.56198454777E+02 -0.39538269880E+02 -0.76448656826E+01  0.69297006254E+02  0.47000000000E+01 0. -1.
        -11    1    4    4    0    0 -0.85202397008E+01  0.40934652443E+01  0.22204408635E+01  0.97098558122E+01  0.00000000000E+00 0.  1.
         12    1    4    4    0    0  0.44169634514E+02 -0.19633870896E+03  0.14012805988E+03  0.24522585185E+03  0.00000000000E+00 0. -1.
         -5    1    5    5    0  502 -0.33597752570E+02  0.58850437048E+02  0.54494285949E+02  0.87085590769E+02  0.47000000000E+01 0.  1.
         11    1    6    6    0    0  0.20231226921E+02  0.49180773359E+02  0.27124143686E+03  0.27640544148E+03  0.00000000000E+00 0. -1.
        -12    1    6    6    0    0  0.33915585614E+02  0.12375230319E+03  0.24580257413E+03  0.27727929050E+03  0.00000000000E+00 0.  1.
</event>
<event>
12    1  0.8407180E-002  0.2157529E+03  0.7818608E-02  0.1138186E+00
         21   -1    0    0  501  502  0.00000000000E+00  0.00000000000E+00  0.10889372518E+03  0.10889372518E+03  0.00000000000E+00 0. -1.
         21   -1    0    0  502  503 -0.00000000000E+00 -0.00000000000E+00 -0.42947206648E+03  0.42947206648E+03  0.00000000000E+00 0.  1.
         -6    2    1    2    0  503 -0.56659338978E+02 -0.11627949105E+03 -0.20941611213E+03  0.30067324715E+03  0.17267916145E+03 0.  0.
        -24    2    3    3    0    0  0.54180788737E+01 -0.96094421604E+01 -0.13339324818E+03  0.15564335030E+03  0.79431712019E+02 0.  0.
          6    2    1    2  501    0  0.56659338978E+02  0.11627949105E+03 -0.11116222917E+03  0.23769254450E+03  0.16555815832E+03 0.  0.
         24    2    5    5    0    0  0.86658072547E+01  0.35394011686E+02 -0.11183666677E+03  0.14352044287E+03  0.82236519922E+02 0.  0.
          5    1    5    5  501    0  0.47993531723E+02  0.80885479367E+02  0.67443760440E+00  0.94172101632E+02  0.47000000000E+01 0. -1.
        -11    1    6    6    0    0 -0.29209321863E+02 -0.70638727721E+01 -0.22243860973E+02  0.37388128239E+02  0.00000000000E+00 0.  1.
         12    1    6    6    0    0  0.37875129118E+02  0.42457884459E+02 -0.89592805798E+02  0.10613231463E+03  0.00000000000E+00 0. -1.
         -5    1    3    3    0  503 -0.62077417852E+02 -0.10667004889E+03 -0.76022863946E+02  0.14502989685E+03  0.47000000000E+01 0.  1.
         13    1    4    4    0    0 -0.24495867179E+02 -0.24143547630E+02 -0.25710413252E+02  0.42941631904E+02  0.00000000000E+00 0. -1.
        -14    1    4    4    0    0  0.29913946053E+02  0.14534105470E+02 -0.10768283493E+03  0.11270171840E+03  0.00000000000E+00 0.  1.
</event>
<event>
12    1  0.8407180E-002  0.2462791E+03  0.7818608E-02  0.1116980E+00
         21   -1    0    0  503  502  0.00000000000E+00  0.00000000000E+00  0.32017964321E+03  0.32017964321E+03  0.00000000000E+00 0.  1.
         21   -1    0    0  501  503 -0.00000000000E+00 -0.00000000000E+00 -0.24329279788E+03  0.24329279788E+03  0.00000000000E+00 0. -1.
          6    2    1    2  501    0 -0.10024366145E+03  0.13717814267E+03 -0.10087790572E+03  0.26613856333E+03  0.17828838588E+03 0.  0.
         24    2    3    3    0    0  0.18629547343E+02  0.30740370937E+02 -0.32996645561E+02  0.92674461850E+02  0.78789255748E+02 0.  0.
         -6    2    1    2    0  502  0.10024366145E+03 -0.13717814267E+03  0.17776475105E+03  0.29733387777E+03  0.16715410155E+03 0.  0.
        -24    2    5    5    0    0  0.10824054784E+02 -0.10775374670E+03  0.12825789571E+03  0.19086942426E+03  0.90846129344E+02 0.  0.
          5    1    3    3  501    0 -0.11887320879E+03  0.10643777174E+03 -0.67881260159E+02  0.17346410148E+03  0.47000000000E+01 0. -1.
        -11    1    4    4    0    0  0.40365262872E+02  0.16293914199E+02 -0.46157051557E+02  0.63445405626E+02  0.00000000000E+00 0.  1.
         12    1    4    4    0    0 -0.21735715528E+02  0.14446456738E+02  0.13160405996E+02  0.29229056224E+02  0.00000000000E+00 0. -1.
         -5    1    5    5    0  502  0.89419606662E+02 -0.29424395977E+02  0.49506855341E+02  0.10646445350E+03  0.47000000000E+01 0.  1.
         13    1    6    6    0    0  0.49447471953E+02 -0.78740047625E+02  0.81564573941E+02  0.12368438586E+03  0.00000000000E+00 0. -1.
        -14    1    6    6    0    0 -0.38623417170E+02 -0.29013699072E+02  0.46693321768E+02  0.67185038405E+02  0.00000000000E+00 0.  1.
</event>
<event>
12    1  0.8407180E-002  0.1871852E+03  0.7818608E-02  0.1161047E+00
         21   -1    0    0  503  502  0.00000000000E+00  0.00000000000E+00  0.78097616565E+02  0.78097616565E+02  0.00000000000E+00 0.  1.
         21   -1    0    0  501  503 -0.00000000000E+00 -0.00000000000E+00 -0.49004783715E+03  0.49004783715E+03  0.00000000000E+00 0.  1.
          6    2    1    2  501    0 -0.31922587467E+02  0.65776968161E+02 -0.12313408030E+03  0.22397536770E+03  0.17221295676E+03 0.  0.
         24    2    3    3    0    0 -0.59762718487E+02  0.48972759054E+02 -0.14641433934E+03  0.18370733075E+03  0.79632348672E+02 0.  0.
         -6    2    1    2    0  502  0.31922587467E+02 -0.65776968161E+02 -0.28881614029E+03  0.34417008601E+03  0.17231547837E+03 0.  0.
        -24    2    5    5    0    0 -0.29442307924E+02 -0.62778361469E+02 -0.24953761873E+03  0.27109796900E+03  0.80106887789E+02 0.  0.
          5    1    3    3  501    0  0.27840131021E+02  0.16804209107E+02  0.23280259045E+02  0.40268036955E+02  0.47000000000E+01 0. -1.
        -13    1    4    4    0    0 -0.79571313701E+02  0.38788847256E+02 -0.12081812230E+03  0.14977712546E+03  0.00000000000E+00 0.  1.
         14    1    4    4    0    0  0.19808595214E+02  0.10183911798E+02 -0.25596217043E+02  0.33930205286E+02  0.00000000000E+00 0. -1.
         -5    1    5    5    0  502  0.61364895391E+02 -0.29986066921E+01 -0.39278521555E+02  0.73072117007E+02  0.47000000000E+01 0.  1.
         11    1    6    6    0    0 -0.48211865407E+02 -0.14132201839E+02 -0.87737337006E+02  0.10110362704E+03  0.00000000000E+00 0. -1.
        -12    1    6    6    0    0  0.18769557483E+02 -0.48646159630E+02 -0.16180028173E+03  0.16999434197E+03  0.00000000000E+00 0.  1.
</event>
<event>
12    1  0.8407180E-002  0.1795339E+03  0.7818608E-02  0.1168406E+00
         21   -1    0    0  503  502  0.00000000000E+00  0.00000000000E+00  0.17973834692E+03  0.17973834692E+03  0.00000000000E+00 0. -1.
         21   -1    0    0  501  503 -0.00000000000E+00 -0.00000000000E+00 -0.20425614696E+03  0.20425614696E+03  0.00000000000E+00 0. -1.
          6    2    1    2  501    0  0.52943045346E+02  0.51660245583E+00 -0.80141867971E+02  0.19604115249E+03  0.17089816131E+03 0.  0.
         24    2    3    3    0    0  0.15478529182E+02  0.63060996365E+02 -0.64003237810E+02  0.12122179294E+03  0.79887636742E+02 0.  0.
         -6    2    1    2    0  502 -0.52943045346E+02 -0.51660245583E+00  0.55624067923E+02  0.18795334139E+03  0.17154937680E+03 0.  0.
        -24    2    5    5    0    0  0.35269677371E+02 -0.13506264339E+02  0.40473984674E+02  0.97389381741E+02  0.80126019009E+02 0.  0.
          5    1    3    3  501    0  0.37464516164E+02 -0.62544393909E+02 -0.16138630161E+02  0.74819359556E+02  0.47000000000E+01 0. -1.
        -13    1    4    4    0    0 -0.11950442012E+02  0.21210543972E+02  0.14345508720E+02  0.28257633664E+02  0.00000000000E+00 0.  1.
         14    1    4    4    0    0  0.27428971194E+02  0.41850452393E+02 -0.78348746530E+02  0.92964159272E+02  0.00000000000E+00 0. -1.
         -5    1    5    5    0  502 -0.88212722716E+02  0.12989661884E+02  0.15150083249E+02  0.90563959649E+02  0.47000000000E+01 0.  1.
         13    1    6    6    0    0  0.12919827900E+02 -0.27751229130E+02  0.58022858036E+02  0.65602627431E+02  0.00000000000E+00 0. -1.
        -14    1    6    6    0    0  0.22349849471E+02  0.14244964790E+02 -0.17548873362E+02  0.31786754310E+02  0.00000000000E+00 0.  1.
</event>
<event>
12    1  0.8407180E-002  0.2043465E+03  0.7818608E-02  0.1146376E+00
         21   -1    0    0  503  502  0.00000000000E+00  0.00000000000E+00  0.14775162507E+03  0.14775162507E+03  0.00000000000E+00 0.  1.
         21   -1    0    0  501  503 -0.00000000000E+00 -0.00000000000E+00 -0.30988685831E+03  0.30988685831E+03  0.00000000000E+00 0.  1.
          6    2    1    2  501    0  0.76248422384E+02 -0.79749621249E+02 -0.15080302893E+03  0.25297801949E+03  0.17053592233E+03 0.  0.
         24    2    3    3    0    0  0.78293431219E+02 -0.66077882765E+00 -0.12908891436E+03  0.17080247673E+03  0.79870146142E+02 0.  0.
         -6    2    1    2    0  502 -0.76248422384E+02  0.79749621249E+02 -0.11332204301E+02  0.20466046389E+03  0.17199901924E+03 0.  0.
        -24    2    5    5    0    0 -0.21538826897E+02  0.30502847602E+00 -0.54256683481E+02  0.98976103307E+02  0.79927887605E+02 0.  0.
          5    1    3    3  501    0 -0.20450088347E+01 -0.79088842421E+02 -0.21714114575E+02  0.82175542763E+02  0.47000000000E+01 0. -1.
        -11    1    4    4    0    0  0.66141364374E+02 -0.31475974171E+02 -0.61936859305E+02  0.95924926749E+02  0.00000000000E+00 0.  1.
         12    1    4    4    0    0  0.12152066845E+02  0.30815195343E+02 -0.67152055053E+02  0.74877549977E+02  0.00000000000E+00 0. -1.
         -5    1    5    5    0  502 -0.54709595487E+02  0.79444592773E+02  0.42924479180E+02  0.10568436058E+03  0.47000000000E+01 0.  1.
         13    1    6    6    0    0  0.91228404481E+01  0.34564985532E+02 -0.31631129521E+02  0.47733560495E+02  0.00000000000E+00 0. -1.
        -14    1    6    6    0    0 -0.30661667345E+02 -0.34259957056E+02 -0.22625553960E+02  0.51242542812E+02  0.00000000000E+00 0.  1.
</event>
<event>
12    1  0.8407180E-002  0.1869337E+03  0.7818608E-02  0.1161958E+00
         21   -1    0    0  503  502  0.00000000000E+00  0.00000000000E+00  0.11265222936E+02  0.11265222936E+02  0.00000000000E+00 0.  1.
         21   -1    0    0  501  503 -0.00000000000E+00 -0.00000000000E+00 -0.33657673547E+04  0.33657673547E+04  0.00000000000E+00 0.  1.
          6    2    1    2  501    0 -0.99109620271E+00  0.67826592612E+02 -0.21803745887E+04  0.21881172362E+04  0.17094520517E+03 0.  0.
         24    2    3    3    0    0 -0.16306354690E+02 -0.29237094953E+02 -0.10854808831E+04  0.10888128046E+04  0.78255166265E+02 0.  0.
         -6    2    1    2    0  502  0.99109620271E+00 -0.67826592612E+02 -0.11741275430E+04  0.11889153414E+04  0.17419177044E+03 0.  0.
        -24    2    5    5    0    0  0.23233452955E+02 -0.89598712770E+02 -0.11180550158E+04  0.11246116405E+04  0.78336459249E+02 0.  0.
          5    1    3    3  501    0  0.15315258487E+02  0.97063687565E+02 -0.10948937056E+04  0.10993044316E+04  0.47000000000E+01 0. -1.
        -13    1    4    4    0    0  0.93320940970E+01  0.24087352606E+02 -0.30438977498E+03  0.30548391717E+03  0.00000000000E+00 0.  1.
         14    1    4    4    0    0 -0.25638448787E+02 -0.53324447560E+02 -0.78109110809E+03  0.78332888744E+03  0.00000000000E+00 0. -1.
         -5    1    5    5    0  502 -0.22242356752E+02  0.21772120159E+02 -0.56072527234E+02  0.64303700986E+02  0.47000000000E+01 0.  1.
         13    1    6    6    0    0 -0.16505398854E+02  0.56821954928E+01 -0.12695741702E+03  0.12815186800E+03  0.00000000000E+00 0. -1.
        -14    1    6    6    0    0  0.39738851809E+02 -0.95280908263E+02 -0.99109759877E+03  0.99645977245E+03  0.00000000000E+00 0.  1.
</event>
<event>
12    1  0.8407180E-002  0.3911203E+03  0.7818608E-02  0.1046927E+00
         21   -1    0    0  503  502  0.00000000000E+00  0.00000000000E+00  0.31882795457E+03  0.31882795457E+03  0.00000000000E+00 0.  1.
         21   -1    0    0  501  503 -0.00000000000E+00 -0.00000000000E+00 -0.48318954036E+03  0.48318954036E+03  0.00000000000E+00 0. -1.
          6    2    1    2  501    0 -0.19731593706E+02  0.34952041480E+03 -0.11767880073E+03  0.40844020753E+03  0.17441687659E+03 0.  0.
         24    2    3    3    0    0 -0.70220551714E+02  0.21906241495E+03 -0.40314760325E+02  0.24851613382E+03  0.84945402138E+02 0.  0.
         -6    2    1    2    0  502  0.19731593706E+02 -0.34952041480E+03 -0.46682785069E+02  0.39357728739E+03  0.17369496993E+03 0.  0.
        -24    2    5    5    0    0  0.69306923715E+01 -0.35845127098E+03 -0.60236422177E+02  0.37237789245E+03  0.80632003938E+02 0.  0.
          5    1    3    3  501    0  0.50488958008E+02  0.13045799985E+03 -0.77364040401E+02  0.15992407371E+03  0.47000000000E+01 0. -1.
        -13    1    4    4    0    0 -0.29294911647E+02  0.61192994314E+02 -0.51304520741E+02  0.85058381422E+02  0.00000000000E+00 0.  1.
         14    1    4    4    0    0 -0.40925640067E+02  0.15786942063E+03  0.10989760416E+02  0.16345775240E+03  0.00000000000E+00 0. -1.
         -5    1    5    5    0  502  0.12800901334E+02  0.89308561871E+01  0.13553637108E+02  0.21199394946E+02  0.47000000000E+01 0.  1.
         11    1    6    6    0    0  0.46572682389E+01 -0.18426837302E+03 -0.71751682797E+02  0.19779996822E+03  0.00000000000E+00 0. -1.
        -12    1    6    6    0    0  0.22734241326E+01 -0.17418289797E+03  0.11515260620E+02  0.17457792423E+03  0.00000000000E+00 0.  1.
</event>
<event>
12    1  0.8407180E-002  0.2369868E+03  0.7818608E-02  0.1122605E+00
         21   -1    0    0  501  502  0.00000000000E+00  0.00000000000E+00  0.84085285232E+03  0.84085285232E+03  0.00000000000E+00 0.  1.
         21   -1    0    0  502  503 -0.00000000000E+00 -0.00000000000E+00 -0.65756106020E+02  0.65756106020E+02  0.00000000000E+00 0. -1.
         -6    2    1    2    0  503 -0.10421130982E+03  0.12516593639E+03  0.35544825411E+03  0.42466747835E+03  0.16574829439E+03 0.  0.
        -24    2    3    3    0    0 -0.99026347195E+02  0.85034628944E+02  0.35179620635E+03  0.38376719561E+03  0.80495863689E+02 0.  0.
          6    2    1    2  501    0  0.10421130982E+03 -0.12516593639E+03  0.41964849220E+03  0.48194147999E+03  0.17215174820E+03 0.  0.
         24    2    5    5    0    0  0.86562773079E+02 -0.14732153299E+03  0.41088760620E+03  0.45192174594E+03  0.78790175525E+02 0.  0.
          5    1    5    5  501    0  0.17648536737E+02  0.22155596593E+02  0.87608860002E+01  0.30019734057E+02  0.47000000000E+01 0. -1.
        -11    1    6    6    0    0  0.92427840537E+02 -0.98443801028E+02  0.33791600929E+03  0.36389739901E+03  0.00000000000E+00 0.  1.
         12    1    6    6    0    0 -0.58650674577E+01 -0.48877731959E+02  0.72971596904E+02  0.88024346930E+02  0.00000000000E+00 0. -1.
         -5    1    3    3    0  503 -0.51849626207E+01  0.40131307450E+02  0.36520477606E+01  0.40900282736E+02  0.47000000000E+01 0.  1.
         13    1    4    4    0    0  0.16552117332E+01  0.40545968088E+02  0.12954120865E+03  0.13574844380E+03  0.00000000000E+00 0. -1.
        -14    1    4    4    0    0 -0.10068155893E+03  0.44488660856E+02  0.22225499769E+03  0.24801875182E+03  0.00000000000E+00 0.  1.
</event>
<event>
12    1  0.8407180E-002  0.1988448E+03  0.7818608E-02  0.1151109E+00
         21   -1    0    0  501  502  0.00000000000E+00  0.00000000000E+00  0.13803508560E+03  0.13803508560E+03  0.00000000000E+00 0. -1.
         21   -1    0    0  502  503 -0.00000000000E+00 -0.00000000000E+00 -0.28452607973E+03  0.28452607973E+03  0.00000000000E+00 0.  1.
         -6    2    1    2    0  503  0.87694106586E+02  0.42661725510E+02 -0.83528629997E+02  0.21398618853E+03  0.17118054123E+03 0.  0.
        -24    2    3    3    0    0  0.78110371070E+02 -0.31177822432E+02 -0.23284355802E+02  0.11809255266E+03  0.79563830273E+02 0.  0.
          6    2    1    2  501    0 -0.87694106586E+02 -0.42661725510E+02 -0.62962364138E+02  0.20857497681E+03  0.17328872583E+03 0.  0.
         24    2    5    5    0    0 -0.78606758837E+01 -0.64023638993E+02 -0.70720137409E+02  0.12543665200E+03  0.81069101731E+02 0.  0.
          5    1    5    5  501    0 -0.79833430702E+02  0.21361913484E+02  0.77577732709E+01  0.83138324806E+02  0.47000000000E+01 0. -1.
        -13    1    6    6    0    0 -0.27555979193E+02  0.39761769831E+01 -0.38857587641E+02  0.47802239382E+02  0.00000000000E+00 0.  1.
         14    1    6    6    0    0  0.19695303310E+02 -0.67999815977E+02 -0.31862549768E+02  0.77634412621E+02  0.00000000000E+00 0. -1.
         -5    1    3    3    0  503  0.95837355159E+01  0.73839547942E+02 -0.60244274195E+02  0.95893635868E+02  0.47000000000E+01 0.  1.
         13    1    4    4    0    0  0.44543424141E+02  0.37078398651E+01  0.23732046376E+02  0.50607062114E+02  0.00000000000E+00 0. -1.
        -14    1    4    4    0    0  0.33566946929E+02 -0.34885662297E+02 -0.47016402178E+02  0.67485490543E+02  0.00000000000E+00 0.  1.
</event>
<event>
12    1  0.8407180E-002  0.1857850E+03  0.7818608E-02  0.1162693E+00
         21   -1    0    0  501  502  0.00000000000E+00  0.00000000000E+00  0.95903358453E+03  0.95903358453E+03  0.00000000000E+00 0.  1.
         21   -1    0    0  502  503 -0.00000000000E+00 -0.00000000000E+00 -0.74630539553E+02  0.74630539553E+02  0.00000000000E+00 0.  1.
         -6    2    1    2    0  503 -0.22847687786E+02  0.46300093942E+02  0.69744093124E+02  0.19844472470E+03  0.17846667672E+03 0.  0.
        -24    2    3    3    0    0 -0.14802546256E+02 -0.45353862579E+02  0.50008887327E+02  0.10422826968E+03  0.78016377529E+02 0.  0.
          6    2    1    2  501    0  0.22847687786E+02 -0.46300093942E+02  0.81465895185E+03  0.83521939939E+03  0.17679514060E+03 0.  0.
         24    2    5    5    0    0  0.31137756007E+02 -0.95613330892E+02  0.49432520879E+03  0.51097209020E+03  0.81385477964E+02 0.  0.
          5    1    5    5  501    0 -0.82900682214E+01  0.49313236950E+02  0.32033374306E+03  0.32424730919E+03  0.47000000000E+01 0. -1.
        -11    1    6    6    0    0  0.14415420350E+02 -0.40345291059E+02  0.38461795226E+03  0.38699679075E+03  0.00000000000E+00 0.  1.
         12    1    6    6    0    0  0.16722335657E+02 -0.55268039832E+02  0.10970725653E+03  0.12397529945E+03  0.00000000000E+00 0. -1.
         -5    1    3    3    0  503 -0.80451415298E+01  0.91653956521E+02  0.19735205798E+02  0.94216455017E+02  0.47000000000E+01 0.  1.
         11    1    4    4    0    0  0.23814619024E+02 -0.61016207628E+01 -0.63960326969E+01  0.25402265440E+02  0.00000000000E+00 0. -1.
        -12    1    4    4    0    0 -0.38617165281E+02 -0.39252241817E+02  0.56404920024E+02  0.78826004242E+02  0.00000000000E+00 0.  1.
</event>
<event>
12    1  0.8407180E-002  0.1974313E+03  0.7818608E-02  0.1152041E+00
         21   -1    0    0  503  502  0.00000000000E+00  0.00000000000E+00  0.26437904393E+04  0.26437904393E+04  0.00000000000E+00 0.  1.
         21   -1    0    0  501  503 -0.00000000000E+00 -0.00000000000E+00 -0.15475345524E+02  0.15475345524E+02  0.00000000000E+00 0. -1.
          6    2    1    2  501    0 -0.94556427868E+02 -0.80617798631E+01  0.10188840278E+04  0.10378361116E+04  0.17312776258E+03 0.  0.
         24    2    3    3    0    0 -0.19702101053E+02 -0.62041041706E+02  0.46407362579E+03  0.47538291081E+03  0.79920698759E+02 0.  0.
         -6    2    1    2    0  502  0.94556427868E+02  0.80617798631E+01  0.16094310660E+04  0.16214296732E+04  0.17251063330E+03 0.  0.
        -24    2    5    5    0    0 -0.57474944522E+01  0.39030986600E+02  0.89497825426E+03  0.89929057386E+03  0.78619393475E+02 0.  0.
          5    1    3    3  501    0 -0.74854326815E+02  0.53979261843E+02  0.55481040197E+03  0.56245320080E+03  0.47000000000E+01 0. -1.
        -11    1    4    4    0    0 -0.34350282361E+02 -0.15659252894E+02  0.34041960727E+03  0.34250644244E+03  0.00000000000E+00 0.  1.
         12    1    4    4    0    0  0.14648181307E+02 -0.46381788812E+02  0.12365401852E+03  0.13287646837E+03  0.00000000000E+00 0. -1.
         -5    1    5    5    0  502  0.10030392232E+03 -0.30969206737E+02  0.71445281171E+03  0.72213909932E+03  0.47000000000E+01 0.  1.
         13    1    6    6    0    0  0.16737975644E+02  0.51360662173E+02  0.39774924308E+03  0.40140071975E+03  0.00000000000E+00 0. -1.
        -14    1    6    6    0    0 -0.22485470096E+02 -0.12329675573E+02  0.49722901119E+03  0.49788985411E+03  0.00000000000E+00 0.  1.
</event>
<event>
12    1  0.8407180E-002  0.2432376E+03  0.7818608E-02  0.1117661E+00
         21   -1    0    0  503  502  0.00000000000E+00  0.00000000000E+00  0.42940933543E+03  0.42940933543E+03  0.00000000000E+00 0.  1.
         21   -1    0    0  501  503 -0.00000000000E+00 -0.00000000000E+00 -0.16824386251E+03  0.16824386251E+03  0.00000000000E+00 0.  1.
          6    2    1    2  501    0  0.15001975735E+03 -0.82421038277E+02  0.33923001526E+01  0.24326128065E+03  0.17281605197E+03 0.  0.
         24    2    3    3    0    0  0.44253021941E+02 -0.10478508271E+03 -0.27479883491E+01  0.13487979724E+03  0.72434554976E+02 0.  0.
         -6    2    1    2    0  502 -0.15001975735E+03  0.82421038277E+02  0.25777317277E+03  0.35439191729E+03  0.17276419563E+03 0.  0.
        -24    2    5    5    0    0 -0.20044514762E+02  0.32246145996E+02  0.16481553193E+03  0.18683805582E+03  0.79389565020E+02 0.  0.
          5    1    3    3  501    0  0.10576673541E+03  0.22364044434E+02  0.61402885016E+01  0.10838148341E+03  0.47000000000E+01 0. -1.
        -13    1    4    4    0    0  0.48815650473E+02 -0.11385533373E+03 -0.65153406643E+01  0.12405020925E+03  0.00000000000E+00 0.  1.
         14    1    4    4    0    0 -0.45626285320E+01  0.90702510205E+01  0.37673523152E+01  0.10829587996E+02  0.00000000000E+00 0. -1.
         -5    1    5    5    0  502 -0.12997524259E+03  0.50174892280E+02  0.92957640846E+02  0.16755386147E+03  0.47000000000E+01 0.  1.
         13    1    6    6    0    0  0.30761542757E+02  0.84794349324E+01  0.60462587626E+02  0.68365911330E+02  0.00000000000E+00 0. -1.
        -14    1    6    6    0    0 -0.50806057519E+02  0.23766711064E+02  0.10435294430E+03  0.11847214449E+03  0.00000000000E+00 0.  1.
</event>
<event>
12    1  0.8407180E-002  0.3055456E+03  0.7818608E-02  0.1082684E+00
         21   -1    0    0  503  502  0.00000000000E+00  0.00000000000E+00  0.78460201809E+03  0.78460201809E+03  0.00000000000E+00 0. -1.
         21   -1    0    0  501  503 -0.00000000000E+00 -0.00000000000E+00 -0.41138486651E+03  0.41138486651E+03  0.00000000000E+00 0.  1.
          6    2    1    2  501    0 -0.14175860628E+03 -0.20949514206E+03 -0.31790902193E+03  0.44093564364E+03  0.17138955222E+03 0.  0.
         24    2    3    3    0    0 -0.19801981729E+02 -0.33368429958E+02 -0.11766093627E+03  0.14765178320E+03  0.80320499000E+02 0.  0.
         -6    2    1    2    0  502  0.14175860628E+03  0.20949514206E+03  0.69112617351E+03  0.75505124095E+03  0.16871061542E+03 0.  0.
        -24    2    5    5    0    0  0.82092232601E+01  0.55064929729E+02  0.16774895455E+03  0.19324172563E+03  0.78122435564E+02 0.  0.
          5    1    3    3  501    0 -0.12195662455E+03 -0.17612671210E+03 -0.20024808566E+03  0.29328386045E+03  0.47000000000E+01 0. -1.
        -11    1    4    4    0    0 -0.43514591230E+02 -0.44992370705E+02 -0.87165670301E+02  0.10731116974E+03  0.00000000000E+00 0.  1.
         12    1    4    4    0    0  0.23712609501E+02  0.11623940747E+02 -0.30495265966E+02  0.40340613458E+02  0.00000000000E+00 0. -1.
         -5    1    5    5    0  502  0.13354938302E+03  0.15443021233E+03  0.52337721896E+03  0.56180951533E+03  0.47000000000E+01 0.  1.
         11    1    6    6    0    0  0.41488679966E+02  0.28675491557E+02  0.11460047895E+03  0.12520728476E+03  0.00000000000E+00 0. -1.
        -12    1    6    6    0    0 -0.33279456706E+02  0.26389438172E+02  0.53148475602E+02  0.68034440870E+02  0.00000000000E+00 0.  1.
</event>
<event>
12    1  0.8407180E-002  0.1826517E+03  0.7818608E-02  0.1165676E+00
         21   -1    0    0  501  502  0.00000000000E+00  0.00000000000E+00  0.15534409450E+03  0.15534409450E+03  0.00000000000E+00 0.  1.
         21   -1    0    0  502  503 -0.00000000000E+00 -0.00000000000E+00 -0.25644704606E+03  0.25644704606E+03  0.00000000000E+00 0.  1.
         -6    2    1    2    0  503 -0.54889728199E+02  0.15435017647E+02 -0.13536845371E+03  0.22595314363E+03  0.17169473733E+03 0.  0.
        -24    2    3    3    0    0 -0.74323015854E+02  0.22664263448E+02 -0.26056414002E+02  0.11459279751E+03  0.80093651472E+02 0.  0.
          6    2    1    2  501    0  0.54889728199E+02 -0.15435017647E+02  0.34265502147E+02  0.18583799692E+03  0.17352381517E+03 0.  0.
         24    2    5    5    0    0  0.10039613915E+01  0.49166950950E+02 -0.73471172044E+01  0.91865712178E+02  0.77245918589E+02 0.  0.
          5    1    5    5  501    0  0.53885766808E+02 -0.64601968597E+02  0.41612619351E+02  0.93972284746E+02  0.47000000000E+01 0. -1.
        -11    1    6    6    0    0  0.37806189805E+02  0.26722199165E+02 -0.13728807268E+02  0.48289378384E+02  0.00000000000E+00 0.  1.
         12    1    6    6    0    0 -0.36802228413E+02  0.22444751785E+02  0.63816900633E+01  0.43576333794E+02  0.00000000000E+00 0. -1.
         -5    1    3    3    0  503  0.19433287654E+02 -0.72292458009E+01 -0.10931203971E+03  0.11136034613E+03  0.47000000000E+01 0.  1.
         11    1    4    4    0    0  0.10120564117E+02 -0.48785746479E+01 -0.23139764863E+02  0.25723044660E+02  0.00000000000E+00 0. -1.
        -12    1    4    4    0    0 -0.84443579971E+02  0.27542838096E+02 -0.29166491389E+01  0.88869752846E+02  0.00000000000E+00 0.  1.
</event>
<event>
12    1  0.8407180E-002  0.2634875E+03  0.7818608E-02  0.1105180E+00
         21   -1    0    0  503  502  0.00000000000E+00  0.00000000000E+00  0.12219087902E+03  0.12219087902E+03  0.00000000000E+00 0. -1.
         21   -1    0    0  501  503 -0.00000000000E+00 -0.00000000000E+00 -0.58316128385E+03  0.58316128385E+03  0.00000000000E+00 0.  1.
          6    2    1    2  501    0  0.19340881343E+03  0.45763108382E+02 -0.29039483636E+03  0.39211579888E+03  0.17298672650E+03 0.  0.
         24    2    3    3    0    0  0.20562127331E+03  0.18965518691E+02 -0.20439516328E+03  0.30109223732E+03  0.78989579453E+02 0.  0.
         -6    2    1    2    0  502 -0.19340881343E+03 -0.45763108382E+02 -0.17057556847E+03  0.31323636398E+03  0.17181316586E+03 0.  0.
        -24    2    5    5    0    0 -0.11589821755E+03 -0.55484275866E+01 -0.24972377652E+02  0.14339086890E+03  0.80462039233E+02 0.  0.
          5    1    3    3  501    0 -0.12212459886E+02  0.26797589692E+02 -0.85999673076E+02  0.91023561559E+02  0.47000000000E+01 0. -1.
        -11    1    4    4    0    0  0.67463779705E+02  0.37630652573E+02 -0.45278675229E+02  0.89540973949E+02  0.00000000000E+00 0.  1.
         12    1    4    4    0    0  0.13815749361E+03 -0.18665133883E+02 -0.15911648805E+03  0.21155126337E+03  0.00000000000E+00 0. -1.
         -5    1    5    5    0  502 -0.77510595878E+02 -0.40214680796E+02 -0.14560319082E+03  0.16984549509E+03  0.47000000000E+01 0.  1.
         13    1    6    6    0    0 -0.12843949639E+03 -0.56836952341E+01 -0.21261494191E+02  0.13031139535E+03  0.00000000000E+00 0. -1.
        -14    1    6    6    0    0  0.12541278835E+02  0.13526764752E+00 -0.37108834614E+01  0.13079473546E+02  0.00000000000E+00 0.  1.
</event>
<event>
12    1  0.8407180E-002  0.1919826E+03  0.7818608E-02  0.1157685E+00
         21   -1    0    0  503  502  0.00000000000E+00  0.00000000000E+00  0.15000417955E+03  0.15000417955E+03  0.00000000000E+00 0.  1.
         21   -1    0    0  501  503 -0.00000000000E+00 -0.00000000000E+00 -0.25263225006E+03  0.25263225006E+03  0.00000000000E+00 0.  1.
          6    2    1    2  501    0  0.66493862053E+02 -0.50064286529E+02 -0.95647131956E+02  0.21052698780E+03  0.16806359589E+03 0.  0.
         24    2    3    3    0    0 -0.33875841823E+01 -0.43245610620E+02 -0.10524014420E+03  0.13950567583E+03  0.80651640237E+02 0.  0.
         -6    2    1    2    0  502 -0.66493862053E+02  0.50064286529E+02 -0.69809385628E+01  0.19210944182E+03  0.17300126489E+03 0.  0.
        -24    2    5    5    0    0 -0.31127158626E+02  0.67640143088E+02 -0.61177080434E+02  0.12488573886E+03  0.79433768886E+02 0.  0.
          5    1    3    3  501    0  0.69881446235E+02 -0.68186759090E+01  0.95930122475E+01  0.71021311964E+02  0.47000000000E+01 0. -1.
        -11    1    4    4    0    0 -0.86669942340E+01 -0.66834393828E+02 -0.78388942785E+02  0.10337688010E+03  0.00000000000E+00 0.  1.
         12    1    4    4    0    0  0.52794100517E+01  0.23588783208E+02 -0.26851201418E+02  0.36128795736E+02  0.00000000000E+00 0. -1.
         -5    1    5    5    0  502 -0.35366703427E+02 -0.17575856558E+02  0.54196141871E+02  0.67223702954E+02  0.47000000000E+01 0.  1.
         11    1    6    6    0    0  0.21504132807E+02  0.21368376160E+02  0.22046739089E+01  0.30395654534E+02  0.00000000000E+00 0. -1.
        -12    1    6    6    0    0 -0.52631291434E+02  0.46271766927E+02 -0.63381754343E+02  0.94490084327E+02  0.00000000000E+00 0.  1.
</event>
<event>
12    1  0.8407180E-002  0.1981608E+03  0.7818608E-02  0.1151707E+00
         21   -1    0    0  503  502  0.00000000000E+00  0.00000000000E+00  0.61099154470E+03  0.61099154470E+03  0.00000000000E+00 0. -1.
         21   -1    0    0  501  503 -0.00000000000E+00 -0.00000000000E+00 -0.13944509911E+03  0.13944509911E+03  0.00000000000E+00 0. -1.
          6    2    1    2  501    0  0.28655145561E+02 -0.89419585209E+02 -0.41367287499E+02  0.20057467745E+03  0.17234259245E+03 0.  0.
         24    2    3    3    0    0  0.40687129718E+02 -0.44098352141E+02 -0.88461323672E+02  0.13395095005E+03  0.80730069043E+02 0.  0.
         -6    2    1    2    0  502 -0.28655145561E+02  0.89419585209E+02  0.51291373309E+03  0.54986196636E+03  0.17450130334E+03 0.  0.
        -24    2    5    5    0    0 -0.41649739003E+02  0.58169061436E+02  0.50316254871E+03  0.51432845694E+03  0.79011839121E+02 0.  0.
          5    1    3    3  501    0 -0.12031984157E+02 -0.45321233068E+02  0.47094036173E+02  0.66623727400E+02  0.47000000000E+01 0. -1.
        -11    1    4    4    0    0 -0.14663311881E+02  0.93395462737E+01 -0.38424003234E+02  0.42173971410E+02  0.00000000000E+00 0.  1.
         12    1    4    4    0    0  0.55350441598E+02 -0.53437898415E+02 -0.50037320438E+02  0.91776978642E+02  0.00000000000E+00 0. -1.
         -5    1    5    5    0  502  0.12994593442E+02  0.31250523773E+02  0.97511843761E+01  0.35533509418E+02  0.47000000000E+01 0.  1.
         11    1    6    6    0    0  0.25586928231E+01  0.32735131656E+02  0.37433492832E+03  0.37577223728E+03  0.00000000000E+00 0. -1.
        -12    1    6    6    0    0 -0.44208431826E+02  0.25433929780E+02  0.12882762040E+03  0.13855621966E+03  0.00000000000E+00 0.  1.
</event>
<event>
12    1  0.8407180E-002  0.1932086E+03  0.7818608E-02  0.1156361E+00
         21   -1    0    0  501  502  0.00000000000E+00  0.00000000000E+00  0.48802212172E+03  0.48802212172E+03  0.00000000000E+00 0.  1.
         21   -1    0    0  502  503 -0.00000000000E+00 -0.00000000000E+00 -0.76002683437E+02  0.76002683437E+02  0.00000000000E+00 0.  1.
         -6    2    1    2    0  503 -0.18981768994E+02 -0.84846495848E+02  0.17419958391E+03  0.25761358047E+03  0.16870099702E+03 0.  0.
        -24    2    3    3    0    0 -0.10858356478E+02  0.17616447506E+02  0.10508014114E+03  0.13366104132E+03  0.79969961719E+02 0.  0.
          6    2    1    2  501    0  0.18981768994E+02  0.84846495848E+02  0.23781985438E+03  0.30641122469E+03  0.17254077799E+03 0.  0.
         24    2    5    5    0    0  0.24500355255E+01  0.12563822532E+03  0.17714971782E+03  0.23130983406E+03  0.79569155299E+02 0.  0.
          5    1    5    5  501    0  0.16531733468E+02 -0.40791729471E+02  0.60670136561E+02  0.75101390633E+02  0.47000000000E+01 0. -1.
        -11    1    6    6    0    0  0.63595275898E+01  0.11401303773E+03  0.95837980058E+02  0.14907828408E+03  0.00000000000E+00 0.  1.
         12    1    6    6    0    0 -0.39094920643E+01  0.11625187592E+02  0.81311737757E+02  0.82231549978E+02  0.00000000000E+00 0. -1.
         -5    1    3    3    0  503 -0.81234125154E+01 -0.10246294335E+03  0.69119442768E+02  0.12395253914E+03  0.47000000000E+01 0.  1.
         11    1    4    4    0    0 -0.30695405046E+02  0.95830914298E+01  0.10742162395E+03  0.11213139090E+03  0.00000000000E+00 0. -1.
        -12    1    4    4    0    0  0.19837048567E+02  0.80333560761E+01 -0.23414828109E+01  0.21529650426E+02  0.00000000000E+00 0.  1.
</event>
<event>
12    1  0.8407180E-002  0.1909122E+03  0.7818608E-02  0.1158126E+00
         21   -1    0    0  503  502  0.00000000000E+00  0.00000000000E+00  0.21067849949E+04  0.21067849949E+04  0.00000000000E+00 0. -1.
         21   -1    0    0  501  503 -0.00000000000E+00 -0.00000000000E+00 -0.17108930793E+02  0.17108930793E+02  0.00000000000E+00 0. -1.
          6    2    1    2  501    0 -0.14083119351E+02 -0.77068306323E+02  0.10366143506E+04  0.10540478049E+04  0.17409653921E+03 0.  0.
         24    2    3    3    0    0  0.33874902429E+02 -0.10338440619E+03  0.69470522736E+03  0.70775826196E+03  0.80439791104E+02 0.  0.
         -6    2    1    2    0  502  0.14083119351E+02  0.77068306323E+02  0.10530617135E+04  0.10698461208E+04  0.17173785757E+03 0.  0.
        -24    2    5    5    0    0  0.19222257877E+02  0.65269048323E+02  0.10507760629E+04  0.10559555689E+04  0.79260868721E+02 0.  0.
          5    1    3    3  501    0 -0.47958021780E+02  0.26316099871E+02  0.34190912325E+03  0.34628954290E+03  0.47000000000E+01 0. -1.
        -13    1    4    4    0    0 -0.17305213604E+02  0.22457383745E+01  0.71747452057E+02  0.73839086095E+02  0.00000000000E+00 0.  1.
         14    1    4    4    0    0  0.51180116033E+02 -0.10563014457E+03  0.62295777530E+03  0.63391917587E+03  0.00000000000E+00 0. -1.
         -5    1    5    5    0  502 -0.51391385266E+01  0.11799258000E+02  0.22856506253E+01  0.13890551930E+02  0.47000000000E+01 0.  1.
         11    1    6    6    0    0  0.58256583851E+00  0.64082430709E+01  0.44828426342E+01  0.78422471457E+01  0.00000000000E+00 0. -1.
        -12    1    6    6    0    0  0.18639692039E+02  0.58860805252E+02  0.10462932202E+04  0.10481133218E+04  0.00000000000E+00 0.  1.
</event>
<event>
12    1  0.8407180E-002  0.1757852E+03  0.7818608E-02  0.1173657E+00
         21   -1    0    0  503  502  0.00000000000E+00  0.00000000000E+00  0.13148581054E+03  0.13148581054E+03  0.00000000000E+00 0.  1.
         21   -1    0    0  501  503 -0.00000000000E+00 -0.00000000000E+00 -0.32263773419E+03  0.32263773419E+03  0.00000000000E+00 0.  1.
          6    2    1    2  501    0 -0.25353153954E+02 -0.22266678033E+02 -0.21844868884E+03  0.27623159737E+03  0.16566676903E+03 0.  0.
         24    2    3    3    0    0  0.28989861952E+01  0.46196956058E+02 -0.13593778192E+03  0.16525595870E+03  0.81779511264E+02 0.  0.
         -6    2    1    2    0  502  0.25353153954E+02  0.22266678033E+02  0.27296765194E+02  0.17789194736E+03  0.17251621425E+03 0.  0.
        -24    2    5    5    0    0  0.33282069646E+02  0.36401368467E+00  0.81278772741E+02  0.11891108988E+03  0.80160961400E+02 0.  0.
          5    1    3    3  501    0 -0.28252140149E+02 -0.68463634091E+02 -0.82510906925E+02  0.11097563867E+03  0.47000000000E+01 0. -1.
        -11    1    4    4    0    0 -0.17084272947E+02  0.18234550523E+02 -0.12742036762E+03  0.12984729993E+03  0.00000000000E+00 0.  1.
         12    1    4    4    0    0  0.19983259142E+02  0.27962405536E+02 -0.85174142955E+01  0.35408658765E+02  0.00000000000E+00 0. -1.
         -5    1    5    5    0  502 -0.79289156922E+01  0.21902664348E+02 -0.53982007548E+02  0.58980857475E+02  0.47000000000E+01 0.  1.
         13    1    6    6    0    0  0.52290749280E+02  0.94993820301E+01  0.24848614909E+02  0.58668683146E+02  0.00000000000E+00 0. -1.
        -14    1    6    6    0    0 -0.19008679634E+02 -0.91353683455E+01  0.56430157832E+02  0.60242406735E+02  0.00000000000E+00 0.  1.
</event>
<event>
12    1  0.8407180E-002  0.1891603E+03  0.7818608E-02  0.1159289E+00
         21   -1    0    0  501  502  0.00000000000E+00  0.00000000000E+00  0.11359565066E+03  0.11359565066E+03  0.00000000000E+00 0. -1.
         21   -1    0    0  502  503 -0.00000000000E+00 -0.00000000000E+00 -0.57569910123E+03  0.57569910123E+03  0.00000000000E+00 0.  1.
         -6    2    1    2    0  503  0.35989197783E+02 -0.66575304717E+02 -0.46310140377E+03  0.50013183634E+03  0.17303597890E+03 0.  0.
        -24    2    3    3    0    0  0.25120504948E+02 -0.79877832874E+01 -0.41224203799E+03  0.42165004713E+03  0.84560155512E+02 0.  0.
          6    2    1    2  501    0 -0.35989197783E+02  0.66575304717E+02  0.99795319776E+00  0.18916291555E+03  0.17336123891E+03 0.  0.
         24    2    5    5    0    0 -0.65368894682E+02  0.25830968830E+02 -0.50094912986E+02  0.11735874805E+03  0.79518828545E+02 0.  0.
          5    1    5    5  501    0  0.29379696899E+02  0.40744335887E+02  0.51092866184E+02  0.71804167509E+02  0.47000000000E+01 0. -1.
        -13    1    6    6    0    0 -0.86297734743E+01  0.45297687295E+02 -0.23200951028E+02  0.51620127791E+02  0.00000000000E+00 0.  1.
         14    1    6    6    0    0 -0.56739121208E+02 -0.19466718466E+02 -0.26893961958E+02  0.65738620255E+02  0.00000000000E+00 0. -1.
         -5    1    3    3    0  503  0.10868692835E+02 -0.58587521430E+02 -0.50859365772E+02  0.78481789212E+02  0.47000000000E+01 0.  1.
         11    1    4    4    0    0 -0.15799696045E+02  0.28144054968E+02 -0.19507869950E+03  0.19773066839E+03  0.00000000000E+00 0. -1.
        -12    1    4    4    0    0  0.40920200993E+02 -0.36131838256E+02 -0.21716333850E+03  0.22391937873E+03  0.00000000000E+00 0.  1.
</event>
<event>
12    1  0.8407180E-002  0.1845330E+03  0.7818608E-02  0.1164721E+00
         21   -1    0    0  501  502  0.00000000000E+00  0.00000000000E+00  0.50974463531E+03  0.50974463531E+03  0.00000000000E+00 0.  1.
         21   -1    0    0  502  503 -0.00000000000E+00 -0.00000000000E+00 -0.70556405353E+02  0.70556405353E+02  0.00000000000E+00 0.  1.
         -6    2    1    2    0  503 -0.64226482579E+02 -0.15432134157E+02  0.14059957817E+03  0.23199283601E+03  0.17230566662E+03 0.  0.
        -24    2    3    3    0    0  0.75617858604E+01 -0.46015871614E+02  0.31056948073E+02  0.97417213064E+02  0.79692774652E+02 0.  0.
          6    2    1    2  501    0  0.64226482579E+02  0.15432134157E+02  0.29858865179E+03  0.34830820465E+03  0.16673401160E+03 0.  0.
         24    2    5    5    0    0  0.98430374869E+02 -0.20311638141E+02  0.20108349548E+03  0.23886932211E+03  0.80764345787E+02 0.  0.
          5    1    5    5  501    0 -0.34203892290E+02  0.35743772298E+02  0.97505156309E+02  0.10943888254E+03  0.47000000000E+01 0. -1.
        -11    1    6    6    0    0  0.10093904520E+03  0.57830216361E+01  0.17354612555E+03  0.20084917695E+03  0.00000000000E+00 0.  1.
         12    1    6    6    0    0 -0.25086703354E+01 -0.26094659777E+02  0.27537369924E+02  0.38020145161E+02  0.00000000000E+00 0. -1.
         -5    1    3    3    0  503 -0.71788268440E+02  0.30583737456E+02  0.10954263010E+03  0.13457562294E+03  0.47000000000E+01 0.  1.
         13    1    4    4    0    0  0.40940013574E+01 -0.35803289325E+02  0.58063081259E+02  0.68337089336E+02  0.00000000000E+00 0. -1.
        -14    1    4    4    0    0  0.34677845030E+01 -0.10212582289E+02 -0.27006133186E+02  0.29080123728E+02  0.00000000000E+00 0.  1.
</event>
<event>
12    1  0.8407180E-002  0.2033317E+03  0.7818608E-02  0.1147098E+00
         21   -1    0    0  501  502  0.00000000000E+00  0.00000000000E+00  0.52534763722E+02  0.52534763722E+02  0.00000000000E+00 0. -1.
         21   -1    0    0  502  503 -0.00000000000E+00 -0.00000000000E+00 -0.13491515934E+04  0.13491515934E+04  0.00000000000E+00 0. -1.
         -6    2    1    2    0  503 -0.85572847492E+02  0.64545903418E+02 -0.11023915578E+04  0.11209865853E+04  0.17278568169E+03 0.  0.
        -24    2    3    3    0    0  0.52126689412E+01  0.33779032938E+02 -0.29317499626E+03  0.30609877473E+03  0.81096772292E+02 0.  0.
          6    2    1    2  501    0  0.85572847492E+02 -0.64545903418E+02 -0.19422527190E+03  0.28069977186E+03  0.17198842927E+03 0.  0.
         24    2    5    5    0    0  0.21108390583E+01 -0.58225703404E+02 -0.16411161386E+03  0.19162242244E+03  0.79949001228E+02 0.  0.
          5    1    5    5  501    0  0.83462008433E+02 -0.63202000141E+01 -0.30113658033E+02  0.89077349422E+02  0.47000000000E+01 0. -1.
        -13    1    6    6    0    0  0.27202378317E+01 -0.65995073532E+02 -0.16965468061E+03  0.18205894671E+03  0.00000000000E+00 0.  1.
         14    1    6    6    0    0 -0.60939877339E+00  0.77693701284E+01  0.55430667453E+01  0.95634757280E+01  0.00000000000E+00 0. -1.
         -5    1    3    3    0  503 -0.90785516433E+02  0.30766870480E+02 -0.80921656152E+03  0.81488781053E+03  0.47000000000E+01 0.  1.
         13    1    4    4    0    0 -0.30252175332E+02  0.23256245101E+02 -0.68609865995E+02  0.78507074588E+02  0.00000000000E+00 0. -1.
        -14    1    4    4    0    0  0.35464844273E+02  0.10522787837E+02 -0.22456513027E+03  0.22759170014E+03  0.00000000000E+00 0.  1.
</event>
<event>
12    1  0.8407180E-002  0.1988904E+03  0.7818608E-02  0.1150934E+00
         21   -1    0    0  501  502  0.00000000000E+00  0.00000000000E+00  0.22311561065E+03  0.22311561065E+03  0.00000000000E+00 0. -1.
         21   -1    0    0  502  503 -0.00000000000E+00 -0.00000000000E+00 -0.21340668297E+03  0.21340668297E+03  0.00000000000E+00 0. -1.
         -6    2    1    2    0  503 -0.48018291795E+02 -0.86297287057E+02 -0.86231407162E+02  0.21677922221E+03  0.17263950156E+03 0.  0.
        -24    2    3    3    0    0 -0.10547355132E+03 -0.61464790299E+02 -0.40321598195E+02  0.13901316083E+03  0.52879458467E+02 0.  0.
          6    2    1    2  501    0  0.48018291795E+02  0.86297287057E+02  0.95940334837E+02  0.21974307142E+03  0.17125855158E+03 0.  0.
         24    2    5    5    0    0  0.24735136578E+02  0.55898199350E+02 -0.14038649236E+02  0.10319403973E+03  0.81948096323E+02 0.  0.
          5    1    5    5  501    0  0.23283155217E+02  0.30399087707E+02  0.10997898407E+03  0.11654903169E+03  0.47000000000E+01 0. -1.
        -11    1    6    6    0    0  0.18099956450E+02  0.59034520244E+02  0.22656378136E+02  0.65772292602E+02  0.00000000000E+00 0.  1.
         12    1    6    6    0    0  0.66351801283E+01 -0.31363208937E+01 -0.36695027372E+02  0.37421747126E+02  0.00000000000E+00 0. -1.
         -5    1    3    3    0  503  0.57455259527E+02 -0.24832496758E+02 -0.45909808967E+02  0.77766061376E+02  0.47000000000E+01 0.  1.
         13    1    4    4    0    0 -0.88884106450E+02 -0.36245544915E+02 -0.48766779321E+02  0.10766764914E+03  0.00000000000E+00 0. -1.
        -14    1    4    4    0    0 -0.16589444872E+02 -0.25219245384E+02  0.84451811263E+01  0.31345511691E+02  0.00000000000E+00 0.  1.
</event>
<event>
12    1  0.8407180E-002  0.1964244E+03  0.7818608E-02  0.1152915E+00
         21   -1    0    0  501  502  0.00000000000E+00  0.00000000000E+00  0.45077332854E+03  0.45077332854E+03  0.00000000000E+00 0. -1.
         21   -1    0    0  502  503 -0.00000000000E+00 -0.00000000000E+00 -0.12211171611E+03  0.12211171611E+03  0.00000000000E+00 0. -1.
         -6    2    1    2    0  503  0.90869350687E+02 -0.27165331093E+02  0.73187233195E+01  0.19656068871E+03  0.17200972800E+03 0.  0.
        -24    2    3    3    0    0  0.10154944819E+03 -0.24674567470E+02 -0.47921417272E+02  0.14004669470E+03  0.79971806011E+02 0.  0.
          6    2    1    2  501    0 -0.90869350687E+02  0.27165331093E+02  0.32134288911E+03  0.37632435594E+03  0.17135802982E+03 0.  0.
         24    2    5    5    0    0 -0.10227820467E+02  0.49355080798E+02  0.24703173346E+03  0.26434364670E+03  0.79450323479E+02 0.  0.
          5    1    5    5  501    0 -0.80641530220E+02 -0.22189749705E+02  0.74311155644E+02  0.11198070924E+03  0.47000000000E+01 0. -1.
        -13    1    6    6    0    0 -0.97628518129E+00 -0.21922428930E+01 -0.57306216146E+01  0.62128162492E+01  0.00000000000E+00 0.  1.
         14    1    6    6    0    0 -0.92515352862E+01  0.51547323691E+02  0.25276235508E+03  0.25813083045E+03  0.00000000000E+00 0. -1.
         -5    1    3    3    0  503 -0.10680097501E+02 -0.24907636236E+01  0.55240140591E+02  0.56513994007E+02  0.47000000000E+01 0.  1.
         13    1    4    4    0    0  0.62892983353E+02  0.13400255278E+02  0.46816489011E+01  0.64474894594E+02  0.00000000000E+00 0. -1.
        -14    1    4    4    0    0  0.38656464835E+02 -0.38074822748E+02 -0.52603066173E+02  0.75571800108E+02  0.00000000000E+00 0.  1.
</event>
<event>
12    1  0.8407180E-002  0.1976104E+03  0.7818608E-02  0.1154007E+00
         21   -1    0    0  503  502  0.00000000000E+00  0.00000000000E+00  0.13357024184E+03  0.13357024184E+03  0.00000000000E+00 0.  1.
         21   -1    0    0  501  503 -0.00000000000E+00 -0.00000000000E+00 -0.32746079519E+03  0.32746079519E+03  0.00000000000E+00 0.  1.
          6    2    1    2  501    0  0.36851132330E+02  0.64628544130E+02 -0.91284320868E+01  0.19782110068E+03  0.18307103794E+03 0.  0.
         24    2    3    3    0    0 -0.28724215377E+02 -0.12512563775E+02  0.30315014654E+02  0.89061033346E+02  0.77660947367E+02 0.  0.
         -6    2    1    2    0  502 -0.36851132330E+02 -0.64628544130E+02 -0.18476212127E+03  0.26320993635E+03  0.17206851678E+03 0.  0.
        -24    2    5    5    0    0  0.16995857883E+01  0.64917951438E+01 -0.16205241572E+03  0.17905483400E+03  0.75859186260E+02 0.  0.
          5    1    3    3  501    0  0.65575347707E+02  0.77141107905E+02 -0.39443446741E+02  0.10876006733E+03  0.47000000000E+01 0. -1.
        -13    1    4    4    0    0 -0.54937216308E+02 -0.13813291858E+02  0.14706189673E+02  0.58525009887E+02  0.00000000000E+00 0.  1.
         14    1    4    4    0    0  0.26213000931E+02  0.13007280831E+01  0.15608824981E+02  0.30536023458E+02  0.00000000000E+00 0. -1.
         -5    1    5    5    0  502 -0.38550718119E+02 -0.71120339273E+02 -0.22709705546E+02  0.84155102352E+02  0.47000000000E+01 0.  1.
         13    1    6    6    0    0 -0.11180073630E+02  0.39197767425E+02 -0.79837792511E+02  0.89641129681E+02  0.00000000000E+00 0. -1.
        -14    1    6    6    0    0  0.12879659418E+02 -0.32705972282E+02 -0.82214623211E+02  0.89413704316E+02  0.00000000000E+00 0.  1.
</event>
<event>
12    1  0.8407180E-002  0.2838575E+03  0.7818608E-02  0.1093616E+00
         21   -1    0    0  501  502  0.00000000000E+00  0.00000000000E+00  0.56763830796E+02  0.56763830796E+02  0.00000000000E+00 0.  1.
         21   -1    0    0  502  503 -0.00000000000E+00 -0.00000000000E+00 -0.14554877115E+04  0.14554877115E+04  0.00000000000E+00 0. -1.
         -6    2    1    2    0  503 -0.18659329206E+03 -0.12724886103E+03 -0.57964746869E+03  0.64541943567E+03  0.17194688336E+03 0.  0.
        -24    2    3    3    0    0 -0.14686468899E+03 -0.45816843847E+02 -0.48226418007E+03  0.51232123798E+03  0.78904318348E+02 0.  0.
          6    2    1    2  501    0  0.18659329206E+03  0.12724886103E+03 -0.81907641199E+03  0.86683210661E+03  0.17176263590E+03 0.  0.
         24    2    5    5    0    0  0.19379784030E+03  0.14780103464E+03 -0.69522057330E+03  0.74098832992E+03  0.79556965615E+02 0.  0.
          5    1    5    5  501    0 -0.72045482402E+01 -0.20552173614E+02 -0.12385583868E+03  0.12584377669E+03  0.47000000000E+01 0. -1.
        -11    1    6    6    0    0  0.87086508575E+01 -0.96020935662E+01 -0.46015170205E+02  0.47806241116E+02  0.00000000000E+00 0.  1.
         12    1    6    6    0    0  0.18508918945E+03  0.15740312821E+03 -0.64920540310E+03  0.69318208880E+03  0.00000000000E+00 0. -1.
         -5    1    3    3    0  503 -0.39728603071E+02 -0.81432017184E+02 -0.97383288624E+02  0.13309819769E+03  0.47000000000E+01 0.  1.
         13    1    4    4    0    0 -0.74437557661E+02 -0.59085737082E+02 -0.21437164651E+03  0.23449366120E+03  0.00000000000E+00 0. -1.
        -14    1    4    4    0    0 -0.72427131332E+02  0.13268893235E+02 -0.26789253356E+03  0.27782757677E+03  0.00000000000E+00 0.  1.
</event>
<event>
12    1  0.8407180E-002  0.1850863E+03  0.7818608E-02  0.1162998E+00
         21   -1    0    0  501  502  0.00000000000E+00  0.00000000000E+00  0.39708357267E+02  0.39708357267E+02  0.00000000000E+00 0. -1.
         21   -1    0    0  502  503 -0.00000000000E+00 -0.00000000000E+00 -0.11083062963E+04  0.11083062963E+04  0.00000000000E+00 0. -1.
         -6    2    1    2    0  503 -0.60002954186E-01 -0.67601458202E+02 -0.26391892365E+03  0.32235096249E+03  0.17229911204E+03 0.  0.
        -24    2    3    3    0    0 -0.28964908560E+02 -0.90515860605E+01 -0.23358529374E+03  0.25019973104E+03  0.84361832759E+02 0.  0.
          6    2    1    2  501    0  0.60002954186E-01  0.67601458202E+02 -0.80467901539E+03  0.82566369108E+03  0.17216925454E+03 0.  0.
         24    2    5    5    0    0  0.39566695772E+02 -0.18538365587E+02 -0.37799729872E+03  0.38855932670E+03  0.78658744670E+02 0.  0.
          5    1    5    5  501    0 -0.39506692817E+02  0.86139823789E+02 -0.42668171667E+03  0.43710436438E+03  0.47000000000E+01 0. -1.
        -11    1    6    6    0    0 -0.65705182010E+01  0.23192770662E+02 -0.62507811547E+02  0.66994796998E+02  0.00000000000E+00 0.  1.
         12    1    6    6    0    0  0.46137213973E+02 -0.41731136249E+02 -0.31548948718E+03  0.32156452971E+03  0.00000000000E+00 0. -1.
         -5    1    3    3    0  503  0.28904905606E+02 -0.58549872142E+02 -0.30333629911E+02  0.72151231448E+02  0.47000000000E+01 0.  1.
         11    1    4    4    0    0 -0.16847887039E+02 -0.44594642608E+02 -0.90729384015E+02  0.10249075359E+03  0.00000000000E+00 0. -1.
        -12    1    4    4    0    0 -0.12117021521E+02  0.35543056547E+02 -0.14285590972E+03  0.14770897746E+03  0.00000000000E+00 0.  1.
</event>
<event>
12    1  0.8407180E-002  0.1894139E+03  0.7818608E-02  0.1159051E+00
         21   -1    0    0  501  502  0.00000000000E+00  0.00000000000E+00  0.40067732550E+03  0.40067732550E+03  0.00000000000E+00 0. -1.
         21   -1    0    0  502  503 -0.00000000000E+00 -0.00000000000E+00 -0.14167994254E+03  0.14167994254E+03  0.00000000000E+00 0.  1.
         -6    2    1    2    0  503  0.20668491672E+02 -0.75914791328E+02 -0.35260934724E+02  0.19240643178E+03  0.17200773059E+03 0.  0.
        -24    2    3    3    0    0 -0.21133535790E+02  0.13478162851E+02 -0.42180279875E+02  0.93368675877E+02  0.79437059461E+02 0.  0.
          6    2    1    2  501    0 -0.20668491672E+02  0.75914791328E+02  0.29425831769E+03  0.34995083627E+03  0.17230028493E+03 0.  0.
         24    2    5    5    0    0 -0.43755352689E+02 -0.14229128004E+02  0.10938704829E+03  0.14292811869E+03  0.79661294283E+02 0.  0.
          5    1    5    5  501    0  0.23086861017E+02  0.90143919332E+02  0.18487126940E+03  0.20702271758E+03  0.47000000000E+01 0. -1.
        -11    1    6    6    0    0 -0.47620304921E+02  0.40094624946E+01  0.20317869301E+02  0.51928653393E+02  0.00000000000E+00 0.  1.
         12    1    6    6    0    0  0.38649522322E+01 -0.18238590499E+02  0.89069178989E+02  0.90999465300E+02  0.00000000000E+00 0. -1.
         -5    1    3    3    0  503  0.41802027463E+02 -0.89392954179E+02  0.69193451507E+01  0.99037755902E+02  0.47000000000E+01 0.  1.
         13    1    4    4    0    0  0.84223399544E+01  0.37694141275E+02 -0.39218958638E+02  0.55044625654E+02  0.00000000000E+00 0. -1.
        -14    1    4    4    0    0 -0.29555875745E+02 -0.24215978424E+02 -0.29613212376E+01  0.38324050223E+02  0.00000000000E+00 0.  1.
</event>
<event>
12    1  0.8407180E-002  0.1920533E+03  0.7818608E-02  0.1159599E+00
         21   -1    0    0  501  502  0.00000000000E+00  0.00000000000E+00  0.20796670379E+04  0.20796670379E+04  0.00000000000E+00 0. -1.
         21   -1    0    0  502  503 -0.00000000000E+00 -0.00000000000E+00 -0.27274597598E+02  0.27274597598E+02  0.00000000000E+00 0. -1.
         -6    2    1    2    0  503  0.47361978491E+02 -0.26468652256E+02  0.38795237833E+03  0.43288742643E+03  0.18423009946E+03 0.  0.
        -24    2    3    3    0    0  0.66347206241E+02  0.65659722520E+01  0.14211827297E+03  0.18407379608E+03  0.96127494103E+02 0.  0.
          6    2    1    2  501    0 -0.47361978491E+02  0.26468652256E+02  0.16644400620E+04  0.16740542091E+04  0.17074257951E+03 0.  0.
         24    2    5    5    0    0 -0.85305927625E+02  0.17179906406E+02  0.15125696482E+04  0.15171697400E+04  0.79779876310E+02 0.  0.
          5    1    5    5  501    0  0.37943949134E+02  0.92887458496E+01  0.15187041374E+03  0.15688446910E+03  0.47000000000E+01 0. -1.
        -13    1    6    6    0    0 -0.91942366497E+02  0.98808352317E+01  0.94482838005E+03  0.94934277129E+03  0.00000000000E+00 0.  1.
         14    1    6    6    0    0  0.66364388722E+01  0.72990711744E+01  0.56774126818E+03  0.56782696867E+03  0.00000000000E+00 0. -1.
         -5    1    3    3    0  503 -0.18985227751E+02 -0.33034624508E+02  0.24583410536E+03  0.24881363035E+03  0.47000000000E+01 0.  1.
         11    1    4    4    0    0 -0.36753005651E+01 -0.34668424858E+02  0.32850657648E+02  0.47901703772E+02  0.00000000000E+00 0. -1.
        -12    1    4    4    0    0  0.70022506806E+02  0.41234397110E+02  0.10926761533E+03  0.13617209231E+03  0.00000000000E+00 0.  1.
</event>
<event>
12    1  0.8407180E-002  0.2294749E+03  0.7818608E-02  0.1127140E+00
         21   -1    0    0  503  502  0.00000000000E+00  0.00000000000E+00  0.12329414679E+03  0.12329414679E+03  0.00000000000E+00 0.  1.
         21   -1    0    0  501  503 -0.00000000000E+00 -0.00000000000E+00 -0.70629678691E+03  0.70629678691E+03  0.00000000000E+00 0. -1.
          6    2    1    2  501    0 -0.14919627915E+03 -0.15844898427E+02 -0.55265072988E+03  0.59811741930E+03  0.17265870240E+03 0.  0.
         24    2    3    3    0    0 -0.11710448237E+03 -0.75005903885E+02 -0.40828868701E+03  0.43876749803E+03  0.80485526508E+02 0.  0.
         -6    2    1    2    0  502  0.14919627915E+03  0.15844898427E+02 -0.30351910251E+02  0.23147351440E+03  0.17363225189E+03 0.  0.
        -24    2    5    5    0    0  0.44462837966E+02  0.62777124624E+02 -0.35271598075E+02  0.11650386238E+03  0.80069675798E+02 0.  0.
          5    1    3    3  501    0 -0.32091796781E+02  0.59161005458E+02 -0.14436204287E+03  0.15934992127E+03  0.47000000000E+01 0. -1.
        -11    1    4    4    0    0 -0.38251457904E+01  0.12343446402E+02 -0.12734825990E+02  0.18142993204E+02  0.00000000000E+00 0.  1.
         12    1    4    4    0    0 -0.11327933658E+03 -0.87349350287E+02 -0.39555386102E+03  0.42062450483E+03  0.00000000000E+00 0. -1.
         -5    1    5    5    0  502  0.10473344118E+03 -0.46932226197E+02  0.49196878237E+01  0.11496965202E+03  0.47000000000E+01 0.  1.
         13    1    6    6    0    0  0.51922777193E+02  0.78220716290E+02 -0.29857202853E+02  0.98518565817E+02  0.00000000000E+00 0. -1.
        -14    1    6    6    0    0 -0.74599392271E+01 -0.15443591666E+02 -0.54143952222E+01  0.17985296562E+02  0.00000000000E+00 0.  1.
</event>
<event>
12    1  0.8407180E-002  0.2869853E+03  0.7818608E-02  0.1091988E+00
         21   -1    0    0  501  502  0.00000000000E+00  0.00000000000E+00  0.96286124064E+02  0.96286124064E+02  0.00000000000E+00 0. -1.
         21   -1    0    0  502  503 -0.00000000000E+00 -0.00000000000E+00 -0.86149853182E+03  0.86149853182E+03  0.00000000000E+00 0. -1.
         -6    2    1    2    0  503 -0.29716002469E+02 -0.22783658445E+03 -0.33864058361E+03  0.44388966081E+03  0.17195358704E+03 0.  0.
        -24    2    3    3    0    0  0.17806244463E+02 -0.70742550936E+02 -0.20603521473E+03  0.23283712429E+03  0.80256126773E+02 0.  0.
          6    2    1    2  501    0  0.29716002469E+02  0.22783658445E+03 -0.42657182415E+03  0.51389499507E+03  0.17126585995E+03 0.  0.
         24    2    5    5    0    0 -0.47270952268E+02  0.13125952267E+03 -0.20936961521E+03  0.26398899348E+03  0.79943403022E+02 0.  0.
          5    1    5    5  501    0  0.76986954737E+02  0.96577061775E+02 -0.21720220894E+03  0.24990600158E+03  0.47000000000E+01 0. -1.
        -11    1    6    6    0    0 -0.11578941169E+02 -0.85368031414E+01 -0.86227839790E+01  0.16772038934E+02  0.00000000000E+00 0.  1.
         12    1    6    6    0    0 -0.35692011099E+02  0.13979632581E+03 -0.20074683123E+03  0.24721695455E+03  0.00000000000E+00 0. -1.
         -5    1    3    3    0  503 -0.47522246932E+02 -0.15709403351E+03 -0.13260536888E+03  0.21105253653E+03  0.47000000000E+01 0.  1.
         11    1    4    4    0    0 -0.15317306623E+01 -0.82931531730E+02 -0.17999432077E+03  0.19818663089E+03  0.00000000000E+00 0. -1.
        -12    1    4    4    0    0  0.19337975125E+02  0.12188980794E+02 -0.26040893959E+02  0.34650493401E+02  0.00000000000E+00 0.  1.
</event>
<event>
12    1  0.8407180E-002  0.1728754E+03  0.7818608E-02  0.1174890E+00
         21   -1    0    0  503  502  0.00000000000E+00  0.00000000000E+00  0.11682161150E+03  0.11682161150E+03  0.00000000000E+00 0. -1.
         21   -1    0    0  501  503 -0.00000000000E+00 -0.00000000000E+00 -0.41266578093E+03  0.41266578093E+03  0.00000000000E+00 0. -1.
          6    2    1    2  501    0 -0.99283905554E+01 -0.64648497611E+01 -0.31116811230E+03  0.35596556255E+03  0.17246889687E+03 0.  0.
         24    2    3    3    0    0  0.59680162787E+02 -0.51489021813E+01 -0.21334590516E+03  0.23580584956E+03  0.80620657482E+02 0.  0.
         -6    2    1    2    0  502  0.99283905554E+01  0.64648497611E+01  0.15323942872E+02  0.17352182988E+03  0.17243733644E+03 0.  0.
        -24    2    5    5    0    0 -0.28757198920E+02 -0.41819814799E+02  0.46142841096E+02  0.10424067694E+03  0.78492569999E+02 0.  0.
          5    1    3    3  501    0 -0.69608553342E+02 -0.13159475798E+01 -0.97822207141E+02  0.12015971299E+03  0.47000000000E+01 0. -1.
        -13    1    4    4    0    0  0.29920557541E+01  0.31538252120E+02 -0.86289356963E+02  0.91920981661E+02  0.00000000000E+00 0.  1.
         14    1    4    4    0    0  0.56688107032E+02 -0.36687154302E+02 -0.12705654820E+03  0.14388486789E+03  0.00000000000E+00 0. -1.
         -5    1    5    5    0  502  0.38685589475E+02  0.48284664560E+02 -0.30818898225E+02  0.69281152939E+02  0.47000000000E+01 0.  1.
         11    1    6    6    0    0 -0.14790939389E+02 -0.63825525012E+02  0.42069271092E+02  0.77860728877E+02  0.00000000000E+00 0. -1.
        -12    1    6    6    0    0 -0.13966259530E+02  0.22005710213E+02  0.40735700041E+01  0.26379948063E+02  0.00000000000E+00 0.  1.
</event>
<event>
12    1  0.8407180E-002  0.1904136E+03  0.7818608E-02  0.1158501E+00
         21   -1    0    0  501  502  0.00000000000E+00  0.00000000000E+00  0.43136227107E+02  0.43136227107E+02  0.00000000000E+00 0.  1.
         21   -1    0    0  502  503 -0.00000000000E+00 -0.00000000000E+00 -0.12020685626E+04  0.12020685626E+04  0.00000000000E+00 0.  1.
         -6    2    1    2    0  503 -0.74004285881E+02  0.49618764797E+01 -0.92275143283E+03  0.94182587963E+03  0.17339125180E+03 0.  0.
        -24    2    3    3    0    0 -0.69870391544E+02  0.63500566130E+01 -0.26508059173E+03  0.28412378798E+03  0.74407069225E+02 0.  0.
          6    2    1    2  501    0  0.74004285881E+02 -0.49618764797E+01 -0.23618090263E+03  0.30337891004E+03  0.17537414218E+03 0.  0.
         24    2    5    5    0    0  0.88351635254E+02 -0.32394667237E+02 -0.88268921304E+02  0.15218880236E+03  0.80713091735E+02 0.  0.
          5    1    5    5  501    0 -0.14347349373E+02  0.27432790757E+02 -0.14791198133E+03  0.15119010769E+03  0.47000000000E+01 0. -1.
        -11    1    6    6    0    0  0.73341454349E+02 -0.30608289826E+02 -0.10365829986E+03  0.13061730154E+03  0.00000000000E+00 0.  1.
         12    1    6    6    0    0  0.15010180906E+02 -0.17863774106E+01  0.15389378557E+02  0.21571500816E+02  0.00000000000E+00 0. -1.
         -5    1    3    3    0  503 -0.41338943374E+01 -0.13881801332E+01 -0.65767084109E+03  0.65770209164E+03  0.47000000000E+01 0.  1.
         13    1    4    4    0    0 -0.32509696764E+01 -0.21327240413E+02 -0.12192317163E+03  0.12381712227E+03  0.00000000000E+00 0. -1.
        -14    1    4    4    0    0 -0.66619421868E+02  0.27677297026E+02 -0.14315742010E+03  0.16030666571E+03  0.00000000000E+00 0.  1.
</event>
<event>
12    1  0.8407180E-002  0.2081448E+03  0.7818608E-02  0.1143348E+00
         21   -1    0    0  503  502  0.00000000000E+00  0.00000000000E+00  0.23360455611E+03  0.23360455611E+03  0.00000000000E+00 0.  1.
         21   -1    0    0  501  503 -0.00000000000E+00 -0.00000000000E+00 -0.24104620300E+03  0.24104620300E+03  0.00000000000E+00 0.  1.
          6    2    1    2  501    0  0.40372209339E+01 -0.11623483169E+03  0.11162957009E+03  0.23485454115E+03  0.17078834659E+03 0.  0.
         24    2    3    3    0    0  0.72711449751E+01 -0.14377149986E+03  0.58200005461E+02  0.17447627739E+03  0.79571458544E+02 0.  0.
         -6    2    1    2    0  502 -0.40372209339E+01  0.11623483169E+03 -0.11907121698E+03  0.23979621796E+03  0.17261933897E+03 0.  0.
        -24    2    5    5    0    0  0.24407223557E+02  0.87239814014E+01 -0.13237632700E+02  0.86204203480E+02  0.81142525010E+02 0.  0.
          5    1    3    3  501    0 -0.32339240412E+01  0.27536668173E+02  0.53429564625E+02  0.60378263761E+02  0.47000000000E+01 0. -1.
        -11    1    4    4    0    0  0.36792211059E+02 -0.12229428153E+03  0.49346246714E+02  0.13691095703E+03  0.00000000000E+00 0.  1.
         12    1    4    4    0    0 -0.29521066084E+02 -0.21477218330E+02  0.88537587462E+01  0.37565320361E+02  0.00000000000E+00 0. -1.
         -5    1    5    5    0  502 -0.28444444491E+02  0.10751085028E+03 -0.10583358428E+03  0.15359201448E+03  0.47000000000E+01 0.  1.
         13    1    6    6    0    0 -0.28940176116E+02 -0.19798450144E+01  0.36417461160E+01  0.29235524533E+02  0.00000000000E+00 0. -1.
        -14    1    6    6    0    0  0.53347399674E+02  0.10703826416E+02 -0.16879378816E+02  0.56968678948E+02  0.00000000000E+00 0.  1.
</event>
<event>
12    1  0.8407180E-002  0.1930067E+03  0.7818608E-02  0.1156560E+00
         21   -1    0    0  501  502  0.00000000000E+00  0.00000000000E+00  0.26348439454E+03  0.26348439454E+03  0.00000000000E+00 0.  1.
         21   -1    0    0  502  503 -0.00000000000E+00 -0.00000000000E+00 -0.18988516100E+03  0.18988516100E+03  0.00000000000E+00 0. -1.
         -6    2    1    2    0  503  0.66295132901E+02 -0.50914751208E+02 -0.80997859606E+02  0.20608057797E+03  0.17006232627E+03 0.  0.
        -24    2    3    3    0    0  0.28409012625E+02 -0.94274254528E+02 -0.73021268923E+02  0.14776145043E+03  0.82502323924E+02 0.  0.
          6    2    1    2  501    0 -0.66295132901E+02  0.50914751208E+02  0.15459709314E+03  0.24728897757E+03  0.17396614809E+03 0.  0.
         24    2    5    5    0    0 -0.26506695324E+02  0.98006764706E+02  0.11863054598E+03  0.17575954297E+03  0.80686304159E+02 0.  0.
          5    1    5    5  501    0 -0.39788437577E+02 -0.47092013498E+02  0.35966547162E+02  0.71529434604E+02  0.47000000000E+01 0. -1.
        -11    1    6    6    0    0 -0.48684009965E+02  0.94179258690E+02  0.88191661844E+02  0.13790444087E+03  0.00000000000E+00 0.  1.
         12    1    6    6    0    0  0.22177314641E+02  0.38275060157E+01  0.30438884136E+02  0.37855102093E+02  0.00000000000E+00 0. -1.
         -5    1    3    3    0  503  0.37886120276E+02  0.43359503320E+02 -0.79765906837E+01  0.58319127537E+02  0.47000000000E+01 0.  1.
         13    1    4    4    0    0 -0.25504813998E+02 -0.52872416405E+02 -0.21692017589E+02  0.62582198592E+02  0.00000000000E+00 0. -1.
        -14    1    4    4    0    0  0.53913826623E+02 -0.41401838124E+02 -0.51329251334E+02  0.85179251838E+02  0.00000000000E+00 0.  1.
</event>
<event>
12    1  0.8407180E-002  0.1764750E+03  0.7818608E-02  0.1171269E+00
         21   -1    0    0  503  502  0.00000000000E+00  0.00000000000E+00  0.56311247264E+03  0.56311247264E+03  0.00000000000E+00 0.  1.
         21   -1    0    0  501  503 -0.00000000000E+00 -0.00000000000E+00 -0.75101994555E+02  0.75101994555E+02  0.00000000000E+00 0.  1.
          6    2    1    2  501    0 -0.31793785589E+02 -0.27787941392E+02  0.80138872922E+02  0.19381864823E+03  0.17134881080E+03 0.  0.
         24    2    3    3    0    0 -0.75153079937E+02 -0.14119719574E+02  0.94249692535E+02  0.14598504159E+03  0.81125063462E+02 0.  0.
         -6    2    1    2    0  502  0.31793785589E+02  0.27787941392E+02  0.40787160516E+03  0.44439581896E+03  0.17130494191E+03 0.  0.
        -24    2    5    5    0    0  0.37534571034E+02 -0.18008070134E+02  0.37945485019E+03  0.38999146939E+03  0.79838764084E+02 0.  0.
          5    1    3    3  501    0  0.43359294348E+02 -0.13668221818E+02 -0.14110819612E+02  0.47833606639E+02  0.47000000000E+01 0. -1.
        -11    1    4    4    0    0  0.98591718611E+01 -0.22696234735E+02  0.12460955816E+02  0.27705554692E+02  0.00000000000E+00 0.  1.
         12    1    4    4    0    0 -0.85012251798E+02  0.85765151606E+01  0.81788736718E+02  0.11827948690E+03  0.00000000000E+00 0. -1.
         -5    1    5    5    0  502 -0.57407854446E+01  0.45796011526E+02  0.28416754972E+02  0.54404349572E+02  0.47000000000E+01 0.  1.
         13    1    6    6    0    0  0.42716145722E+02  0.53539652823E+01  0.92353387878E+02  0.10189446649E+03  0.00000000000E+00 0. -1.
        -14    1    6    6    0    0 -0.51815746881E+01 -0.23362035416E+02  0.28710146231E+03  0.28809700289E+03  0.00000000000E+00 0.  1.
</event>
<event>
12    1  0.8407180E-002  0.1917297E+03  0.7818608E-02  0.1158586E+00
         21   -1    0    0  503  502  0.00000000000E+00  0.00000000000E+00  0.99753653860E+03  0.99753653860E+03  0.00000000000E+00 0.  1.
         21   -1    0    0  501  503 -0.00000000000E+00 -0.00000000000E+00 -0.35570562006E+02  0.35570562006E+02  0.00000000000E+00 0.  1.
          6    2    1    2  501    0  0.51186173459E+02  0.50913304854E+02  0.50173142705E+03  0.53453301125E+03  0.16964352703E+03 0.  0.
         24    2    3    3    0    0  0.59393701303E+02  0.82379234399E+02  0.25586176488E+03  0.28647767667E+03  0.79311200296E+02 0.  0.
         -6    2    1    2    0  502 -0.51186173459E+02 -0.50913304854E+02  0.46023454955E+03  0.49857408936E+03  0.17761782854E+03 0.  0.
        -24    2    5    5    0    0  0.10280821655E+02 -0.87975768952E+02  0.29771076264E+03  0.32084426900E+03  0.80398479721E+02 0.  0.
          5    1    3    3  501    0 -0.82075278444E+01 -0.31465929544E+02  0.24586966217E+03  0.24805533458E+03  0.47000000000E+01 0. -1.
        -11    1    4    4    0    0  0.52434869695E+01  0.64169546311E+02  0.18231198366E+03  0.19334653919E+03  0.00000000000E+00 0.  1.
         12    1    4    4    0    0  0.54150214334E+02  0.18209688087E+02  0.73549781212E+02  0.93131137484E+02  0.00000000000E+00 0. -1.
         -5    1    5    5    0  502 -0.61466995114E+02  0.37062464097E+02  0.16252378691E+03  0.17772982036E+03  0.47000000000E+01 0.  1.
         13    1    6    6    0    0 -0.28027159038E+01  0.11335156380E+02  0.76120750313E+01  0.13938603692E+02  0.00000000000E+00 0. -1.
        -14    1    6    6    0    0  0.13083537559E+02 -0.99310925332E+02  0.29009868761E+03  0.30690566531E+03  0.00000000000E+00 0.  1.
</event>
<event>
12    1  0.8407180E-002  0.2051122E+03  0.7818608E-02  0.1145669E+00
         21   -1    0    0  503  502  0.00000000000E+00  0.00000000000E+00  0.13624134741E+03  0.13624134741E+03  0.00000000000E+00 0. -1.
         21   -1    0    0  501  503 -0.00000000000E+00 -0.00000000000E+00 -0.61794862667E+03  0.61794862667E+03  0.00000000000E+00 0. -1.
          6    2    1    2  501    0 -0.43719574182E+02 -0.10173594264E+03 -0.50836988367E+03  0.54818879614E+03  0.17265403092E+03 0.  0.
         24    2    3    3    0    0 -0.61375866096E+02 -0.12812758831E+02 -0.17686944537E+03  0.20448295118E+03  0.81236155062E+02 0.  0.
         -6    2    1    2    0  502  0.43719574182E+02  0.10173594264E+03  0.26662604414E+02  0.20600117795E+03  0.17165077236E+03 0.  0.
        -24    2    5    5    0    0  0.87880557886E+02  0.10229188049E+03  0.42378442915E+01  0.15624716891E+03  0.78794652100E+02 0.  0.
          5    1    3    3  501    0  0.17656291913E+02 -0.88923183806E+02 -0.33150043831E+03  0.34370584496E+03  0.47000000000E+01 0. -1.
        -13    1    4    4    0    0  0.15344533204E+01  0.98304629951E+01  0.46930219174E+01  0.11000772900E+02  0.00000000000E+00 0.  1.
         14    1    4    4    0    0 -0.62910319416E+02 -0.22643221826E+02 -0.18156246728E+03  0.19348217828E+03  0.00000000000E+00 0. -1.
         -5    1    5    5    0  502 -0.44160983704E+02 -0.55593785308E+00  0.22424760122E+02  0.49754009036E+02  0.47000000000E+01 0.  1.
         11    1    6    6    0    0  0.86972900674E+01  0.67294603870E+02 -0.97522916260E+01  0.68551540876E+02  0.00000000000E+00 0. -1.
        -12    1    6    6    0    0  0.79183267819E+02  0.34997276620E+02  0.13990135918E+02  0.87695628034E+02  0.00000000000E+00 0.  1.
</event>
<event>
12    1  0.8407180E-002  0.1763353E+03  0.7818608E-02  0.1171742E+00
         21   -1    0    0  501  502  0.00000000000E+00  0.00000000000E+00  0.40048502350E+03  0.40048502350E+03  0.00000000000E+00 0.  1.
         21   -1    0    0  502  503 -0.00000000000E+00 -0.00000000000E+00 -0.98445935263E+02  0.98445935263E+02  0.00000000000E+00 0.  1.
         -6    2    1    2    0  503  0.31880011766E+02  0.12653672852E+02  0.35142979425E+02  0.17980317697E+03  0.17296734623E+03 0.  0.
        -24    2    3    3    0    0  0.70427407850E+02 -0.23366152425E+02  0.61173431850E+02  0.12078619627E+03  0.73082963746E+02 0.  0.
          6    2    1    2  501    0 -0.31880011766E+02 -0.12653672852E+02  0.26689610881E+03  0.31912778179E+03  0.17155919568E+03 0.  0.
         24    2    5    5    0    0 -0.74602854794E+02  0.19274910222E+02  0.22519952571E+03  0.25126489962E+03  0.80511584842E+02 0.  0.
          5    1    5    5  501    0  0.42722843028E+02 -0.31928583075E+02  0.41696583098E+02  0.67862882164E+02  0.47000000000E+01 0. -1.
        -11    1    6    6    0    0 -0.45539570633E+02 -0.23675517881E+02  0.15955462874E+03  0.16760686798E+03  0.00000000000E+00 0.  1.
         12    1    6    6    0    0 -0.29063284161E+02  0.42950428103E+02  0.65644896972E+02  0.83658031647E+02  0.00000000000E+00 0. -1.
         -5    1    3    3    0  503 -0.38547396084E+02  0.36019825277E+02 -0.26030452425E+02  0.59016980703E+02  0.47000000000E+01 0.  1.
         13    1    4    4    0    0  0.93056421486E+01  0.10182585992E+02  0.47853043418E+02  0.49801544129E+02  0.00000000000E+00 0. -1.
        -14    1    4    4    0    0  0.61121765701E+02 -0.33548738417E+02  0.13320388432E+02  0.70984652142E+02  0.00000000000E+00 0.  1.
</event>
<event>
12    1  0.8407180E-002  0.2135536E+03  0.7818608E-02  0.1139637E+00
         21   -1    0    0  503  502  0.00000000000E+00  0.00000000000E+00  0.22926494385E+03  0.22926494385E+03  0.00000000000E+00 0.  1.
         21   -1    0    0  501  503 -0.00000000000E+00 -0.00000000000E+00 -0.25501106630E+03  0.25501106630E+03  0.00000000000E+00 0.  1.
          6    2    1    2  501    0  0.39855484296E+02  0.11823909713E+03 -0.13035214686E+03  0.24647867801E+03  0.16790209291E+03 0.  0.
         24    2    3    3    0    0 -0.51247084391E+01  0.62149097690E+02 -0.14341843792E+03  0.17325215456E+03  0.74556607642E+02 0.  0.
         -6    2    1    2    0  502 -0.39855484296E+02 -0.11823909713E+03  0.10460602442E+03  0.23779733214E+03  0.17330957017E+03 0.  0.
        -24    2    5    5    0    0 -0.86102064877E+02 -0.22919388920E+02  0.44294553081E+02  0.11579669049E+03  0.59228389579E+02 0.  0.
          5    1    3    3  501    0  0.44980192735E+02  0.56089999436E+02  0.13066291057E+02  0.73226523454E+02  0.47000000000E+01 0. -1.
        -11    1    4    4    0    0 -0.10315764130E+02  0.76625557132E+02 -0.95205130900E+02  0.12264545628E+03  0.00000000000E+00 0.  1.
         12    1    4    4    0    0  0.51910556913E+01 -0.14476459442E+02 -0.48213307019E+02  0.50606698280E+02  0.00000000000E+00 0. -1.
         -5    1    5    5    0  502  0.46246580581E+02 -0.95319708206E+02  0.60311471336E+02  0.12200064165E+03  0.47000000000E+01 0.  1.
         11    1    6    6    0    0  0.83696381010E+01 -0.54928968925E+01  0.93403606983E-04  0.10011131715E+02  0.00000000000E+00 0. -1.
        -12    1    6    6    0    0 -0.94471702978E+02 -0.17426492028E+02  0.44294459678E+02  0.10578555878E+03  0.00000000000E+00 0.  1.
</event>
<event>
12    1  0.8407180E-002  0.2605649E+03  0.7818608E-02  0.1106859E+00
         21   -1    0    0  503  502  0.00000000000E+00  0.00000000000E+00  0.83041428622E+02  0.83041428622E+02  0.00000000000E+00 0.  1.
         21   -1    0    0  501  503 -0.00000000000E+00 -0.00000000000E+00 -0.81842955663E+03  0.81842955663E+03  0.00000000000E+00 0. -1.
          6    2    1    2  501    0  0.27497379874E+02 -0.19380789030E+03 -0.38962783094E+03  0.46852268637E+03  0.17142361785E+03 0.  0.
         24    2    3    3    0    0  0.11030636349E+02 -0.19258604878E+02 -0.14106341658E+03  0.16431064721E+03  0.81280578796E+02 0.  0.
         -6    2    1    2    0  502 -0.27497379874E+02  0.19380789030E+03 -0.34576029707E+03  0.43294829888E+03  0.17197802835E+03 0.  0.
        -24    2    5    5    0    0  0.33005086900E+02  0.44180044868E+02 -0.10640999857E+03  0.14422750641E+03  0.80232622319E+02 0.  0.
          5    1    3    3  501    0  0.16466743524E+02 -0.17454928542E+03 -0.24856441436E+03  0.30421203915E+03  0.47000000000E+01 0. -1.
        -11    1    4    4    0    0  0.10995904296E+02 -0.34994731384E+02 -0.14374160393E+03  0.14834820469E+03  0.00000000000E+00 0.  1.
         12    1    4    4    0    0  0.34732053755E-01  0.15736126506E+02  0.26781873456E+01  0.15962442519E+02  0.00000000000E+00 0. -1.
         -5    1    5    5    0  502 -0.60502466774E+02  0.14962784543E+03 -0.23935029849E+03  0.28872079247E+03  0.47000000000E+01 0.  1.
         13    1    6    6    0    0 -0.10548114926E+02  0.23809670366E+02  0.15057283822E+01  0.26085059889E+02  0.00000000000E+00 0. -1.
        -14    1    6    6    0    0  0.43553201826E+02  0.20370374502E+02 -0.10791572695E+03  0.11814244652E+03  0.00000000000E+00 0.  1.
</event>
<event>
12    1  0.8407180E-002  0.1874850E+03  0.7818608E-02  0.1161283E+00
         21   -1    0    0  501  502  0.00000000000E+00  0.00000000000E+00  0.15730044420E+02  0.15730044420E+02  0.00000000000E+00 0.  1.
         21   -1    0    0  502  503 -0.00000000000E+00 -0.00000000000E+00 -0.22839980634E+04  0.22839980634E+04  0.00000000000E+00 0.  1.
         -6    2    1    2    0  503  0.24000697982E+02 -0.71832050749E+02 -0.13382331962E+04  0.13509839920E+04  0.16897864420E+03 0.  0.
        -24    2    3    3    0    0 -0.48380232590E+02 -0.19083615914E+02 -0.75871491965E+03  0.76456697370E+03  0.78800359606E+02 0.  0.
          6    2    1    2  501    0 -0.24000697982E+02  0.71832050749E+02 -0.93003482283E+03  0.94874411587E+03  0.17150728473E+03 0.  0.
         24    2    5    5    0    0 -0.55331865533E+02  0.10423673314E+03 -0.70808555475E+03  0.72221536913E+03  0.79265217367E+02 0.  0.
          5    1    5    5  501    0  0.31331167551E+02 -0.32404682388E+02 -0.22194926808E+03  0.22652874674E+03  0.47000000000E+01 0. -1.
        -13    1    6    6    0    0 -0.47203187813E+02  0.56686708357E+02 -0.22626785380E+03  0.23798879282E+03  0.00000000000E+00 0.  1.
         14    1    6    6    0    0 -0.81286777197E+01  0.47550024780E+02 -0.48181770095E+03  0.48422657631E+03  0.00000000000E+00 0. -1.
         -5    1    3    3    0  503  0.72380930572E+02 -0.52748434835E+02 -0.57951827655E+03  0.58641701830E+03  0.47000000000E+01 0.  1.
         13    1    4    4    0    0  0.44482047862E+01 -0.84233049096E+01 -0.96280651076E+01  0.13543936988E+02  0.00000000000E+00 0. -1.
        -14    1    4    4    0    0 -0.52828437377E+02 -0.10660311004E+02 -0.74908685454E+03  0.75102303671E+03  0.00000000000E+00 0.  1.
</event>
<event>
12    1  0.8407180E-002  0.1801325E+03  0.7818608E-02  0.1168025E+00
         21   -1    0    0  501  502  0.00000000000E+00  0.00000000000E+00  0.26926157671E+03  0.26926157671E+03  0.00000000000E+00 0.  1.
         21   -1    0    0  502  503 -0.00000000000E+00 -0.00000000000E+00 -0.15453701188E+03  0.15453701188E+03  0.00000000000E+00 0. -1.
         -6    2    1    2    0  503 -0.44377424987E+02  0.18708867682E+02 -0.43649248601E+02  0.18394452720E+03  0.17207833857E+03 0.  0.
        -24    2    3    3    0    0 -0.25010297666E+02  0.10161870637E+02  0.42569106577E+02  0.95041031489E+02  0.80572267112E+02 0.  0.
          6    2    1    2  501    0  0.44377424987E+02 -0.18708867682E+02  0.15837381343E+03  0.23985406140E+03  0.17357513765E+03 0.  0.
         24    2    5    5    0    0  0.49560200757E+02  0.46129374406E+02  0.60368486549E+02  0.12213408476E+03  0.81781708288E+02 0.  0.
          5    1    5    5  501    0 -0.51827757700E+01 -0.64838242089E+02  0.98005326884E+02  0.11771997664E+03  0.47000000000E+01 0. -1.
        -13    1    6    6    0    0  0.20224851343E+02 -0.15010728497E+02 -0.74120275205E+01  0.26254613572E+02  0.00000000000E+00 0.  1.
         14    1    6    6    0    0  0.29335349414E+02  0.61140102904E+02  0.67780514070E+02  0.95879471191E+02  0.00000000000E+00 0. -1.
         -5    1    3    3    0  503 -0.19367127321E+02  0.85469970457E+01 -0.86218355179E+02  0.88903495707E+02  0.47000000000E+01 0.  1.
         11    1    4    4    0    0 -0.32045814258E+02 -0.25806153848E+02  0.32240861721E+01  0.41270891916E+02  0.00000000000E+00 0. -1.
        -12    1    4    4    0    0  0.70355165916E+01  0.35968024485E+02  0.39345020405E+02  0.53770139573E+02  0.00000000000E+00 0.  1.
</event>
<event>
12    1  0.8407180E-002  0.1813540E+03  0.7818608E-02  0.1167128E+00
         21   -1    0    0  503  502  0.00000000000E+00  0.00000000000E+00  0.12584147225E+03  0.12584147225E+03  0.00000000000E+00 0.  1.
         21   -1    0    0  501  503 -0.00000000000E+00 -0.00000000000E+00 -0.26028717422E+03  0.26028717422E+03  0.00000000000E+00 0.  1.
          6    2    1    2  501    0 -0.34411499530E+02 -0.39436014144E+02 -0.87277044977E+02  0.20126240030E+03  0.17363732514E+03 0.  0.
         24    2    3    3    0    0 -0.66569739651E+02 -0.30107570760E+02 -0.11937986833E+01  0.10877679301E+03  0.80578964301E+02 0.  0.
         -6    2    1    2    0  502  0.34411499530E+02  0.39436014144E+02 -0.47168656991E+02  0.18486624618E+03  0.17091312489E+03 0.  0.
        -24    2    5    5    0    0  0.25812910042E+02 -0.39318799405E+01 -0.92273434603E+02  0.12153188787E+03  0.74658201365E+02 0.  0.
          5    1    3    3  501    0  0.32158240121E+02 -0.93284433833E+01 -0.86083246294E+02  0.92485607292E+02  0.47000000000E+01 0. -1.
        -13    1    4    4    0    0 -0.47770927239E+02 -0.57400553443E+02 -0.74555124403E+01  0.75049781416E+02  0.00000000000E+00 0.  1.
         14    1    4    4    0    0 -0.18798812411E+02  0.27292982683E+02  0.62617137570E+01  0.33727011593E+02  0.00000000000E+00 0. -1.
         -5    1    5    5    0  502  0.85985894878E+01  0.43367894084E+02  0.45104777612E+02  0.63334358305E+02  0.47000000000E+01 0.  1.
         13    1    6    6    0    0 -0.18642284065E+02 -0.81804727592E+01 -0.15551377754E+01  0.20417476417E+02  0.00000000000E+00 0. -1.
        -14    1    6    6    0    0  0.44455194107E+02  0.42485928187E+01 -0.90718296828E+02  0.10111441145E+03  0.00000000000E+00 0.  1.
</event>
<event>
12    1  0.8407180E-002  0.1889403E+03  0.7818608E-02  0.1159681E+00
         21   -1    0    0  501  502  0.00000000000E+00  0.00000000000E+00  0.79187305572E+02  0.79187305572E+02  0.00000000000E+00 0. -1.
         21   -1    0    0  502  503 -0.00000000000E+00 -0.00000000000E+00 -0.44892213768E+03  0.44892213768E+03  0.00000000000E+00 0. -1.
         -6    2    1    2    0  503 -0.59222862878E+02  0.52084977423E+02 -0.17401454130E+03  0.25686478182E+03  0.17169235042E+03 0.  0.
        -24    2    3    3    0    0 -0.73365813069E+02  0.92400193133E+02 -0.15294388166E+03  0.20899618715E+03  0.79794969059E+02 0.  0.
          6    2    1    2  501    0  0.59222862878E+02 -0.52084977423E+02 -0.19572029081E+03  0.27124466144E+03  0.17043192707E+03 0.  0.
         24    2    5    5    0    0 -0.15653549052E+01  0.30500217667E+02 -0.10056436051E+03  0.13127229652E+03  0.78654380776E+02 0.  0.
          5    1    5    5  501    0  0.60788217784E+02 -0.82585195090E+02 -0.95155930294E+02  0.13997236491E+03  0.47000000000E+01 0. -1.
        -11    1    6    6    0    0 -0.25240706832E+00  0.55178651104E+02 -0.47787511171E+02  0.72995845573E+02  0.00000000000E+00 0.  1.
         12    1    6    6    0    0 -0.13129478369E+01 -0.24678433436E+02 -0.52776849342E+02  0.58276450951E+02  0.00000000000E+00 0. -1.
         -5    1    3    3    0  503  0.14142950191E+02 -0.40315215711E+02 -0.21070659644E+02  0.47868594671E+02  0.47000000000E+01 0.  1.
         13    1    4    4    0    0 -0.68220958834E+02  0.77801738770E+02 -0.70733337797E+02  0.12534119377E+03  0.00000000000E+00 0. -1.
        -14    1    4    4    0    0 -0.51448542347E+01  0.14598454363E+02 -0.82210543862E+02  0.83654993377E+02  0.00000000000E+00 0.  1.
</event>
<event>
12    1  0.8407180E-002  0.1852739E+03  0.7818608E-02  0.1162875E+00
         21   -1    0    0  501  502  0.00000000000E+00  0.00000000000E+00  0.11581697493E+03  0.11581697493E+03  0.00000000000E+00 0. -1.
         21   -1    0    0  502  503 -0.00000000000E+00 -0.00000000000E+00 -0.41487121908E+03  0.41487121908E+03  0.00000000000E+00 0. -1.
         -6    2    1    2    0  503  0.12428328338E+02  0.67477243012E+02 -0.29156070210E+03  0.34526283284E+03  0.17172984325E+03 0.  0.
        -24    2    3    3    0    0 -0.36337490258E+02  0.23097713643E+02 -0.25197818218E+03  0.26821405885E+03  0.81190267246E+02 0.  0.
          6    2    1    2  501    0 -0.12428328338E+02 -0.67477243012E+02 -0.74935420525E+01  0.18542536117E+03  0.17210104509E+03 0.  0.
         24    2    5    5    0    0 -0.73242988093E+02 -0.40437632169E+02 -0.51961908306E+01  0.11866510938E+03  0.83992085255E+02 0.  0.
          5    1    5    5  501    0  0.60814659755E+02 -0.27039610843E+02 -0.22973512219E+01  0.66760251784E+02  0.47000000000E+01 0. -1.
        -13    1    6    6    0    0 -0.31228089241E+02  0.21813354358E+02  0.14927937840E+02  0.40912825791E+02  0.00000000000E+00 0.  1.
         14    1    6    6    0    0 -0.42014898852E+02 -0.62250986527E+02 -0.20124128671E+02  0.77752283593E+02  0.00000000000E+00 0. -1.
         -5    1    3    3    0  503  0.48765818596E+02  0.44379529369E+02 -0.39582519913E+02  0.77048773988E+02  0.47000000000E+01 0.  1.
         11    1    4    4    0    0 -0.30982482921E+01  0.45244488525E+02 -0.83020856389E+02  0.94599817547E+02  0.00000000000E+00 0. -1.
        -12    1    4    4    0    0 -0.33239241966E+02 -0.22146774882E+02 -0.16895732579E+03  0.17361424130E+03  0.00000000000E+00 0.  1.
</event>
<event>
12    1  0.8407180E-002  0.1852472E+03  0.7818608E-02  0.1163462E+00
         21   -1    0    0  503  502  0.00000000000E+00  0.00000000000E+00  0.33239053078E+02  0.33239053078E+02  0.00000000000E+00 0.  1.
         21   -1    0    0  501  503 -0.00000000000E+00 -0.00000000000E+00 -0.10177848771E+04  0.10177848771E+04  0.00000000000E+00 0.  1.
          6    2    1    2  501    0  0.30794246656E+02 -0.55802499965E+02 -0.50817700286E+03  0.54088850927E+03  0.17393765722E+03 0.  0.
         24    2    3    3    0    0  0.40761357399E+02 -0.49400335604E+02 -0.51464085935E+03  0.52659856715E+03  0.91372618426E+02 0.  0.
         -6    2    1    2    0  502 -0.30794246656E+02  0.55802499965E+02 -0.47636882113E+03  0.51013542087E+03  0.17102248172E+03 0.  0.
        -24    2    5    5    0    0  0.12601146197E+02 -0.26233261998E+02 -0.15678033582E+03  0.17731126864E+03  0.77538631458E+02 0.  0.
          5    1    3    3  501    0 -0.99671107437E+01 -0.64021643601E+01  0.64638564922E+01  0.14289942121E+02  0.47000000000E+01 0. -1.
        -11    1    4    4    0    0 -0.29918773076E+01 -0.64559653752E+02 -0.27135076438E+03  0.27894110051E+03  0.00000000000E+00 0.  1.
         12    1    4    4    0    0  0.43753234707E+02  0.15159318148E+02 -0.24329009497E+03  0.24765746664E+03  0.00000000000E+00 0. -1.
         -5    1    5    5    0  502 -0.43395392852E+02  0.82035761962E+02 -0.31958848531E+03  0.33282415222E+03  0.47000000000E+01 0.  1.
         13    1    6    6    0    0 -0.11816717980E+02 -0.31734386493E+02 -0.14631349689E+03  0.15018104235E+03  0.00000000000E+00 0. -1.
        -14    1    6    6    0    0  0.24417864176E+02  0.55011244949E+01 -0.10466838933E+02  0.27130226296E+02  0.00000000000E+00 0.  1.
</event>
<event>
12    1  0.8407180E-002  0.2532908E+03  0.7818608E-02  0.1111263E+00
         21   -1    0    0  501  502  0.00000000000E+00  0.00000000000E+00  0.26885715295E+03  0.26885715295E+03  0.00000000000E+00 0. -1.
         21   -1    0    0  502  503 -0.00000000000E+00 -0.00000000000E+00 -0.26518782534E+03  0.26518782534E+03  0.00000000000E+00 0.  1.
         -6    2    1    2    0  503  0.94710524399E+02 -0.15946783153E+03 -0.82873918818E+02  0.26650390096E+03  0.17249976836E+03 0.  0.
        -24    2    3    3    0    0 -0.82672517275E+01 -0.11351053829E+03 -0.54777483164E+02  0.15019399221E+03  0.81269138548E+02 0.  0.
          6    2    1    2  501    0 -0.94710524399E+02  0.15946783153E+03  0.86543246437E+02  0.26754107733E+03  0.17230328444E+03 0.  0.
         24    2    5    5    0    0 -0.66962140575E+02  0.13932809710E+02  0.36868154067E+02  0.11120771498E+03  0.79560314417E+02 0.  0.
          5    1    5    5  501    0 -0.27748383824E+02  0.14553502182E+03  0.49675092370E+02  0.15633336235E+03  0.47000000000E+01 0. -1.
        -11    1    6    6    0    0 -0.48835056852E+02  0.34701706102E+02  0.52377969726E+02  0.79577150595E+02  0.00000000000E+00 0.  1.
         12    1    6    6    0    0 -0.18127083722E+02 -0.20768896392E+02 -0.15509815659E+02  0.31630564386E+02  0.00000000000E+00 0. -1.
         -5    1    3    3    0  503  0.10297777613E+03 -0.45957293242E+02 -0.28096435655E+02  0.11630990875E+03  0.47000000000E+01 0.  1.
         11    1    4    4    0    0 -0.11071970638E+01  0.63416918605E+00  0.15766893045E+02  0.15818437729E+02  0.00000000000E+00 0. -1.
        -12    1    4    4    0    0 -0.71600546636E+01 -0.11414470747E+03 -0.70544376209E+02  0.13437555448E+03  0.00000000000E+00 0.  1.
</event>
<event>
12    1  0.8407180E-002  0.1837835E+03  0.7818608E-02  0.1164338E+00
         21   -1    0    0  501  502  0.00000000000E+00  0.00000000000E+00  0.70853817766E+03  0.70853817766E+03  0.00000000000E+00 0.  1.
         21   -1    0    0  502  503 -0.00000000000E+00 -0.00000000000E+00 -0.72850009224E+03  0.72850009224E+03  0.00000000000E+00 0.  1.
         -6    2    1    2    0  503 -0.60363472530E+02 -0.16534310643E+02 -0.70467727024E+03  0.72824887727E+03  0.17279826333E+03 0.  0.
        -24    2    3    3    0    0 -0.75624169175E+02  0.41982539883E+02 -0.53988420497E+03  0.55264718303E+03  0.80389088326E+02 0.  0.
          6    2    1    2  501    0  0.60363472530E+02  0.16534310643E+02  0.68471535567E+03  0.70878939263E+03  0.17213411216E+03 0.  0.
         24    2    5    5    0    0  0.17792627403E+02  0.28444091478E+02  0.63939419044E+03  0.64530539660E+03  0.80426862303E+02 0.  0.
          5    1    5    5  501    0  0.42570845127E+02 -0.11909780835E+02  0.45321165228E+02  0.63483996030E+02  0.47000000000E+01 0. -1.
        -11    1    6    6    0    0  0.45459132282E+02  0.36532527679E+02  0.42856620693E+03  0.43251607138E+03  0.00000000000E+00 0.  1.
         12    1    6    6    0    0 -0.27666504879E+02 -0.80884362006E+01  0.21082798351E+03  0.21278932521E+03  0.00000000000E+00 0. -1.
         -5    1    3    3    0  503  0.15260696646E+02 -0.58516850526E+02 -0.16479306527E+03  0.17560169424E+03  0.47000000000E+01 0.  1.
         11    1    4    4    0    0 -0.68922847772E+02  0.49689688571E+02 -0.28108153580E+03  0.29364307222E+03  0.00000000000E+00 0. -1.
        -12    1    4    4    0    0 -0.67013214030E+01 -0.77071486879E+01 -0.25880266917E+03  0.25900411081E+03  0.00000000000E+00 0.  1.
</event>
<event>
12    1  0.8407180E-002  0.1903196E+03  0.7818608E-02  0.1158245E+00
         21   -1    0    0  503  502  0.00000000000E+00  0.00000000000E+00  0.54537561081E+02  0.54537561081E+02  0.00000000000E+00 0. -1.
         21   -1    0    0  501  503 -0.00000000000E+00 -0.00000000000E+00 -0.94582448077E+03  0.94582448077E+03  0.00000000000E+00 0.  1.
          6    2    1    2  501    0 -0.29730347163E+02 -0.72027933431E+02 -0.71939754765E+03  0.74414675973E+03  0.17363655063E+03 0.  0.
         24    2    3    3    0    0  0.18334593732E+02 -0.66553458534E+02 -0.65499162076E+03  0.66345957465E+03  0.79994148217E+02 0.  0.
         -6    2    1    2    0  502  0.29730347163E+02  0.72027933431E+02 -0.17188937204E+03  0.25621528212E+03  0.17328703886E+03 0.  0.
        -24    2    5    5    0    0  0.76634351186E+02  0.30560980489E+02 -0.14815785593E+03  0.18909770889E+03  0.83668368715E+02 0.  0.
          5    1    3    3  501    0 -0.48064940894E+02 -0.54744748970E+01 -0.64405926890E+02  0.80687185086E+02  0.47000000000E+01 0. -1.
        -13    1    4    4    0    0 -0.21052926120E+02 -0.55437342531E+02 -0.48494897878E+03  0.48856119030E+03  0.00000000000E+00 0.  1.
         14    1    4    4    0    0  0.39387519852E+02 -0.11116116003E+02 -0.17004264199E+03  0.17489838435E+03  0.00000000000E+00 0. -1.
         -5    1    5    5    0  502 -0.46904004023E+02  0.41466952942E+02 -0.23731516107E+02  0.67117573231E+02  0.47000000000E+01 0.  1.
         11    1    6    6    0    0  0.51648287751E+02  0.59638810205E+02 -0.93561466023E+02  0.12238497144E+03  0.00000000000E+00 0. -1.
        -12    1    6    6    0    0  0.24986063435E+02 -0.29077829716E+02 -0.54596389908E+02  0.66712737449E+02  0.00000000000E+00 0.  1.
</event>
<event>
12    1  0.8407180E-002  0.1868432E+03  0.7818608E-02  0.1161569E+00
         21   -1    0    0  501  502  0.00000000000E+00  0.00000000000E+00  0.56832402640E+03  0.56832402640E+03  0.00000000000E+00 0. -1.
         21   -1    0    0  502  503 -0.00000000000E+00 -0.00000000000E+00 -0.61286875566E+02  0.61286875566E+02  0.00000000000E+00 0. -1.
         -6    2    1    2    0  503 -0.29746461081E+02  0.73451945459E+02  0.23554047224E+03  0.30003418914E+03  0.16811055991E+03 0.  0.
        -24    2    3    3    0    0  0.36850431232E+02  0.21865005658E+02  0.17222707444E+03  0.19454942833E+03  0.79694931694E+02 0.  0.
          6    2    1    2  501    0  0.29746461081E+02 -0.73451945459E+02  0.27149667860E+03  0.32957671282E+03  0.16920497306E+03 0.  0.
         24    2    5    5    0    0 -0.72711536618E+01 -0.10679294649E+03  0.16940815872E+03  0.21588378411E+03  0.80306169764E+02 0.  0.
          5    1    5    5  501    0  0.37017614742E+02  0.33341001028E+02  0.10208851987E+03  0.11369292872E+03  0.47000000000E+01 0. -1.
        -11    1    6    6    0    0 -0.43008234867E+02 -0.53131100572E+02  0.10022192584E+03  0.12131387610E+03  0.00000000000E+00 0.  1.
         12    1    6    6    0    0  0.35737081205E+02 -0.53661845915E+02  0.69186232881E+02  0.94569908007E+02  0.00000000000E+00 0. -1.
         -5    1    3    3    0  503 -0.66596892312E+02  0.51586939801E+02  0.63313397795E+02  0.10548476081E+03  0.47000000000E+01 0.  1.
         11    1    4    4    0    0  0.46334139401E+02  0.33003189424E+02  0.65203429263E+02  0.86530631420E+02  0.00000000000E+00 0. -1.
        -12    1    4    4    0    0 -0.94837081694E+01 -0.11138183766E+02  0.10702364518E+03  0.10801879691E+03  0.00000000000E+00 0.  1.
</event>
<event>
12    1  0.8407180E-002  0.1717884E+03  0.7818608E-02  0.1176041E+00
         21   -1    0    0  503  502  0.00000000000E+00  0.00000000000E+00  0.16708748189E+04  0.16708748189E+04  0.00000000000E+00 0.  1.
         21   -1    0    0  501  503 -0.00000000000E+00 -0.00000000000E+00 -0.18291623080E+02  0.18291623080E+02  0.00000000000E+00 0.  1.
          6    2    1    2  501    0 -0.64734057294E+01 -0.84193080512E+01  0.98562727510E+03  0.10004860800E+04  0.17145985296E+03 0.  0.
         24    2    3    3    0    0 -0.22802004447E+02 -0.66711988276E+01  0.97854196628E+03  0.98199363230E+03  0.78757080958E+02 0.  0.
         -6    2    1    2    0  502  0.64734057294E+01  0.84193080512E+01  0.66695592068E+03  0.68868036191E+03  0.17128237219E+03 0.  0.
        -24    2    5    5    0    0  0.51563173477E+01  0.41480018587E+02  0.63878451894E+03  0.64497151637E+03  0.78710963235E+02 0.  0.
          5    1    3    3  501    0  0.16328598718E+02 -0.17481092235E+01  0.70853088193E+01  0.18492447729E+02  0.47000000000E+01 0. -1.
        -13    1    4    4    0    0 -0.34263661814E+02  0.26449737642E+02  0.38673730919E+03  0.38915206984E+03  0.00000000000E+00 0.  1.
         14    1    4    4    0    0  0.11461657366E+02 -0.33120936469E+02  0.59180465710E+03  0.59284156246E+03  0.00000000000E+00 0. -1.
         -5    1    5    5    0  502  0.13170883818E+01 -0.33060710536E+02  0.28171401734E+02  0.43708845542E+02  0.47000000000E+01 0.  1.
         13    1    6    6    0    0 -0.46635417640E+01  0.62957410819E+02  0.39093462689E+03  0.39599907411E+03  0.00000000000E+00 0. -1.
        -14    1    6    6    0    0  0.98198591117E+01 -0.21477392232E+02  0.24784989205E+03  0.24897244225E+03  0.00000000000E+00 0.  1.
</event>
<event>
12    1  0.8407180E-002  0.1892093E+03  0.7818608E-02  0.1160527E+00
         21   -1    0    0  503  502  0.00000000000E+00  0.00000000000E+00  0.16140471957E+03  0.16140471957E+03  0.00000000000E+00 0. -1.
         21   -1    0    0  501  503 -0.00000000000E+00 -0.00000000000E+00 -0.24075031027E+03  0.24075031027E+03  0.00000000000E+00 0.  1.
          6    2    1    2  501    0  0.71763461794E+02  0.40233917461E+02  0.25534868495E+02  0.19092452324E+03  0.17038597801E+03 0.  0.
         24    2    3    3    0    0  0.27008921184E+02  0.10151963142E+02 -0.50115508350E+02  0.97903222466E+02  0.78999573497E+02 0.  0.
         -6    2    1    2    0  502 -0.71763461794E+02 -0.40233917461E+02 -0.10488045920E+03  0.21123050660E+03  0.16385863918E+03 0.  0.
        -24    2    5    5    0    0 -0.92410412374E+02 -0.71541198414E+02 -0.62908802611E+02  0.15474907279E+03  0.79573429594E+02 0.  0.
          5    1    3    3  501    0  0.44754540610E+02  0.30081954319E+02  0.75650376845E+02  0.93021300774E+02  0.47000000000E+01 0. -1.
        -13    1    4    4    0    0 -0.15402345067E+02  0.27261927133E+02 -0.17815107729E+01  0.31362695758E+02  0.00000000000E+00 0.  1.
         14    1    4    4    0    0  0.42411266251E+02 -0.17109963991E+02 -0.48333997577E+02  0.66540526708E+02  0.00000000000E+00 0. -1.
         -5    1    5    5    0  502  0.20646950581E+02  0.31307280953E+02 -0.41971656590E+02  0.56481433815E+02  0.47000000000E+01 0.  1.
         13    1    6    6    0    0  0.58013215201E+01 -0.31473280898E+01  0.11903148612E+02  0.13610508894E+02  0.00000000000E+00 0. -1.
        -14    1    6    6    0    0 -0.98211733895E+02 -0.68393870324E+02 -0.74811951222E+02  0.14113856389E+03  0.00000000000E+00 0.  1.
</event>
<event>
12    1  0.8407180E-002  0.2962483E+03  0.7818608E-02  0.1087297E+00
         21   -1    0    0  501  502  0.00000000000E+00  0.00000000000E+00  0.26019251144E+03  0.26019251144E+03  0.00000000000E+00 0.  1.
         21   -1    0    0  502  503 -0.00000000000E+00 -0.00000000000E+00 -0.38735337865E+03  0.38735337865E+03  0.00000000000E+00 0.  1.
         -6    2    1    2    0  503 -0.21092399396E+03  0.11357769081E+03  0.54393587222E+02  0.30120049540E+03  0.17428210758E+03 0.  0.
        -24    2    3    3    0    0 -0.14928332549E+03  0.50206625913E+02 -0.30463306150E+02  0.17856996809E+03  0.78441085711E+02 0.  0.
          6    2    1    2  501    0  0.21092399396E+03 -0.11357769081E+03 -0.18155445443E+03  0.34634539469E+03  0.17205897079E+03 0.  0.
         24    2    5    5    0    0  0.62329806626E+02 -0.42746046249E+02 -0.15864015008E+02  0.11273724823E+03  0.82132763882E+02 0.  0.
          5    1    5    5  501    0  0.14859418733E+03 -0.70831644557E+02 -0.16569043942E+03  0.23360814646E+03  0.47000000000E+01 0. -1.
        -11    1    6    6    0    0 -0.15268773887E+02 -0.21301645039E+02 -0.18674186169E+02  0.32181062233E+02  0.00000000000E+00 0.  1.
         12    1    6    6    0    0  0.77598580512E+02 -0.21444401210E+02  0.28101711612E+01  0.80556185999E+02  0.00000000000E+00 0. -1.
         -5    1    3    3    0  503 -0.61640668463E+02  0.63371064892E+02  0.84856893371E+02  0.12263052730E+03  0.47000000000E+01 0.  1.
         13    1    4    4    0    0  0.23040875407E+01  0.68488244855E+01 -0.19185164218E+02  0.20500871745E+02  0.00000000000E+00 0. -1.
        -14    1    4    4    0    0 -0.15158741303E+03  0.43357801428E+02 -0.11278141931E+02  0.15806909635E+03  0.00000000000E+00 0.  1.
</event>
<event>
12    1  0.8407180E-002  0.1984711E+03  0.7818608E-02  0.1151156E+00
         21   -1    0    0  503  502  0.00000000000E+00  0.00000000000E+00  0.11084327291E+04  0.11084327291E+04  0.00000000000E+00 0. -1.
         21   -1    0    0  501  503 -0.00000000000E+00 -0.00000000000E+00 -0.15062356329E+03  0.15062356329E+03  0.00000000000E+00 0. -1.
          6    2    1    2  501    0  0.72505879662E+02  0.70183122341E+02 -0.71451779691E+02  0.21094109933E+03  0.17090353220E+03 0.  0.
         24    2    3    3    0    0  0.54849420724E+02  0.47896539016E+02  0.24248696270E+02  0.11099554696E+03  0.80184005705E+02 0.  0.
         -6    2    1    2    0  502 -0.72505879662E+02 -0.70183122341E+02  0.10292609455E+04  0.10481151930E+04  0.17024861456E+03 0.  0.
        -24    2    5    5    0    0 -0.17647770118E+02 -0.54991164745E+02  0.91444962623E+03  0.91988127871E+03  0.81412382444E+02 0.  0.
          5    1    3    3  501    0  0.17656458938E+02  0.22286583325E+02 -0.95700475961E+02  0.99945552366E+02  0.47000000000E+01 0. -1.
        -13    1    4    4    0    0  0.11588597027E+02 -0.17051464512E+02  0.25697181821E+02  0.32945305836E+02  0.00000000000E+00 0.  1.
         14    1    4    4    0    0  0.43260823697E+02  0.64948003529E+02 -0.14484855509E+01  0.78050241125E+02  0.00000000000E+00 0. -1.
         -5    1    5    5    0  502 -0.54858109544E+02 -0.15191957596E+02  0.11481131922E+03  0.12823391431E+03  0.47000000000E+01 0.  1.
         13    1    6    6    0    0 -0.28332680768E+02 -0.67640880863E+02  0.85587763758E+03  0.85901371355E+03  0.00000000000E+00 0. -1.
        -14    1    6    6    0    0  0.10684910650E+02  0.12649716117E+02  0.58571988656E+02  0.60867565160E+02  0.00000000000E+00 0.  1.
</event>
<event>
12    1  0.8407180E-002  0.2074421E+03  0.7818608E-02  0.1143652E+00
         21   -1    0    0  501  502  0.00000000000E+00  0.00000000000E+00  0.34461388212E+03  0.34461388212E+03  0.00000000000E+00 0.  1.
         21   -1    0    0  502  503 -0.00000000000E+00 -0.00000000000E+00 -0.18164288975E+03  0.18164288975E+03  0.00000000000E+00 0.  1.
         -6    2    1    2    0  503  0.40489711129E+02  0.10872044625E+03 -0.65761545998E+02  0.21761620999E+03  0.17196709505E+03 0.  0.
        -24    2    3    3    0    0  0.29445760035E+02  0.24598377183E+02  0.25911621168E+02  0.92618006254E+02  0.80215647020E+02 0.  0.
          6    2    1    2  501    0 -0.40489711129E+02 -0.10872044625E+03  0.22873253837E+03  0.30864056187E+03  0.17169994230E+03 0.  0.
         24    2    5    5    0    0 -0.41307252521E+02 -0.12663688298E+02  0.17802687705E+03  0.19991741249E+03  0.80042143608E+02 0.  0.
          5    1    5    5  501    0  0.81754139229E+00 -0.96056757949E+02  0.50705661319E+02  0.10872314938E+03  0.47000000000E+01 0. -1.
        -11    1    6    6    0    0 -0.46976707388E+02 -0.34483693872E+02  0.16225811495E+03  0.17240542929E+03  0.00000000000E+00 0.  1.
         12    1    6    6    0    0  0.56694548667E+01  0.21820005574E+02  0.15768762096E+02  0.27511983203E+02  0.00000000000E+00 0. -1.
         -5    1    3    3    0  503  0.11043951094E+02  0.84122069064E+02 -0.91673167166E+02  0.12499820374E+03  0.47000000000E+01 0.  1.
         11    1    4    4    0    0  0.45629188406E+02 -0.94624725776E+01 -0.45887236009E+00  0.46602272323E+02  0.00000000000E+00 0. -1.
        -12    1    4    4    0    0 -0.16183428371E+02  0.34060849761E+02  0.26370493528E+02  0.46015733931E+02  0.00000000000E+00 0.  1.
</event>
<event>
12    1  0.8407180E-002  0.1879104E+03  0.7818608E-02  0.1160819E+00
         21   -1    0    0  501  502  0.00000000000E+00  0.00000000000E+00  0.64097410380E+02  0.64097410380E+02  0.00000000000E+00 0.  1.
         21   -1    0    0  502  503 -0.00000000000E+00 -0.00000000000E+00 -0.93529633543E+03  0.93529633543E+03  0.00000000000E+00 0.  1.
         -6    2    1    2    0  503  0.30954954358E+02  0.63081376106E+02 -0.75701838262E+03  0.77951306146E+03  0.17212295649E+03 0.  0.
        -24    2    3    3    0    0  0.76775203210E+02  0.27203906274E+02 -0.37703569289E+03  0.39507109895E+03  0.85386036128E+02 0.  0.
          6    2    1    2  501    0 -0.30954954358E+02 -0.63081376106E+02 -0.11418054242E+03  0.21988068434E+03  0.17427808201E+03 0.  0.
         24    2    5    5    0    0  0.40354646983E+02  0.56543357507E+01 -0.56572864687E+02  0.10520552634E+03  0.78786069254E+02 0.  0.
          5    1    5    5  501    0 -0.71309601341E+02 -0.68735711857E+02 -0.57607677736E+02  0.11467515800E+03  0.47000000000E+01 0. -1.
        -13    1    6    6    0    0 -0.37590459483E+01 -0.30907636943E+02 -0.16057274481E+02  0.35032106868E+02  0.00000000000E+00 0.  1.
         14    1    6    6    0    0  0.44113692931E+02  0.36561972693E+02 -0.40515590206E+02  0.70173419476E+02  0.00000000000E+00 0. -1.
         -5    1    3    3    0  503 -0.45820248852E+02  0.35877469833E+02 -0.37998268973E+03  0.38444196252E+03  0.47000000000E+01 0.  1.
         13    1    4    4    0    0  0.44700444827E+02 -0.16158119811E+01 -0.58555577045E+02  0.73685115316E+02  0.00000000000E+00 0. -1.
        -14    1    4    4    0    0  0.32074758383E+02  0.28819718255E+02 -0.31848011584E+03  0.32138598363E+03  0.00000000000E+00 0.  1.
</event>
<event>
12    1  0.8407180E-002  0.2096444E+03  0.7818608E-02  0.1141942E+00
         21   -1    0    0  501  502  0.00000000000E+00  0.00000000000E+00  0.16311090487E+03  0.16311090487E+03  0.00000000000E+00 0. -1.
         21   -1    0    0  502  503 -0.00000000000E+00 -0.00000000000E+00 -0.36933372935E+03  0.36933372935E+03  0.00000000000E+00 0. -1.
         -6    2    1    2    0  503 -0.11435511817E+03  0.37418714547E+02  0.35669820690E+02  0.21265725205E+03  0.17167852950E+03 0.  0.
        -24    2    3    3    0    0 -0.57502302219E+02  0.78405148057E+02  0.58625809813E+02  0.13875733425E+03  0.79766723826E+02 0.  0.
          6    2    1    2  501    0  0.11435511817E+03 -0.37418714547E+02 -0.24189264517E+03  0.31978738217E+03  0.17109840664E+03 0.  0.
         24    2    5    5    0    0  0.72258844018E+02 -0.10469501980E+02 -0.37417001960E+02  0.10923872978E+03  0.72125703026E+02 0.  0.
          5    1    5    5  501    0  0.42096274155E+02 -0.26949212567E+02 -0.20447564321E+03  0.21054865239E+03  0.47000000000E+01 0. -1.
        -11    1    6    6    0    0  0.52927722750E+02 -0.39108696238E+02 -0.35158935540E+02  0.74612228925E+02  0.00000000000E+00 0.  1.
         12    1    6    6    0    0  0.19331121269E+02  0.28639194258E+02 -0.22580664196E+01  0.34626500851E+02  0.00000000000E+00 0. -1.
         -5    1    3    3    0  503 -0.56852815954E+02 -0.40986433510E+02 -0.22955989123E+02  0.73899917797E+02  0.47000000000E+01 0.  1.
         13    1    4    4    0    0 -0.64858505308E+02  0.49268772008E+02  0.10644206641E+02  0.82142173949E+02  0.00000000000E+00 0. -1.
        -14    1    4    4    0    0  0.73562030886E+01  0.29136376049E+02  0.47981603172E+02  0.56615160303E+02  0.00000000000E+00 0.  1.
</event>
<event>
12    1  0.8407180E-002  0.1801344E+03  0.7818608E-02  0.1168845E+00
         21   -1    0    0  503  502  0.00000000000E+00  0.00000000000E+00  0.20756347829E+03  0.20756347829E+03  0.00000000000E+00 0.  1.
         21   -1    0    0  501  503 -0.00000000000E+00 -0.00000000000E+00 -0.15459368237E+03  0.15459368237E+03  0.00000000000E+00 0.  1.
          6    2    1    2  501    0  0.41052583162E+01  0.35015491871E+02  0.49311065817E+02  0.18676182457E+03  0.17665067248E+03 0.  0.
         24    2    3    3    0    0  0.39560811043E+02  0.14920602861E+02  0.90065486040E+02  0.12893524287E+03  0.82005017643E+02 0.  0.
         -6    2    1    2    0  502 -0.41052583162E+01 -0.35015491871E+02  0.36587301027E+01  0.17539533608E+03  0.17177659851E+03 0.  0.
        -24    2    5    5    0    0  0.53511381558E+02 -0.63493982750E+01 -0.31353470138E+02  0.10198303277E+03  0.80707596099E+02 0.  0.
          5    1    3    3  501    0 -0.35455552727E+02  0.20094889010E+02 -0.40754420223E+02  0.57826581701E+02  0.47000000000E+01 0. -1.
        -11    1    4    4    0    0  0.44861049363E+02 -0.94914561864E+01  0.12617889480E+02  0.47558517906E+02  0.00000000000E+00 0.  1.
         12    1    4    4    0    0 -0.53002383200E+01  0.24412059048E+02  0.77447596560E+02  0.81376724966E+02  0.00000000000E+00 0. -1.
         -5    1    5    5    0  502 -0.57616639875E+02 -0.28666093596E+02  0.35012200240E+02  0.73412303316E+02  0.47000000000E+01 0.  1.
         13    1    6    6    0    0  0.37953436360E+02  0.26219382789E+02  0.98883885751E+01  0.47177320758E+02  0.00000000000E+00 0. -1.
        -14    1    6    6    0    0  0.15557945199E+02 -0.32568781064E+02 -0.41241858713E+02  0.54805712009E+02  0.00000000000E+00 0.  1.
</event>
<event>
12    1  0.8407180E-002  0.2389684E+03  0.7818608E-02  0.1120815E+00
         21   -1    0    0  501  502  0.00000000000E+00  0.00000000000E+00  0.22518801760E+03  0.22518801760E+03  0.00000000000E+00 0.  1.
         21   -1    0    0  502  503 -0.00000000000E+00 -0.00000000000E+00 -0.26928850408E+03  0.26928850408E+03  0.00000000000E+00 0. -1.
         -6    2    1    2    0  503 -0.77294845281E+02  0.14225096464E+03  0.41588667739E+02  0.24060939786E+03  0.17307060700E+03 0.  0.
        -24    2    3    3    0    0 -0.68930252109E+02  0.22410881358E+02 -0.13219944131E+02  0.10848186131E+03  0.79623614915E+02 0.  0.
          6    2    1    2  501    0  0.77294845281E+02 -0.14225096464E+03 -0.85689154215E+02  0.25386712382E+03  0.17577273782E+03 0.  0.
         24    2    5    5    0    0 -0.42849368607E+00 -0.12021634996E+03 -0.12632067333E+02  0.14484478846E+03  0.79801561474E+02 0.  0.
          5    1    5    5  501    0  0.77723338967E+02 -0.22034614677E+02 -0.73057086882E+02  0.10902233536E+03  0.47000000000E+01 0. -1.
        -13    1    6    6    0    0  0.11589252058E+02  0.86341004588E+01 -0.46808239752E+01  0.15191068662E+02  0.00000000000E+00 0.  1.
         14    1    6    6    0    0 -0.12017745744E+02 -0.12885045042E+03 -0.79512433577E+01  0.12965371980E+03  0.00000000000E+00 0. -1.
         -5    1    3    3    0  503 -0.83645931721E+01  0.11984008328E+03  0.54808611870E+02  0.13212753655E+03  0.47000000000E+01 0.  1.
         13    1    4    4    0    0 -0.45105252173E+02  0.48148886570E+02  0.95542140403E+01  0.66663948708E+02  0.00000000000E+00 0. -1.
        -14    1    4    4    0    0 -0.23824999936E+02 -0.25738005212E+02 -0.22774158171E+02  0.41817912605E+02  0.00000000000E+00 0.  1.
</event>
<event>
12    1  0.8407180E-002  0.2343163E+03  0.7818608E-02  0.1124532E+00
         21   -1    0    0  501  502  0.00000000000E+00  0.00000000000E+00  0.42785278605E+03  0.42785278605E+03  0.00000000000E+00 0.  1.
         21   -1    0    0  502  503 -0.00000000000E+00 -0.00000000000E+00 -0.12669736470E+03  0.12669736470E+03  0.00000000000E+00 0.  1.
         -6    2    1    2    0  503  0.13808587660E+03  0.65061573993E+02  0.12224176930E+03  0.25973794601E+03  0.17093868113E+03 0.  0.
        -24    2    3    3    0    0  0.61775199919E+02  0.45213952780E+02  0.14062269142E+03  0.17863803392E+03  0.79223285518E+02 0.  0.
          6    2    1    2  501    0 -0.13808587660E+03 -0.65061573993E+02  0.17891365205E+03  0.29481220474E+03  0.17777351727E+03 0.  0.
         24    2    5    5    0    0 -0.16868796869E+03 -0.36054682936E+02  0.13881886772E+03  0.23643781396E+03  0.82925212648E+02 0.  0.
          5    1    5    5  501    0  0.30602092081E+02 -0.29006891058E+02  0.40094784324E+02  0.58374390777E+02  0.47000000000E+01 0. -1.
        -13    1    6    6    0    0 -0.11318908031E+03 -0.91008998607E+01  0.13237117531E+03  0.17440390573E+03  0.00000000000E+00 0.  1.
         14    1    6    6    0    0 -0.55498888374E+02 -0.26953783075E+02  0.64476924114E+01  0.62033908230E+02  0.00000000000E+00 0. -1.
         -5    1    3    3    0  503  0.76310676686E+02  0.19847621213E+02 -0.18380922116E+02  0.81099912095E+02  0.47000000000E+01 0.  1.
         11    1    4    4    0    0  0.10592745682E+02  0.55222557369E+02  0.56864581368E+02  0.79970730381E+02  0.00000000000E+00 0. -1.
        -12    1    4    4    0    0  0.51182454237E+02 -0.10008604589E+02  0.83758110053E+02  0.98667303537E+02  0.00000000000E+00 0.  1.
</event>
<event>
12    1  0.8407180E-002  0.2607401E+03  0.7818608E-02  0.1108355E+00
         21   -1    0    0  503  502  0.00000000000E+00  0.00000000000E+00  0.72513870560E+03  0.72513870560E+03  0.00000000000E+00 0.  1.
         21   -1    0    0  501  503 -0.00000000000E+00 -0.00000000000E+00 -0.11481433875E+03  0.11481433875E+03  0.00000000000E+00 0. -1.
          6    2    1    2  501    0  0.16706224102E+03 -0.63212702967E+02  0.11464676211E+03  0.28483203859E+03  0.18994676084E+03 0.  0.
         24    2    3    3    0    0  0.11358606156E+03 -0.44055752748E+02  0.15668016889E+03  0.21401122387E+03  0.80058890151E+02 0.  0.
         -6    2    1    2    0  502 -0.16706224102E+03  0.63212702967E+02  0.49567760474E+03  0.55512100576E+03  0.17480676475E+03 0.  0.
        -24    2    5    5    0    0 -0.96030545190E+02  0.74759497608E+01  0.13624009448E+03  0.18448708766E+03  0.78717004087E+02 0.  0.
          5    1    3    3  501    0  0.53476179469E+02 -0.19156950219E+02 -0.42033406775E+02  0.70820814719E+02  0.47000000000E+01 0. -1.
        -11    1    4    4    0    0  0.60083608031E+02 -0.13580350167E+02  0.21114330250E+02  0.65117438576E+02  0.00000000000E+00 0.  1.
         12    1    4    4    0    0  0.53502453524E+02 -0.30475402581E+02  0.13556583864E+03  0.14889378530E+03  0.00000000000E+00 0. -1.
         -5    1    5    5    0  502 -0.71031695834E+02  0.55736753206E+02  0.35943751025E+03  0.37063391810E+03  0.47000000000E+01 0.  1.
         11    1    6    6    0    0  0.60354014329E+01  0.18267211287E+02  0.96655909885E+01  0.21529996001E+02  0.00000000000E+00 0. -1.
        -12    1    6    6    0    0 -0.10206594662E+03 -0.10791261526E+02  0.12657450350E+03  0.16295709165E+03  0.00000000000E+00 0.  1.
</event>
<event>
12    1  0.8407180E-002  0.1742575E+03  0.7818608E-02  0.1173714E+00
         21   -1    0    0  503  502  0.00000000000E+00  0.00000000000E+00  0.86649904478E+03  0.86649904478E+03  0.00000000000E+00 0.  1.
         21   -1    0    0  501  503 -0.00000000000E+00 -0.00000000000E+00 -0.95048559114E+02  0.95048559114E+02  0.00000000000E+00 0.  1.
          6    2    1    2  501    0  0.92311722941E+00  0.10809861478E+02  0.27580762394E+01  0.17335112061E+03  0.17298930251E+03 0.  0.
         24    2    3    3    0    0 -0.21968721498E+02  0.65745222706E+02  0.26345326544E+02  0.10916094558E+03  0.80106034583E+02 0.  0.
         -6    2    1    2    0  502 -0.92311722941E+00 -0.10809861478E+02  0.76869240942E+03  0.78819648328E+03  0.17391943737E+03 0.  0.
        -24    2    5    5    0    0 -0.18099888909E+02  0.14496065872E+02  0.17018074264E+03  0.18888543155E+03  0.78603302623E+02 0.  0.
          5    1    3    3  501    0  0.22891838727E+02 -0.54935361228E+02 -0.23587250305E+02  0.64190175031E+02  0.47000000000E+01 0. -1.
        -11    1    4    4    0    0 -0.45851087320E+01  0.71788078113E+02 -0.57496115826E+01  0.72163768018E+02  0.00000000000E+00 0.  1.
         12    1    4    4    0    0 -0.17383612766E+02 -0.60428554074E+01  0.32094938127E+02  0.36997177563E+02  0.00000000000E+00 0. -1.
         -5    1    5    5    0  502  0.17176771680E+02 -0.25305927350E+02  0.59851166678E+03  0.59931105172E+03  0.47000000000E+01 0.  1.
         11    1    6    6    0    0 -0.44764506992E+02  0.36450474906E+01  0.59652806994E+02  0.74669972812E+02  0.00000000000E+00 0. -1.
        -12    1    6    6    0    0  0.26664618082E+02  0.10851018382E+02  0.11052793565E+03  0.11421545874E+03  0.00000000000E+00 0.  1.
</event>
<event>
12    1  0.8407180E-002  0.1853470E+03  0.7818608E-02  0.1162896E+00
         21   -1    0    0  503  502  0.00000000000E+00  0.00000000000E+00  0.43506310475E+03  0.43506310475E+03  0.00000000000E+00 0. -1.
         21   -1    0    0  501  503 -0.00000000000E+00 -0.00000000000E+00 -0.89534049294E+02  0.89534049294E+02  0.00000000000E+00 0. -1.
          6    2    1    2  501    0 -0.46921408619E+02  0.47562204165E+02  0.81028869949E+02  0.20162059504E+03  0.17210870033E+03 0.  0.
         24    2    3    3    0    0 -0.16464234681E+01  0.17939865741E+02 -0.22427320319E+02  0.84776337508E+02  0.79746430714E+02 0.  0.
         -6    2    1    2    0  502  0.46921408619E+02 -0.47562204165E+02  0.26450018550E+03  0.32297655900E+03  0.17288645892E+03 0.  0.
        -24    2    5    5    0    0  0.54136805036E+02  0.11818116291E+02  0.23881792597E+03  0.25770977681E+03  0.79434663494E+02 0.  0.
          5    1    3    3  501    0 -0.45274985151E+02  0.29622338424E+02  0.10345619027E+03  0.11684425754E+03  0.47000000000E+01 0. -1.
        -11    1    4    4    0    0 -0.10559462131E+02 -0.66663390570E+01  0.26496960500E+02  0.29292170159E+02  0.00000000000E+00 0.  1.
         12    1    4    4    0    0  0.89130386632E+01  0.24606204798E+02 -0.48924280819E+02  0.55484167349E+02  0.00000000000E+00 0. -1.
         -5    1    5    5    0  502 -0.72153964169E+01 -0.59380320456E+02  0.25682259532E+02  0.65266782191E+02  0.47000000000E+01 0.  1.
         11    1    6    6    0    0  0.45624845567E+02 -0.28888987033E+02  0.11394680789E+03  0.12609550005E+03  0.00000000000E+00 0. -1.
        -12    1    6    6    0    0  0.85119594687E+01  0.40707103324E+02  0.12487111808E+03  0.13161427676E+03  0.00000000000E+00 0.  1.
</event>
<event>
12    1  0.8407180E-002  0.1923476E+03  0.7818608E-02  0.1157183E+00
         21   -1    0    0  501  502  0.00000000000E+00  0.00000000000E+00  0.48144792742E+03  0.48144792742E+03  0.00000000000E+00 0.  1.
         21   -1    0    0  502  503 -0.00000000000E+00 -0.00000000000E+00 -0.55770405282E+03  0.55770405282E+03  0.00000000000E+00 0. -1.
         -6    2    1    2    0  503  0.76630988721E+02  0.94631215420E+01 -0.52135903094E+03  0.55570929714E+03  0.17616959068E+03 0.  0.
        -24    2    3    3    0    0  0.10544913800E+03  0.46973481512E+02 -0.43692689045E+03  0.45881559672E+03  0.79250334554E+02 0.  0.
          6    2    1    2  501    0 -0.76630988721E+02 -0.94631215420E+01  0.44510290554E+03  0.48344268310E+03  0.17215798622E+03 0.  0.
         24    2    5    5    0    0 -0.97443747195E+02  0.13863949305E+02  0.42922138373E+03  0.44806421670E+03  0.82722748248E+02 0.  0.
          5    1    5    5  501    0  0.20812758474E+02 -0.23327070847E+02  0.15881521809E+02  0.35378466396E+02  0.47000000000E+01 0. -1.
        -11    1    6    6    0    0 -0.22567579286E+02 -0.45277667365E+01  0.27182522225E+03  0.27279799808E+03  0.00000000000E+00 0.  1.
         12    1    6    6    0    0 -0.74876167909E+02  0.18391716042E+02  0.15739616148E+03  0.17526621862E+03  0.00000000000E+00 0. -1.
         -5    1    3    3    0  503 -0.28818149275E+02 -0.37510359970E+02 -0.84432140497E+02  0.96893700423E+02  0.47000000000E+01 0.  1.
         13    1    4    4    0    0  0.68383892064E+02  0.46196353681E+02 -0.16618909314E+03  0.18555127180E+03  0.00000000000E+00 0. -1.
        -14    1    4    4    0    0  0.37065245932E+02  0.77712783078E+00 -0.27073779730E+03  0.27326432492E+03  0.00000000000E+00 0.  1.
</event>
<event>
12    1  0.8407180E-002  0.2012870E+03  0.7818608E-02  0.1148703E+00
         21   -1    0    0  501  502  0.00000000000E+00  0.00000000000E+00  0.21066035603E+03  0.21066035603E+03  0.00000000000E+00 0. -1.
         21   -1    0    0  502  503 -0.00000000000E+00 -0.00000000000E+00 -0.80711796368E+03  0.80711796368E+03  0.00000000000E+00 0. -1.
         -6    2    1    2    0  503  0.58651669828E+01 -0.10311450199E+03 -0.74247930059E+03  0.76928015828E+03  0.17276993203E+03 0.  0.
        -24    2    3    3    0    0  0.59269714647E+02 -0.10154770352E+03 -0.43980938146E+03  0.46189494310E+03  0.78037242841E+02 0.  0.
          6    2    1    2  501    0 -0.58651669828E+01  0.10311450199E+03  0.14602169294E+03  0.24849816143E+03  0.17251666795E+03 0.  0.
         24    2    5    5    0    0 -0.42147287371E+02 -0.60359812366E+01  0.52173697587E+02  0.99972889238E+02  0.73889491543E+02 0.  0.
          5    1    5    5  501    0  0.36282120388E+02  0.10915048322E+03  0.93847995350E+02  0.14852527219E+03  0.47000000000E+01 0. -1.
        -13    1    6    6    0    0 -0.56374975381E+02  0.12549226690E+02  0.50132688636E+02  0.76478149883E+02  0.00000000000E+00 0.  1.
         14    1    6    6    0    0  0.14227688010E+02 -0.18585207927E+02  0.20410089512E+01  0.23494739355E+02  0.00000000000E+00 0. -1.
         -5    1    3    3    0  503 -0.53404547665E+02 -0.15667984700E+01 -0.30266991913E+03  0.30738521518E+03  0.47000000000E+01 0.  1.
         11    1    4    4    0    0  0.24699106706E+02 -0.10350629422E+03 -0.32497627747E+03  0.34195493816E+03  0.00000000000E+00 0. -1.
        -12    1    4    4    0    0  0.34570607941E+02  0.19585906994E+01 -0.11483310400E+03  0.11994000494E+03  0.00000000000E+00 0.  1.
</event>
<event>
12    1  0.8407180E-002  0.1935887E+03  0.7818608E-02  0.1155663E+00
         21   -1    0    0  503  502  0.00000000000E+00  0.00000000000E+00  0.37856931633E+02  0.37856931633E+02  0.00000000000E+00 0.  1.
         21   -1    0    0  501  503 -0.00000000000E+00 -0.00000000000E+00 -0.98997176248E+03  0.98997176248E+03  0.00000000000E+00 0.  1.
          6    2    1    2  501    0 -0.25174577075E+02 -0.81050804941E+02 -0.42867822649E+03  0.47036325322E+03  0.17399303377E+03 0.  0.
         24    2    3    3    0    0 -0.58820555039E+01 -0.13393291802E+02 -0.36696863486E+03  0.37666211037E+03  0.83632455266E+02 0.  0.
         -6    2    1    2    0  502  0.25174577075E+02  0.81050804941E+02 -0.52343660436E+03  0.55746544089E+03  0.17198501881E+03 0.  0.
        -24    2    5    5    0    0 -0.24647489200E+02  0.31990341751E+02 -0.14425991184E+03  0.17186691719E+03  0.84240336953E+02 0.  0.
          5    1    3    3  501    0 -0.19292521571E+02 -0.67657513139E+02 -0.61709591632E+02  0.93701142853E+02  0.47000000000E+01 0. -1.
        -11    1    4    4    0    0 -0.33290468868E+02 -0.28847953864E+02 -0.12255265281E+03  0.13022907690E+03  0.00000000000E+00 0.  1.
         12    1    4    4    0    0  0.27408413364E+02  0.15454662062E+02 -0.24441598205E+03  0.24643303347E+03  0.00000000000E+00 0. -1.
         -5    1    5    5    0  502  0.49822066275E+02  0.49060463190E+02 -0.37917669252E+03  0.38559852370E+03  0.47000000000E+01 0.  1.
         11    1    6    6    0    0  0.16640701589E+02  0.46584205826E+02 -0.81544850851E+02  0.95375908290E+02  0.00000000000E+00 0. -1.
        -12    1    6    6    0    0 -0.41288190788E+02 -0.14593864074E+02 -0.62715060990E+02  0.76491008898E+02  0.00000000000E+00 0.  1.
</event>
<event>
12    1  0.8407180E-002  0.2172407E+03  0.7818608E-02  0.1137710E+00
         21   -1    0    0  501  502  0.00000000000E+00  0.00000000000E+00  0.17644040437E+04  0.17644040437E+04  0.00000000000E+00 0. -1.
         21   -1    0    0  502  503 -0.00000000000E+00 -0.00000000000E+00 -0.29735761634E+02  0.29735761634E+02  0.00000000000E+00 0. -1.
         -6    2    1    2    0  503  0.10729494670E+03  0.46980990752E+02  0.55059062741E+03  0.59189827734E+03  0.18295931967E+03 0.  0.
        -24    2    3    3    0    0  0.59882279688E+02 -0.43733829181E+02  0.26988486277E+03  0.29307566131E+03  0.86930828064E+02 0.  0.
          6    2    1    2  501    0 -0.10729494670E+03 -0.46980990752E+02  0.11840776547E+04  0.12022415280E+04  0.17212024949E+03 0.  0.
         24    2    5    5    0    0 -0.58764517869E+02 -0.94403691322E+02  0.88336129661E+03  0.89392913277E+03  0.80104859802E+02 0.  0.
          5    1    5    5  501    0 -0.48530428833E+02  0.47422700569E+02  0.30071635809E+03  0.30831239527E+03  0.47000000000E+01 0. -1.
        -11    1    6    6    0    0 -0.13750331307E+01 -0.36430945711E+01  0.34191466582E+03  0.34193683855E+03  0.00000000000E+00 0.  1.
         12    1    6    6    0    0 -0.57389484739E+02 -0.90760596751E+02  0.54144663079E+03  0.55199229422E+03  0.00000000000E+00 0. -1.
         -5    1    3    3    0  503  0.47412667014E+02  0.90714819933E+02  0.28070576464E+03  0.29882261603E+03  0.47000000000E+01 0.  1.
         11    1    4    4    0    0  0.21614445091E+02 -0.41049690889E+02  0.24001182840E+03  0.24445437024E+03  0.00000000000E+00 0. -1.
        -12    1    4    4    0    0  0.38267834597E+02 -0.26841382918E+01  0.29873034368E+02  0.48621291072E+02  0.00000000000E+00 0.  1.
</event>
<event>
12    1  0.8407180E-002  0.2309865E+03  0.7818608E-02  0.1126145E+00
         21   -1    0    0  501  502  0.00000000000E+00  0.00000000000E+00  0.84322963948E+02  0.84322963948E+02  0.00000000000E+00 0.  1.
         21   -1    0    0  502  503 -0.00000000000E+00 -0.00000000000E+00 -0.94877204694E+03  0.94877204694E+03  0.00000000000E+00 0. -1.
         -6    2    1    2    0  503  0.12999164175E+03  0.83333049219E+02 -0.73109434233E+03  0.76637750192E+03  0.17027423191E+03 0.  0.
        -24    2    3    3    0    0  0.27017064786E+02 -0.27018144049E+01 -0.40992754859E+03  0.41827412552E+03  0.78583887662E+02 0.  0.
          6    2    1    2  501    0 -0.12999164175E+03 -0.83333049219E+02 -0.13335474067E+03  0.26671750897E+03  0.17179207990E+03 0.  0.
         24    2    5    5    0    0 -0.11155958989E+02 -0.14876199836E+02 -0.65437976606E+02  0.11360631877E+03  0.90986318420E+02 0.  0.
          5    1    5    5  501    0 -0.11883568276E+03 -0.68456849383E+02 -0.67916764064E+02  0.15311119020E+03  0.47000000000E+01 0. -1.
        -13    1    6    6    0    0 -0.43706045586E+02 -0.23893304454E+02 -0.62183837925E+02  0.79673948801E+02  0.00000000000E+00 0.  1.
         14    1    6    6    0    0  0.32550086597E+02  0.90171046178E+01 -0.32541386811E+01  0.33932369969E+02  0.00000000000E+00 0. -1.
         -5    1    3    3    0  503  0.10297457696E+03  0.86034863624E+02 -0.32116679374E+03  0.34810337640E+03  0.47000000000E+01 0.  1.
         11    1    4    4    0    0  0.33874634558E+02  0.28329971594E+02 -0.14864308850E+03  0.15506400587E+03  0.00000000000E+00 0. -1.
        -12    1    4    4    0    0 -0.68575697723E+01 -0.31031785999E+02 -0.26128446009E+03  0.26321011966E+03  0.00000000000E+00 0.  1.
</event>
<event>
12    1  0.8407180E-002  0.1803836E+03  0.7818608E-02  0.1169488E+00
         21   -1    0    0  501  502  0.00000000000E+00  0.00000000000E+00  0.21452506830E+03  0.21452506830E+03  0.00000000000E+00 0.  1.
         21   -1    0    0  502  503 -0.00000000000E+00 -0.00000000000E+00 -0.54185367884E+03  0.54185367884E+03  0.00000000000E+00 0.  1.
         -6    2    1    2    0  503  0.34777369999E+02 -0.35342861778E+02 -0.48635882663E+03  0.51590246665E+03  0.16477822525E+03 0.  0.
        -24    2    3    3    0    0  0.30805410512E+02 -0.76898041214E+02 -0.43242831351E+03  0.44754166177E+03  0.80230982972E+02 0.  0.
          6    2    1    2  501    0 -0.34777369999E+02  0.35342861778E+02  0.15903021609E+03  0.24047628049E+03  0.17343485378E+03 0.  0.
         24    2    5    5    0    0 -0.15054548593E+02  0.43630775546E+02  0.18470072116E+03  0.20673099890E+03  0.80579560054E+02 0.  0.
          5    1    5    5  501    0 -0.19722821406E+02 -0.82879137677E+01 -0.25670505076E+02  0.33745281591E+02  0.47000000000E+01 0. -1.
        -13    1    6    6    0    0  0.15969397165E+02  0.56605902948E+02  0.10784951676E+03  0.12284448771E+03  0.00000000000E+00 0.  1.
         14    1    6    6    0    0 -0.31023945758E+02 -0.12975127402E+02  0.76851204402E+02  0.83886511189E+02  0.00000000000E+00 0. -1.
         -5    1    3    3    0  503  0.39719594864E+01  0.41555179436E+02 -0.53930513112E+02  0.68360804886E+02  0.47000000000E+01 0.  1.
         13    1    4    4    0    0 -0.19887324740E+01  0.16319927393E+02 -0.56649982376E+02  0.58987418914E+02  0.00000000000E+00 0. -1.
        -14    1    4    4    0    0  0.32794142987E+02 -0.93217968607E+02 -0.37577833114E+03  0.38855424285E+03  0.00000000000E+00 0.  1.
</event>
<event>
12    1  0.8407180E-002  0.1970042E+03  0.7818608E-02  0.1152590E+00
         21   -1    0    0  501  502  0.00000000000E+00  0.00000000000E+00  0.33456654039E+03  0.33456654039E+03  0.00000000000E+00 0. -1.
         21   -1    0    0  502  503 -0.00000000000E+00 -0.00000000000E+00 -0.11645626089E+03  0.11645626089E+03  0.00000000000E+00 0.  1.
         -6    2    1    2    0  503  0.92935327424E+02  0.14419696799E+02  0.85931243741E+02  0.21492984634E+03  0.17310620282E+03 0.  0.
        -24    2    3    3    0    0  0.76571378350E+02  0.56153980998E+02  0.81413439301E+01  0.12502496427E+03  0.80922893207E+02 0.  0.
          6    2    1    2  501    0 -0.92935327424E+02 -0.14419696799E+02  0.13217903576E+03  0.23609295495E+03  0.17153332954E+03 0.  0.
         24    2    5    5    0    0 -0.84660207207E+02 -0.39559611828E+02  0.15747489889E+03  0.19918138990E+03  0.78374541347E+02 0.  0.
          5    1    5    5  501    0 -0.82751202165E+01  0.25139915029E+02 -0.25295863132E+02  0.36911565042E+02  0.47000000000E+01 0. -1.
        -11    1    6    6    0    0 -0.81624393673E+02 -0.22840683316E+02  0.69586706637E+02  0.10966561994E+03  0.00000000000E+00 0.  1.
         12    1    6    6    0    0 -0.30358135349E+01 -0.16718928511E+02  0.87888192253E+02  0.89515769962E+02  0.00000000000E+00 0. -1.
         -5    1    3    3    0  503  0.16363949074E+02 -0.41734284200E+02  0.77789899810E+02  0.89904882067E+02  0.47000000000E+01 0.  1.
         11    1    4    4    0    0 -0.17271250759E+02  0.86088391367E+01 -0.16628107877E+01  0.19369387026E+02  0.00000000000E+00 0. -1.
        -12    1    4    4    0    0  0.93842629109E+02  0.47545141862E+02  0.98041547178E+01  0.10565557724E+03  0.00000000000E+00 0.  1.
</event>
<event>
12    1  0.8407180E-002  0.1842114E+03  0.7818608E-02  0.1165286E+00
         21   -1    0    0  501  502  0.00000000000E+00  0.00000000000E+00  0.73425440640E+02  0.73425440640E+02  0.00000000000E+00 0. -1.
         21   -1    0    0  502  503 -0.00000000000E+00 -0.00000000000E+00 -0.46435058767E+03  0.46435058767E+03  0.00000000000E+00 0. -1.
         -6    2    1    2    0  503 -0.11329489182E+01 -0.64259432849E+02 -0.24481398727E+03  0.30265409410E+03  0.16593689773E+03 0.  0.
        -24    2    3    3    0    0 -0.28172472327E+02 -0.77989277971E+02 -0.24671392227E+03  0.27190764347E+03  0.78676498771E+02 0.  0.
          6    2    1    2  501    0  0.11329489182E+01  0.64259432849E+02 -0.14611115976E+03  0.23512193422E+03  0.17263630748E+03 0.  0.
         24    2    5    5    0    0 -0.54834533189E+02  0.56165559381E+02 -0.44657684319E+02  0.11887750415E+03  0.77305602217E+02 0.  0.
          5    1    5    5  501    0  0.55967482107E+02  0.80938734676E+01 -0.10145347545E+03  0.11624443006E+03  0.47000000000E+01 0. -1.
        -13    1    6    6    0    0 -0.48364959267E+02  0.23657431148E+01 -0.42850250848E+02  0.64659956875E+02  0.00000000000E+00 0.  1.
         14    1    6    6    0    0 -0.64695739222E+01  0.53799816267E+02 -0.18074334716E+01  0.54217547278E+02  0.00000000000E+00 0. -1.
         -5    1    3    3    0  503  0.27039523409E+02  0.13729845122E+02  0.18999349997E+01  0.30746450629E+02  0.47000000000E+01 0.  1.
         11    1    4    4    0    0 -0.15260192304E+02 -0.21647570202E+02 -0.10116801650E+02  0.28352080002E+02  0.00000000000E+00 0. -1.
        -12    1    4    4    0    0 -0.12912280023E+02 -0.56341707769E+02 -0.23659712062E+03  0.24355556346E+03  0.00000000000E+00 0.  1.
</event>
<event>
12    1  0.8407180E-002  0.2018210E+03  0.7818608E-02  0.1148218E+00
         21   -1    0    0  503  502  0.00000000000E+00  0.00000000000E+00  0.11433813962E+04  0.11433813962E+04  0.00000000000E+00 0. -1.
         21   -1    0    0  501  503 -0.00000000000E+00 -0.00000000000E+00 -0.56680276723E+02  0.56680276723E+02  0.00000000000E+00 0. -1.
          6    2    1    2  501    0 -0.26068716048E+02 -0.10113840934E+03  0.17760769296E+03  0.26884238072E+03  0.17269388313E+03 0.  0.
         24    2    3    3    0    0 -0.46128378553E+02  0.12401902151E+01  0.52528010929E+02  0.10589826587E+03  0.79535434885E+02 0.  0.
         -6    2    1    2    0  502  0.26068716048E+02  0.10113840934E+03  0.90909342652E+03  0.93121929221E+03  0.17265560009E+03 0.  0.
        -24    2    5    5    0    0  0.57851715991E+02  0.37552395993E+02  0.75770598611E+03  0.76390644963E+03  0.68393705195E+02 0.  0.
          5    1    3    3  501    0  0.20059662505E+02 -0.10237859955E+03  0.12507968203E+03  0.16294411485E+03  0.47000000000E+01 0. -1.
        -11    1    4    4    0    0  0.55003492125E+01 -0.18562639722E+02  0.46383246780E+02  0.50261625688E+02  0.00000000000E+00 0.  1.
         12    1    4    4    0    0 -0.51628727765E+02  0.19802829937E+02  0.61447641486E+01  0.55636640181E+02  0.00000000000E+00 0. -1.
         -5    1    5    5    0  502 -0.31782999943E+02  0.63586013346E+02  0.15138744041E+03  0.16731284258E+03  0.47000000000E+01 0.  1.
         11    1    6    6    0    0  0.41395829311E+02  0.42487762935E+02  0.29624002773E+03  0.30212080153E+03  0.00000000000E+00 0. -1.
        -12    1    6    6    0    0  0.16455886680E+02 -0.49353669412E+01  0.46146595837E+03  0.46178564810E+03  0.00000000000E+00 0.  1.
</event>
<event>
12    1  0.8407180E-002  0.1992169E+03  0.7818608E-02  0.1150474E+00
         21   -1    0    0  501  502  0.00000000000E+00  0.00000000000E+00  0.25164326713E+03  0.25164326713E+03  0.00000000000E+00 0.  1.
         21   -1    0    0  502  503 -0.00000000000E+00 -0.00000000000E+00 -0.16851027530E+03  0.16851027530E+03  0.00000000000E+00 0.  1.
         -6    2    1    2    0  503  0.45087074984E+02  0.88329699853E+02  0.95371987679E+02  0.22056099610E+03  0.17238432864E+03 0.  0.
        -24    2    3    3    0    0  0.43018769983E+02  0.92432564175E+02  0.56607359108E+01  0.13060928642E+03  0.81439230578E+02 0.  0.
          6    2    1    2  501    0 -0.45087074984E+02 -0.88329699853E+02 -0.12238995856E+02  0.19959254633E+03  0.17277850365E+03 0.  0.
         24    2    5    5    0    0 -0.80641748660E+02 -0.56864715147E+02  0.34786717240E+02  0.13260233977E+03  0.81465191095E+02 0.  0.
          5    1    5    5  501    0  0.35554673676E+02 -0.31464984705E+02 -0.47025713096E+02  0.66990206560E+02  0.47000000000E+01 0. -1.
        -13    1    6    6    0    0 -0.16349026058E+02 -0.51983182508E+02  0.40465642634E+02  0.67874959672E+02  0.00000000000E+00 0.  1.
         14    1    6    6    0    0 -0.64292722602E+02 -0.48815326395E+01 -0.56789253947E+01  0.64727380097E+02  0.00000000000E+00 0. -1.
         -5    1    3    3    0  503  0.20683050015E+01 -0.41028643223E+01  0.89711251768E+02  0.89951709684E+02  0.47000000000E+01 0.  1.
         11    1    4    4    0    0 -0.15864516857E+02  0.95791290156E+01 -0.18441776234E+02  0.26144630777E+02  0.00000000000E+00 0. -1.
        -12    1    4    4    0    0  0.58883286840E+02  0.82853435159E+02  0.24102512145E+02  0.10446465564E+03  0.00000000000E+00 0.  1.
</event>
<event>
12    1  0.8407180E-002  0.2313763E+03  0.7818608E-02  0.1125860E+00
         21   -1    0    0  501  502  0.00000000000E+00  0.00000000000E+00  0.68122596423E+02  0.68122596423E+02  0.00000000000E+00 0.  1.
         21   -1    0    0  502  503 -0.00000000000E+00 -0.00000000000E+00 -0.91683465687E+03  0.91683465687E+03  0.00000000000E+00 0. -1.
         -6    2    1    2    0  503 -0.13811452943E+03  0.69205067346E+02 -0.61386248494E+03  0.65601993231E+03  0.17224992480E+03 0.  0.
        -24    2    3    3    0    0 -0.63528099016E+02 -0.29700802066E+02 -0.32045713003E+03  0.33750101782E+03  0.79348647311E+02 0.  0.
          6    2    1    2  501    0  0.13811452943E+03 -0.69205067346E+02 -0.23484957551E+03  0.32893732098E+03  0.17082293005E+03 0.  0.
         24    2    5    5    0    0  0.57724588579E+02  0.22789392069E+01 -0.18650606836E+03  0.21090473876E+03  0.79743172778E+02 0.  0.
          5    1    5    5  501    0  0.80389940847E+02 -0.71484006553E+02 -0.48343507148E+02  0.11803258222E+03  0.47000000000E+01 0. -1.
        -13    1    6    6    0    0  0.45875496100E+01  0.39015855428E+01  0.75734000009E+01  0.96759686205E+01  0.00000000000E+00 0.  1.
         14    1    6    6    0    0  0.53137038969E+02 -0.16226463358E+01 -0.19407946836E+03  0.20122877014E+03  0.00000000000E+00 0. -1.
         -5    1    3    3    0  503 -0.74586430411E+02  0.98905869412E+02 -0.29340535490E+03  0.31851891449E+03  0.47000000000E+01 0.  1.
         13    1    4    4    0    0 -0.66447114838E+02  0.22594625168E+01 -0.15036857744E+03  0.16441117152E+03  0.00000000000E+00 0. -1.
        -14    1    4    4    0    0  0.29190158221E+01 -0.31960264583E+02 -0.17008855260E+03  0.17308984630E+03  0.00000000000E+00 0.  1.
</event>
<event>
12    1  0.8407180E-002  0.1786437E+03  0.7818608E-02  0.1169218E+00
         21   -1    0    0  501  502  0.00000000000E+00  0.00000000000E+00  0.28411257587E+03  0.28411257587E+03  0.00000000000E+00 0. -1.
         21   -1    0    0  502  503 -0.00000000000E+00 -0.00000000000E+00 -0.11444944944E+03  0.11444944944E+03  0.00000000000E+00 0. -1.
         -6    2    1    2    0  503  0.34278841588E+02 -0.29830378262E+02  0.56258116021E+02  0.18729264949E+03  0.17276767779E+03 0.  0.
        -24    2    3    3    0    0 -0.32180400635E+02 -0.21342465352E+02  0.13909494869E+01  0.10056680844E+03  0.92847558974E+02 0.  0.
          6    2    1    2  501    0 -0.34278841588E+02  0.29830378262E+02  0.11340501040E+03  0.21126937582E+03  0.17236345995E+03 0.  0.
         24    2    5    5    0    0  0.36466431333E+01  0.62539813040E+02  0.12535784431E+03  0.15956628352E+03  0.76303889053E+02 0.  0.
          5    1    5    5  501    0 -0.37925484722E+02 -0.32709434779E+02 -0.11952833904E+02  0.51703092299E+02  0.47000000000E+01 0. -1.
        -11    1    6    6    0    0  0.20564642949E+02  0.71232238862E+01  0.33093197346E+00  0.21765899341E+02  0.00000000000E+00 0.  1.
         12    1    6    6    0    0 -0.16917999815E+02  0.55416589154E+02  0.12502691233E+03  0.13780038418E+03  0.00000000000E+00 0. -1.
         -5    1    3    3    0  503  0.66459242223E+02 -0.84879129098E+01  0.54867166534E+02  0.86725841050E+02  0.47000000000E+01 0.  1.
         13    1    4    4    0    0  0.30805556192E+02  0.65973039824E+01  0.29719622288E+01  0.31643945260E+02  0.00000000000E+00 0. -1.
        -14    1    4    4    0    0 -0.62985956827E+02 -0.27939769334E+02 -0.15810127418E+01  0.68922863181E+02  0.00000000000E+00 0.  1.
</event>
<event>
12    1  0.8407180E-002  0.1783840E+03  0.7818608E-02  0.1169470E+00
         21   -1    0    0  503  502  0.00000000000E+00  0.00000000000E+00  0.81703401523E+02  0.81703401523E+02  0.00000000000E+00 0.  1.
         21   -1    0    0  501  503 -0.00000000000E+00 -0.00000000000E+00 -0.42158779189E+03  0.42158779189E+03  0.00000000000E+00 0. -1.
          6    2    1    2  501    0  0.40566537931E+02 -0.16370839001E+02 -0.24012827167E+03  0.29890883333E+03  0.17254348848E+03 0.  0.
         24    2    3    3    0    0  0.55168565442E+02 -0.62705181425E+02 -0.11035935832E+03  0.16026485990E+03  0.80809200965E+02 0.  0.
         -6    2    1    2    0  502 -0.40566537931E+02  0.16370839001E+02 -0.99756118697E+02  0.20438236008E+03  0.17293703342E+03 0.  0.
        -24    2    5    5    0    0 -0.94001646927E+02  0.25237684667E+01 -0.61465355531E+02  0.13703754009E+03  0.78476865583E+02 0.  0.
          5    1    3    3  501    0 -0.14602027511E+02  0.46334342424E+02 -0.12976891336E+03  0.13864397343E+03  0.47000000000E+01 0. -1.
        -13    1    4    4    0    0  0.32845768839E+02  0.13763650486E+02 -0.25020497996E+02  0.43523647885E+02  0.00000000000E+00 0.  1.
         14    1    4    4    0    0  0.22322796604E+02 -0.76468831911E+02 -0.85338860322E+02  0.11674121202E+03  0.00000000000E+00 0. -1.
         -5    1    5    5    0  502  0.53435108996E+02  0.13847070535E+02 -0.38290763165E+02  0.67344819991E+02  0.47000000000E+01 0.  1.
         13    1    6    6    0    0 -0.42205080102E+01  0.25321096096E+02  0.35469022293E+00  0.25672872853E+02  0.00000000000E+00 0. -1.
        -14    1    6    6    0    0 -0.89781138917E+02 -0.22797327630E+02 -0.61820045754E+02  0.11136466724E+03  0.00000000000E+00 0.  1.
</event>
<event>
12    1  0.8407180E-002  0.1869153E+03  0.7818608E-02  0.1161455E+00
         21   -1    0    0  503  502  0.00000000000E+00  0.00000000000E+00  0.69188164347E+02  0.69188164347E+02  0.00000000000E+00 0. -1.
         21   -1    0    0  501  503 -0.00000000000E+00 -0.00000000000E+00 -0.60910061580E+03  0.60910061580E+03  0.00000000000E+00 0. -1.
          6    2    1    2  501    0 -0.41443613593E+02 -0.61714549218E+02 -0.41208599494E+03  0.45249553990E+03  0.17149661135E+03 0.  0.
         24    2    3    3    0    0  0.33918754282E+02 -0.70392575511E+01 -0.25903971263E+03  0.27329138665E+03  0.79916057585E+02 0.  0.
         -6    2    1    2    0  502  0.41443613593E+02  0.61714549218E+02 -0.12782645651E+03  0.22579324025E+03  0.17063623784E+03 0.  0.
        -24    2    5    5    0    0 -0.44316118620E+02  0.23811984854E+02 -0.37274431527E+02  0.95358983695E+02  0.71923734145E+02 0.  0.
          5    1    3    3  501    0 -0.75362367874E+02 -0.54675291667E+02 -0.15304628232E+03  0.17920415325E+03  0.47000000000E+01 0. -1.
        -13    1    4    4    0    0  0.42634562754E+02 -0.32875776186E+02 -0.11886272815E+03  0.13048705202E+03  0.00000000000E+00 0.  1.
         14    1    4    4    0    0 -0.87158084730E+01  0.25836518635E+02 -0.14017698447E+03  0.14280433463E+03  0.00000000000E+00 0. -1.
         -5    1    5    5    0  502  0.85759732212E+02  0.37902564364E+02 -0.90552024980E+02  0.13043425655E+03  0.47000000000E+01 0.  1.
         13    1    6    6    0    0 -0.22534518395E+02  0.47076251824E+02 -0.94253246286E+01  0.53035975992E+02  0.00000000000E+00 0. -1.
        -14    1    6    6    0    0 -0.21781600224E+02 -0.23264266969E+02 -0.27849106899E+02  0.42323007703E+02  0.00000000000E+00 0.  1.
</event>
<event>
12    1  0.8407180E-002  0.3487858E+03  0.7818608E-02  0.1063129E+00
         21   -1    0    0  501  502  0.00000000000E+00  0.00000000000E+00  0.54354231127E+03  0.54354231127E+03  0.00000000000E+00 0. -1.
         21   -1    0    0  502  503 -0.00000000000E+00 -0.00000000000E+00 -0.44347421819E+03  0.44347421819E+03  0.00000000000E+00 0.  1.
         -6    2    1    2    0  503  0.29375566915E+03  0.74784213970E+02 -0.29736835507E+03  0.45823751430E+03  0.17224578109E+03 0.  0.
        -24    2    3    3    0    0  0.30236788208E+03  0.54837282810E+02 -0.29936346247E+03  0.43591889589E+03  0.77287369200E+02 0.  0.
          6    2    1    2  501    0 -0.29375566915E+03 -0.74784213970E+02  0.39743644816E+03  0.52877901516E+03  0.17252954742E+03 0.  0.
         24    2    5    5    0    0 -0.11832628049E+03  0.25632881569E+02  0.14367217651E+03  0.20431413410E+03  0.80277131331E+02 0.  0.
          5    1    5    5  501    0 -0.17542938865E+03 -0.10041709554E+03  0.25376427164E+03  0.32446488106E+03  0.47000000000E+01 0. -1.
        -13    1    6    6    0    0 -0.43334238360E+02 -0.17730487423E+02  0.14935889878E+02  0.49145775047E+02  0.00000000000E+00 0.  1.
         14    1    6    6    0    0 -0.74992042133E+02  0.43363368992E+02  0.12873628663E+03  0.15516835905E+03  0.00000000000E+00 0. -1.
         -5    1    3    3    0  503 -0.86122129294E+01  0.19946931160E+02  0.19951073965E+01  0.22318618411E+02  0.47000000000E+01 0.  1.
         13    1    4    4    0    0  0.27664663256E+02 -0.17575493593E+02 -0.30041493276E+02  0.44460351847E+02  0.00000000000E+00 0. -1.
        -14    1    4    4    0    0  0.27470321882E+03  0.72412776403E+02 -0.26932196919E+03  0.39145854404E+03  0.00000000000E+00 0.  1.
</event>
<event>
12    1  0.8407180E-002  0.2069589E+03  0.7818608E-02  0.1144194E+00
         21   -1    0    0  501  502  0.00000000000E+00  0.00000000000E+00  0.16734885778E+03  0.16734885778E+03  0.00000000000E+00 0.  1.
         21   -1    0    0  502  503 -0.00000000000E+00 -0.00000000000E+00 -0.28493761702E+03  0.28493761702E+03  0.00000000000E+00 0. -1.
         -6    2    1    2    0  503 -0.73594681262E+02  0.87188487278E+02 -0.13253777031E+03  0.24576055676E+03  0.17266725595E+03 0.  0.
        -24    2    3    3    0    0 -0.56577923950E+01  0.29979622415E+02  0.22017617023E+01  0.84313641110E+02  0.78569421200E+02 0.  0.
          6    2    1    2  501    0  0.73594681262E+02 -0.87188487278E+02  0.14949011067E+02  0.20652591804E+03  0.17149773313E+03 0.  0.
         24    2    5    5    0    0  0.38803439638E+02 -0.53363941181E+02  0.74457294376E+02  0.12959831445E+03  0.83056711202E+02 0.  0.
          5    1    5    5  501    0  0.34791241624E+02 -0.33824546097E+02 -0.59508283308E+02  0.76927603594E+02  0.47000000000E+01 0. -1.
        -13    1    6    6    0    0  0.51452140847E+02 -0.37630508542E+01  0.53394734480E+02  0.74246084204E+02  0.00000000000E+00 0.  1.
         14    1    6    6    0    0 -0.12648701209E+02 -0.49600890327E+02  0.21062559896E+02  0.55352230243E+02  0.00000000000E+00 0. -1.
         -5    1    3    3    0  503 -0.67936888867E+02  0.57208864864E+02 -0.13473953201E+03  0.16144691565E+03  0.47000000000E+01 0.  1.
         11    1    4    4    0    0  0.60646393847E+01  0.55431028813E+02 -0.28765598969E+01  0.55835950811E+02  0.00000000000E+00 0. -1.
        -12    1    4    4    0    0 -0.11722431780E+02 -0.25451406398E+02  0.50783215991E+01  0.28477690299E+02  0.00000000000E+00 0.  1.
</event>
<event>
12    1  0.8407180E-002  0.2098056E+03  0.7818608E-02  0.1142067E+00
         21   -1    0    0  503  502  0.00000000000E+00  0.00000000000E+00  0.24166697814E+02  0.24166697814E+02  0.00000000000E+00 0.  1.
         21   -1    0    0  501  503 -0.00000000000E+00 -0.00000000000E+00 -0.19365079648E+04  0.19365079648E+04  0.00000000000E+00 0.  1.
          6    2    1    2  501    0  0.61764947677E+02  0.10159785774E+03 -0.69831181428E+03  0.72864953860E+03  0.17074462416E+03 0.  0.
         24    2    3    3    0    0  0.76530144679E+02  0.11952122587E+03 -0.43849198210E+03  0.46775167858E+03  0.79838762349E+02 0.  0.
         -6    2    1    2    0  502 -0.61764947677E+02 -0.10159785774E+03 -0.12140294527E+04  0.12320251240E+04  0.17286225934E+03 0.  0.
        -24    2    5    5    0    0  0.10099854117E+02 -0.21185649335E+01 -0.64372237832E+03  0.64864452052E+03  0.79086776928E+02 0.  0.
          5    1    3    3  501    0 -0.14765197002E+02 -0.17923368129E+02 -0.25981983218E+03  0.26089786002E+03  0.47000000000E+01 0. -1.
        -13    1    4    4    0    0  0.68955140533E+02  0.34545085882E+02 -0.19186336142E+03  0.20678424461E+03  0.00000000000E+00 0.  1.
         14    1    4    4    0    0  0.75750041464E+01  0.84976139984E+02 -0.24662862068E+03  0.26096743397E+03  0.00000000000E+00 0. -1.
         -5    1    5    5    0  502 -0.71864801794E+02 -0.99479292803E+02 -0.57030707437E+03  0.58338060347E+03  0.47000000000E+01 0.  1.
         13    1    6    6    0    0 -0.30424467183E+01  0.49335816867E+01 -0.62344844322E+03  0.62347538689E+03  0.00000000000E+00 0. -1.
        -14    1    6    6    0    0  0.13142300835E+02 -0.70521466203E+01 -0.20273935101E+02  0.25169133630E+02  0.00000000000E+00 0.  1.
</event>
<event>
12    1  0.8407180E-002  0.1847980E+03  0.7818608E-02  0.1163734E+00
         21   -1    0    0  501  502  0.00000000000E+00  0.00000000000E+00  0.59742254210E+02  0.59742254210E+02  0.00000000000E+00 0.  1.
         21   -1    0    0  502  503 -0.00000000000E+00 -0.00000000000E+00 -0.89361833450E+03  0.89361833450E+03  0.00000000000E+00 0.  1.
         -6    2    1    2    0  503  0.59023980724E+02 -0.17400093284E+02 -0.70745654887E+03  0.73119426417E+03  0.17425180019E+03 0.  0.
        -24    2    3    3    0    0  0.34056594079E+02  0.12331412442E+02 -0.15507690470E+03  0.17743195584E+03  0.78238975263E+02 0.  0.
          6    2    1    2  501    0 -0.59023980724E+02  0.17400093284E+02 -0.12641953142E+03  0.22216632454E+03  0.17201565129E+03 0.  0.
         24    2    5    5    0    0 -0.84253516653E+02 -0.22857009557E+02 -0.12644890624E+03  0.17442478418E+03  0.82544421339E+02 0.  0.
          5    1    5    5  501    0  0.25229535929E+02  0.40257102842E+02  0.29374823577E-01  0.47741540353E+02  0.47000000000E+01 0. -1.
        -11    1    6    6    0    0 -0.83120912936E+02  0.12700069689E+02 -0.81496898685E+02  0.11709877212E+03  0.00000000000E+00 0.  1.
         12    1    6    6    0    0 -0.11326037178E+01 -0.35557079246E+02 -0.44952007556E+02  0.57326012063E+02  0.00000000000E+00 0. -1.
         -5    1    3    3    0  503  0.24967386646E+02 -0.29731505726E+02 -0.55237964417E+03  0.55376230833E+03  0.47000000000E+01 0.  1.
         11    1    4    4    0    0  0.44099161390E-01 -0.54204554542E+01 -0.13311325661E+03  0.13322358037E+03  0.00000000000E+00 0. -1.
        -12    1    4    4    0    0  0.34012494918E+02  0.17751867896E+02 -0.21963648088E+02  0.44208375470E+02  0.00000000000E+00 0.  1.
</event>
<event>
12    1  0.8407180E-002  0.2441260E+03  0.7818608E-02  0.1117123E+00
         21   -1    0    0  503  502  0.00000000000E+00  0.00000000000E+00  0.96430471215E+03  0.96430471215E+03  0.00000000000E+00 0.  1.
         21   -1    0    0  501  503 -0.00000000000E+00 -0.00000000000E+00 -0.62825913883E+02  0.62825913883E+02  0.00000000000E+00 0.  1.
          6    2    1    2  501    0  0.75976261073E+02 -0.15566978775E+03  0.38259768633E+03  0.45368915791E+03  0.17160241069E+03 0.  0.
         24    2    3    3    0    0  0.53432373493E+02 -0.44064042236E+02  0.77288512670E+02  0.12780597206E+03  0.74593524837E+02 0.  0.
         -6    2    1    2    0  502 -0.75976261073E+02  0.15566978775E+03  0.51888111194E+03  0.57344146813E+03  0.17202335299E+03 0.  0.
        -24    2    5    5    0    0 -0.94877864340E+02  0.15572002045E+03  0.34292650307E+03  0.39641212730E+03  0.79331294300E+02 0.  0.
          5    1    3    3  501    0  0.22543887581E+02 -0.11160574552E+03  0.30530917366E+03  0.32588318585E+03  0.47000000000E+01 0. -1.
        -13    1    4    4    0    0  0.48302210409E+02 -0.63962030674E+02  0.53476282825E+02  0.96353296379E+02  0.00000000000E+00 0.  1.
         14    1    4    4    0    0  0.51301630842E+01  0.19897988438E+02  0.23812229845E+02  0.31452675679E+02  0.00000000000E+00 0. -1.
         -5    1    5    5    0  502  0.18901603267E+02 -0.50232697213E-01  0.17595460887E+03  0.17702934083E+03  0.47000000000E+01 0.  1.
         13    1    6    6    0    0 -0.83412569483E+02  0.83830333148E+02  0.15561361277E+03  0.19545019310E+03  0.00000000000E+00 0. -1.
        -14    1    6    6    0    0 -0.11465294857E+02  0.71889687301E+02  0.18731289030E+03  0.20096193420E+03  0.00000000000E+00 0.  1.
</event>
<event>
12    1  0.8407180E-002  0.2079511E+03  0.7818608E-02  0.1143470E+00
         21   -1    0    0  503  502  0.00000000000E+00  0.00000000000E+00  0.69904061118E+02  0.69904061118E+02  0.00000000000E+00 0.  1.
         21   -1    0    0  501  503 -0.00000000000E+00 -0.00000000000E+00 -0.79770074319E+03  0.79770074319E+03  0.00000000000E+00 0. -1.
          6    2    1    2  501    0  0.37803961993E+02 -0.11013572964E+03 -0.57263317260E+03  0.60922278069E+03  0.17229227396E+03 0.  0.
         24    2    3    3    0    0  0.60654327725E+02 -0.47923920918E+02 -0.17944563857E+03  0.21046097802E+03  0.78214042198E+02 0.  0.
         -6    2    1    2    0  502 -0.37803961993E+02  0.11013572964E+03 -0.15516350948E+03  0.25838202362E+03  0.17066498461E+03 0.  0.
        -24    2    5    5    0    0 -0.69540645634E+02  0.17837783965E+02 -0.96762734619E+02  0.14454499815E+03  0.79850746685E+02 0.  0.
          5    1    3    3  501    0 -0.22850365731E+02 -0.62211808726E+02 -0.39318753402E+03  0.39876180267E+03  0.47000000000E+01 0. -1.
        -13    1    4    4    0    0 -0.79408791799E+01 -0.38979404940E+02 -0.52230554408E+02  0.65654264031E+02  0.00000000000E+00 0.  1.
         14    1    4    4    0    0  0.68595206904E+02 -0.89445159781E+01 -0.12721508417E+03  0.14480671399E+03  0.00000000000E+00 0. -1.
         -5    1    5    5    0  502  0.31736683641E+02  0.92297945679E+02 -0.58400774859E+02  0.11383702548E+03  0.47000000000E+01 0.  1.
         11    1    6    6    0    0 -0.28541522020E+02  0.40995587863E+02 -0.80479539218E+02  0.94721765905E+02  0.00000000000E+00 0. -1.
        -12    1    6    6    0    0 -0.40999123614E+02 -0.23157803898E+02 -0.16283195402E+02  0.49823232241E+02  0.00000000000E+00 0.  1.
</event>
<event>
12    1  0.8407180E-002  0.2302139E+03  0.7818608E-02  0.1128282E+00
         21   -1    0    0  503  502  0.00000000000E+00  0.00000000000E+00  0.12857871934E+04  0.12857871934E+04  0.00000000000E+00 0. -1.
         21   -1    0    0  501  503 -0.00000000000E+00 -0.00000000000E+00 -0.76502504339E+02  0.76502504339E+02  0.00000000000E+00 0.  1.
          6    2    1    2  501    0 -0.40320364403E+02  0.13389521953E+03  0.13759143914E+03  0.26819739910E+03  0.18287913813E+03 0.  0.
         24    2    3    3    0    0 -0.80354729766E+02  0.72090352717E+02  0.27805628416E+02  0.13591888154E+03  0.77761737621E+02 0.  0.
         -6    2    1    2    0  502  0.40320364403E+02 -0.13389521953E+03  0.10716932499E+04  0.10940922986E+04  0.17017013371E+03 0.  0.
        -24    2    5    5    0    0 -0.26602197719E+02 -0.12403448482E+03  0.72332883414E+03  0.73918989008E+03  0.84290337289E+02 0.  0.
          5    1    3    3  501    0  0.40034365363E+02  0.61804866815E+02  0.10978581072E+03  0.13227851756E+03  0.47000000000E+01 0. -1.
        -11    1    4    4    0    0 -0.25881566292E+02  0.32789696646E+02  0.50021156362E+02  0.65170052660E+02  0.00000000000E+00 0.  1.
         12    1    4    4    0    0 -0.54473163474E+02  0.39300656071E+02 -0.22215527947E+02  0.70748828884E+02  0.00000000000E+00 0. -1.
         -5    1    5    5    0  502  0.66922562121E+02 -0.98607347093E+01  0.34836441580E+03  0.35490240856E+03  0.47000000000E+01 0.  1.
         11    1    6    6    0    0 -0.53215393167E+02 -0.63415453802E+02  0.47643955453E+03  0.48357837727E+03  0.00000000000E+00 0. -1.
        -12    1    6    6    0    0  0.26613195449E+02 -0.60619031021E+02  0.24688927961E+03  0.25561151281E+03  0.00000000000E+00 0.  1.
</event>
<event>
12    1  0.8407180E-002  0.1786785E+03  0.7818608E-02  0.1169937E+00
         21   -1    0    0  501  502  0.00000000000E+00  0.00000000000E+00  0.16776391738E+03  0.16776391738E+03  0.00000000000E+00 0. -1.
         21   -1    0    0  502  503 -0.00000000000E+00 -0.00000000000E+00 -0.26256781676E+03  0.26256781676E+03  0.00000000000E+00 0. -1.
         -6    2    1    2    0  503 -0.22629029224E+02  0.13839248596E+02  0.67957837065E+02  0.19116558177E+03  0.17669865384E+03 0.  0.
        -24    2    3    3    0    0 -0.58413122367E+02  0.75023192943E+01 -0.14509022810E+02  0.10092406708E+03  0.80664601373E+02 0.  0.
          6    2    1    2  501    0  0.22629029224E+02 -0.13839248596E+02 -0.16276173644E+03  0.23916615237E+03  0.17322086429E+03 0.  0.
         24    2    5    5    0    0  0.26945748772E+02  0.52996114859E+02 -0.58442630143E+02  0.11510904530E+03  0.79371844665E+02 0.  0.
          5    1    5    5  501    0 -0.43167195486E+01 -0.66835363456E+02 -0.10431910630E+03  0.12405710707E+03  0.47000000000E+01 0. -1.
        -13    1    6    6    0    0  0.30668534528E+02  0.21954357217E+02  0.10718079344E+02  0.39210075692E+02  0.00000000000E+00 0.  1.
         14    1    6    6    0    0 -0.37227857562E+01  0.31041757642E+02 -0.69160709487E+02  0.75898969612E+02  0.00000000000E+00 0. -1.
         -5    1    3    3    0  503  0.35784093143E+02  0.63369293019E+01  0.82466859874E+02  0.90241514685E+02  0.47000000000E+01 0.  1.
         11    1    4    4    0    0 -0.42432331695E+02 -0.16180316033E+02  0.25253322305E+02  0.51961867629E+02  0.00000000000E+00 0. -1.
        -12    1    4    4    0    0 -0.15980790671E+02  0.23682635327E+02 -0.39762345115E+02  0.48962199456E+02  0.00000000000E+00 0.  1.
</event>
<event>
12    1  0.8407180E-002  0.1816002E+03  0.7818608E-02  0.1166545E+00
         21   -1    0    0  503  502  0.00000000000E+00  0.00000000000E+00  0.86705351824E+02  0.86705351824E+02  0.00000000000E+00 0. -1.
         21   -1    0    0  501  503 -0.00000000000E+00 -0.00000000000E+00 -0.41863825095E+03  0.41863825095E+03  0.00000000000E+00 0. -1.
          6    2    1    2  501    0  0.48113964499E+02 -0.29523172490E+02 -0.86663399361E+02  0.20016206301E+03  0.17137017064E+03 0.  0.
         24    2    3    3    0    0  0.19144200866E+02  0.23632941634E+02 -0.10670853791E+03  0.13621898478E+03  0.79018247235E+02 0.  0.
         -6    2    1    2    0  502 -0.48113964499E+02  0.29523172490E+02 -0.24526949977E+03  0.30518153977E+03  0.17260380472E+03 0.  0.
        -24    2    5    5    0    0 -0.83802672332E+02 -0.18267454650E+02 -0.19280243001E+03  0.22560446192E+03  0.79799802209E+02 0.  0.
          5    1    3    3  501    0  0.28969763633E+02 -0.53156114124E+02  0.20045138547E+02  0.63943078227E+02  0.47000000000E+01 0. -1.
        -13    1    4    4    0    0  0.11023627765E+02 -0.27424391987E+02 -0.21486621177E+02  0.36541654787E+02  0.00000000000E+00 0.  1.
         14    1    4    4    0    0  0.81205731007E+01  0.51057333622E+02 -0.85221916731E+02  0.99677329997E+02  0.00000000000E+00 0. -1.
         -5    1    5    5    0  502  0.35688707833E+02  0.47790627140E+02 -0.52467069761E+02  0.79577077846E+02  0.47000000000E+01 0.  1.
         13    1    6    6    0    0 -0.79979087941E+02 -0.26850928240E+02 -0.93807107357E+02  0.12616417973E+03  0.00000000000E+00 0. -1.
        -14    1    6    6    0    0 -0.38235843918E+01  0.85834735900E+01 -0.98995322651E+02  0.99440282196E+02  0.00000000000E+00 0.  1.
</event>
<event>
12    1  0.8407180E-002  0.1833608E+03  0.7818608E-02  0.1168248E+00
         21   -1    0    0  501  502  0.00000000000E+00  0.00000000000E+00  0.32850957351E+03  0.32850957351E+03  0.00000000000E+00 0. -1.
         21   -1    0    0  502  503 -0.00000000000E+00 -0.00000000000E+00 -0.96046451812E+02  0.96046451812E+02  0.00000000000E+00 0. -1.
         -6    2    1    2    0  503  0.63507098166E+02 -0.18979425505E+01  0.82396163377E+02  0.18761452893E+03  0.15611960166E+03 0.  0.
        -24    2    3    3    0    0 -0.24228016730E+02 -0.13695832738E+01  0.41438349529E+02  0.90674536851E+02  0.76914642744E+02 0.  0.
          6    2    1    2  501    0 -0.63507098166E+02  0.18979425505E+01  0.15006695832E+03  0.23694149639E+03  0.17200124136E+03 0.  0.
         24    2    5    5    0    0 -0.56137970749E+02 -0.23166253476E+02  0.20016065002E+02  0.10420927417E+03  0.82284767155E+02 0.  0.
          5    1    5    5  501    0 -0.73691274176E+01  0.25064196027E+02  0.13005089332E+03  0.13273222222E+03  0.47000000000E+01 0. -1.
        -13    1    6    6    0    0 -0.77337639008E+02 -0.12547577546E+02  0.12525428709E+02  0.79343799216E+02  0.00000000000E+00 0.  1.
         14    1    6    6    0    0  0.21199668260E+02 -0.10618675930E+02  0.74906362935E+01  0.24865474958E+02  0.00000000000E+00 0. -1.
         -5    1    3    3    0  503  0.87735114897E+02 -0.52835927668E+00  0.40957813848E+02  0.96939992081E+02  0.47000000000E+01 0.  1.
         11    1    4    4    0    0  0.26621225446E+02  0.36846891581E+01  0.25751670048E+02  0.37221164526E+02  0.00000000000E+00 0. -1.
        -12    1    4    4    0    0 -0.50849242177E+02 -0.50542724319E+01  0.15686679481E+02  0.53453372325E+02  0.00000000000E+00 0.  1.
</event>
<event>
12    1  0.8407180E-002  0.2904225E+03  0.7818608E-02  0.1090171E+00
         21   -1    0    0  501  502  0.00000000000E+00  0.00000000000E+00  0.84813627939E+02  0.84813627939E+02  0.00000000000E+00 0. -1.
         21   -1    0    0  502  503 -0.00000000000E+00 -0.00000000000E+00 -0.15242857496E+04  0.15242857496E+04  0.00000000000E+00 0. -1.
         -6    2    1    2    0  503 -0.16020880389E+03 -0.16995897062E+03 -0.11942981821E+04  0.12290263505E+04  0.17206019245E+03 0.  0.
        -24    2    3    3    0    0 -0.18716898466E+03 -0.14043325343E+03 -0.10776156112E+04  0.11055940546E+04  0.79555518091E+02 0.  0.
          6    2    1    2  501    0  0.16020880389E+03  0.16995897062E+03 -0.24517393956E+03  0.38007302708E+03  0.17260455596E+03 0.  0.
         24    2    5    5    0    0  0.26613996316E+02  0.80723314258E+02 -0.50745297270E+02  0.12781291941E+03  0.80848617239E+02 0.  0.
          5    1    5    5  501    0  0.13359480757E+03  0.89235656360E+02 -0.19442864229E+03  0.25226010767E+03  0.47000000000E+01 0. -1.
        -13    1    6    6    0    0  0.13232597782E+02  0.33112646644E+01  0.18572443137E+02  0.23043475471E+02  0.00000000000E+00 0.  1.
         14    1    6    6    0    0  0.13381398534E+02  0.77412049594E+02 -0.69317740407E+02  0.10476944394E+03  0.00000000000E+00 0. -1.
         -5    1    3    3    0  503  0.26960180773E+02 -0.29525717185E+02 -0.11668257087E+03  0.12343229588E+03  0.47000000000E+01 0.  1.
         13    1    4    4    0    0 -0.71721361408E+02 -0.15379800491E+02 -0.41727102837E+03  0.42366921420E+03  0.00000000000E+00 0. -1.
        -14    1    4    4    0    0 -0.11544762325E+03 -0.12505345294E+03 -0.66034458288E+03  0.68192484040E+03  0.00000000000E+00 0.  1.
</event>
<event>
12    1  0.8407180E-002  0.2336205E+03  0.7818608E-02  0.1124516E+00
         21   -1    0    0  501  502  0.00000000000E+00  0.00000000000E+00  0.99630995173E+03  0.99630995173E+03  0.00000000000E+00 0. -1.
         21   -1    0    0  502  503 -0.00000000000E+00 -0.00000000000E+00 -0.58313889143E+02  0.58313889143E+02  0.00000000000E+00 0.  1.
         -6    2    1    2    0  503  0.74421186359E+02 -0.13721515723E+03  0.32750120010E+03  0.40095532451E+03  0.17070917912E+03 0.  0.
        -24    2    3    3    0    0  0.19452602189E+02 -0.43769608302E+02  0.25374108444E+03  0.26974457601E+03  0.77996256394E+02 0.  0.
          6    2    1    2  501    0 -0.74421186359E+02  0.13721515723E+03  0.61049486248E+03  0.65366851636E+03  0.17381610917E+03 0.  0.
         24    2    5    5    0    0  0.14911302522E+02  0.17176514048E+02  0.19370703299E+03  0.21080989982E+03  0.80006372591E+02 0.  0.
          5    1    5    5  501    0 -0.89332488880E+02  0.12003864319E+03  0.41678782949E+03  0.44285861654E+03  0.47000000000E+01 0. -1.
        -11    1    6    6    0    0  0.21791409079E+02  0.16501365002E+01  0.64519561760E+01  0.22786316038E+02  0.00000000000E+00 0.  1.
         12    1    6    6    0    0 -0.68801065570E+01  0.15526377548E+02  0.18725507681E+03  0.18802358378E+03  0.00000000000E+00 0. -1.
         -5    1    3    3    0  503  0.54968584170E+02 -0.93445548931E+02  0.73760115665E+02  0.13121074851E+03  0.47000000000E+01 0.  1.
         11    1    4    4    0    0  0.48569303555E+02 -0.18613970506E+02  0.12539971631E+03  0.13575914701E+03  0.00000000000E+00 0. -1.
        -12    1    4    4    0    0 -0.29116701366E+02 -0.25155637796E+02  0.12834136813E+03  0.13398542900E+03  0.00000000000E+00 0.  1.
</event>
<event>
12    1  0.8407180E-002  0.1885533E+03  0.7818608E-02  0.1160608E+00
         21   -1    0    0  501  502  0.00000000000E+00  0.00000000000E+00  0.33966043583E+03  0.33966043583E+03  0.00000000000E+00 0.  1.
         21   -1    0    0  502  503 -0.00000000000E+00 -0.00000000000E+00 -0.14089098203E+03  0.14089098203E+03  0.00000000000E+00 0.  1.
         -6    2    1    2    0  503  0.77813811336E+01  0.74797294350E+02 -0.25062389448E+02  0.19021159687E+03  0.17290790347E+03 0.  0.
        -24    2    3    3    0    0  0.18688241831E+02 -0.14362921600E+02  0.24698133741E+02  0.87417125290E+02  0.80474915868E+02 0.  0.
          6    2    1    2  501    0 -0.77813811336E+01 -0.74797294350E+02  0.22383184324E+03  0.29033982100E+03  0.16894180203E+03 0.  0.
         24    2    5    5    0    0 -0.13552004536E+02  0.20113322427E+02  0.14177869304E+03  0.16465714626E+03  0.80140972342E+02 0.  0.
          5    1    5    5  501    0  0.57706234027E+01 -0.94910616778E+02  0.82053150205E+02  0.12568267474E+03  0.47000000000E+01 0. -1.
        -11    1    6    6    0    0  0.18907964231E+02 -0.47731110211E+01  0.26981791591E+01  0.19686895920E+02  0.00000000000E+00 0.  1.
         12    1    6    6    0    0 -0.32459968767E+02  0.24886433449E+02  0.13908051388E+03  0.14497025034E+03  0.00000000000E+00 0. -1.
         -5    1    3    3    0  503 -0.10906860698E+02  0.89160215950E+02 -0.49760523189E+02  0.10279447158E+03  0.47000000000E+01 0.  1.
         13    1    4    4    0    0  0.41000563765E+01 -0.41274129243E+02 -0.84154286803E+01  0.42322377614E+02  0.00000000000E+00 0. -1.
        -14    1    4    4    0    0  0.14588185455E+02  0.26911207643E+02  0.33113562422E+02  0.45094747675E+02  0.00000000000E+00 0.  1.
</event>
<event>
12    1  0.8407180E-002  0.1737777E+03  0.7818608E-02  0.1174182E+00
         21   -1    0    0  501  502  0.00000000000E+00  0.00000000000E+00  0.11722808071E+03  0.11722808071E+03  0.00000000000E+00 0.  1.
         21   -1    0    0  502  503 -0.00000000000E+00 -0.00000000000E+00 -0.31482214803E+03  0.31482214803E+03  0.00000000000E+00 0.  1.
         -6    2    1    2    0  503  0.19000489389E+02  0.97527908809E+01 -0.19170442427E+03  0.25817270406E+03  0.17159960172E+03 0.  0.
        -24    2    3    3    0    0  0.50875407674E+02 -0.22115042499E+02 -0.49413513802E+02  0.10883964536E+03  0.79542383949E+02 0.  0.
          6    2    1    2  501    0 -0.19000489389E+02 -0.97527908809E+01 -0.58896430463E+01  0.17387752468E+03  0.17246034375E+03 0.  0.
         24    2    5    5    0    0 -0.42931448421E+02 -0.63629386277E+02  0.13886854936E+02  0.11151905931E+03  0.79698480457E+02 0.  0.
          5    1    5    5  501    0  0.23930959032E+02  0.53876595396E+02 -0.19776497982E+02  0.62358465377E+02  0.47000000000E+01 0. -1.
        -13    1    6    6    0    0 -0.13745824237E+01  0.15698354310E+02 -0.10213934425E+02  0.18779037817E+02  0.00000000000E+00 0.  1.
         14    1    6    6    0    0 -0.41556865997E+02 -0.79327740587E+02  0.24100789361E+02  0.92740021490E+02  0.00000000000E+00 0. -1.
         -5    1    3    3    0  503 -0.31874918285E+02  0.31867833380E+02 -0.14229091047E+03  0.14933305871E+03  0.47000000000E+01 0.  1.
         11    1    4    4    0    0  0.29538345707E+02  0.28554742667E+02 -0.28573753215E+02  0.50043446810E+02  0.00000000000E+00 0. -1.
        -12    1    4    4    0    0  0.21337061966E+02 -0.50669785166E+02 -0.20839760587E+02  0.58796198545E+02  0.00000000000E+00 0.  1.
</event>
<event>
12    1  0.8407180E-002  0.2926384E+03  0.7818608E-02  0.1089472E+00
         21   -1    0    0  501  502  0.00000000000E+00  0.00000000000E+00  0.23341382257E+04  0.23341382257E+04  0.00000000000E+00 0.  1.
         21   -1    0    0  502  503 -0.00000000000E+00 -0.00000000000E+00 -0.36685818809E+02  0.36685818809E+02  0.00000000000E+00 0. -1.
         -6    2    1    2    0  503  0.23171369643E+03 -0.82697943250E+00  0.12903750591E+04  0.13231420941E+04  0.17873244482E+03 0.  0.
        -24    2    3    3    0    0  0.24474415185E+02 -0.43253285427E+01  0.46178953055E+03  0.46901304859E+03  0.78140666472E+02 0.  0.
          6    2    1    2  501    0 -0.23171369643E+03  0.82697943250E+00  0.10070773477E+04  0.10476819504E+04  0.17245510696E+03 0.  0.
         24    2    5    5    0    0 -0.23283257923E+03  0.18819823971E+02  0.99525318140E+03  0.10256162471E+04  0.82429336514E+02 0.  0.
          5    1    5    5  501    0  0.11188827934E+01 -0.17992844539E+02  0.11824166328E+02  0.22065703312E+02  0.47000000000E+01 0. -1.
        -11    1    6    6    0    0 -0.35378293707E+01  0.15505407099E+02  0.10999190160E+03  0.11113573819E+03  0.00000000000E+00 0.  1.
         12    1    6    6    0    0 -0.22929474986E+03  0.33144168721E+01  0.88526127980E+03  0.91448050892E+03  0.00000000000E+00 0. -1.
         -5    1    3    3    0  503  0.20723928125E+03  0.34983491102E+01  0.82858552858E+03  0.85412904547E+03  0.47000000000E+01 0.  1.
         11    1    4    4    0    0  0.35408488394E+02  0.10685874808E+02  0.97956750373E+02  0.10470660874E+03  0.00000000000E+00 0. -1.
        -12    1    4    4    0    0 -0.10934073209E+02 -0.15011203351E+02  0.36383278018E+03  0.36430643985E+03  0.00000000000E+00 0.  1.
</event>
<event>
12    1  0.8407180E-002  0.2423924E+03  0.7818608E-02  0.1119122E+00
         21   -1    0    0  501  502  0.00000000000E+00  0.00000000000E+00  0.22503977494E+04  0.22503977494E+04  0.00000000000E+00 0.  1.
         21   -1    0    0  502  503 -0.00000000000E+00 -0.00000000000E+00 -0.49747696825E+02  0.49747696825E+02  0.00000000000E+00 0.  1.
         -6    2    1    2    0  503  0.15288209838E+03  0.56214293384E+02  0.30423331878E+03  0.38898840967E+03  0.17950233374E+03 0.  0.
        -24    2    3    3    0    0  0.90634061066E+02 -0.23689774307E+02  0.23275391475E+03  0.26492845084E+03  0.85070328580E+02 0.  0.
          6    2    1    2  501    0 -0.15288209838E+03 -0.56214293384E+02  0.18964167338E+04  0.19111570365E+04  0.17202269431E+03 0.  0.
         24    2    5    5    0    0 -0.10026805621E+03 -0.10356593026E+03  0.12147108669E+04  0.12257699971E+04  0.78803619926E+02 0.  0.
          5    1    5    5  501    0 -0.52614042175E+02  0.47351636878E+02  0.68170586683E+03  0.68538703943E+03  0.47000000000E+01 0. -1.
        -13    1    6    6    0    0 -0.10163463028E+03 -0.55786571415E+02  0.90392463410E+03  0.91132951437E+03  0.00000000000E+00 0.  1.
         14    1    6    6    0    0  0.13665740752E+01 -0.47779358848E+02  0.31078623284E+03  0.31444048273E+03  0.00000000000E+00 0. -1.
         -5    1    3    3    0  503  0.62248037317E+02  0.79904067691E+02  0.71479404032E+02  0.12405995883E+03  0.47000000000E+01 0.  1.
         11    1    4    4    0    0  0.22337589278E+02  0.22327157798E+01  0.16091219975E+03  0.16247057870E+03  0.00000000000E+00 0. -1.
        -12    1    4    4    0    0  0.68296471788E+02 -0.25922490087E+02  0.71841715000E+02  0.10245787215E+03  0.00000000000E+00 0.  1.
</event>
<event>
12    1  0.8407180E-002  0.2377423E+03  0.7818608E-02  0.1121481E+00
         21   -1    0    0  501  502  0.00000000000E+00  0.00000000000E+00  0.57339116842E+02  0.57339116842E+02  0.00000000000E+00 0.  1.
         21   -1    0    0  502  503 -0.00000000000E+00 -0.00000000000E+00 -0.11814061671E+04  0.11814061671E+04  0.00000000000E+00 0.  1.
         -6    2    1    2    0  503 -0.16268906463E+03 -0.23114770406E+02 -0.81582097544E+03  0.84946768287E+03  0.17038032725E+03 0.  0.
        -24    2    3    3    0    0 -0.16369791849E+03 -0.13615351183E+02 -0.47543043489E+03  0.50891068787E+03  0.77289090416E+02 0.  0.
          6    2    1    2  501    0  0.16268906463E+03  0.23114770406E+02 -0.30824607484E+03  0.38927760109E+03  0.17181205923E+03 0.  0.
         24    2    5    5    0    0  0.18316834882E+03  0.16433365894E+02 -0.22125615284E+03  0.29953698166E+03  0.83351176884E+02 0.  0.
          5    1    5    5  501    0 -0.20479284190E+02  0.66814045120E+01 -0.86989921999E+02  0.89740619435E+02  0.47000000000E+01 0. -1.
        -13    1    6    6    0    0  0.80293393443E+02  0.46193489083E+02 -0.80873102439E+02  0.12296880158E+03  0.00000000000E+00 0.  1.
         14    1    6    6    0    0  0.10287495537E+03 -0.29760123189E+02 -0.14038305040E+03  0.17656818008E+03  0.00000000000E+00 0. -1.
         -5    1    3    3    0  503  0.10088538641E+01 -0.94994192235E+01 -0.34039054055E+03  0.34055699500E+03  0.47000000000E+01 0.  1.
         13    1    4    4    0    0  0.48711187706E+01 -0.18100236776E+01 -0.62871337826E+02  0.63085728210E+02  0.00000000000E+00 0. -1.
        -14    1    4    4    0    0 -0.16856903726E+03 -0.11805327505E+02 -0.41255909707E+03  0.44582495966E+03  0.00000000000E+00 0.  1.
</event>
<event>
12    1  0.8407180E-002  0.1822849E+03  0.7818608E-02  0.1166995E+00
         21   -1    0    0  503  502  0.00000000000E+00  0.00000000000E+00  0.97754169979E+02  0.97754169979E+02  0.00000000000E+00 0.  1.
         21   -1    0    0  501  503 -0.00000000000E+00 -0.00000000000E+00 -0.40035677711E+03  0.40035677711E+03  0.00000000000E+00 0.  1.
          6    2    1    2  501    0 -0.66481465016E+02  0.79457612089E+01 -0.48394089008E+02  0.18859950980E+03  0.16954311232E+03 0.  0.
         24    2    3    3    0    0 -0.59640005970E+02 -0.15130596604E+02 -0.92852658975E+02  0.13782571444E+03  0.81169243047E+02 0.  0.
         -6    2    1    2    0  502  0.66481465016E+02 -0.79457612089E+01 -0.25420851812E+03  0.30951143729E+03  0.16337820789E+03 0.  0.
        -24    2    5    5    0    0  0.89676538843E+02 -0.21627309521E+02 -0.25674997130E+03  0.28205701691E+03  0.71596025623E+02 0.  0.
          5    1    3    3  501    0 -0.68414590452E+01  0.23076357813E+02  0.44458569967E+02  0.50773795360E+02  0.47000000000E+01 0. -1.
        -13    1    4    4    0    0 -0.12289641037E+01  0.18248742046E+02 -0.60444187216E+02  0.63150825071E+02  0.00000000000E+00 0.  1.
         14    1    4    4    0    0 -0.58411041867E+02 -0.33379338650E+02 -0.32408471759E+02  0.74674889370E+02  0.00000000000E+00 0. -1.
         -5    1    5    5    0  502 -0.23195073828E+02  0.13681548312E+02  0.25414531837E+01  0.27454420379E+02  0.47000000000E+01 0.  1.
         11    1    6    6    0    0  0.29945444667E+02  0.20365193727E+02 -0.43208260663E+02  0.56377518227E+02  0.00000000000E+00 0. -1.
        -12    1    6    6    0    0  0.59731094176E+02 -0.41992503248E+02 -0.21354171064E+03  0.22567949868E+03  0.00000000000E+00 0.  1.
</event>
<event>
12    1  0.8407180E-002  0.2010243E+03  0.7818608E-02  0.1149089E+00
         21   -1    0    0  503  502  0.00000000000E+00  0.00000000000E+00  0.12331786250E+03  0.12331786250E+03  0.00000000000E+00 0.  1.
         21   -1    0    0  501  503 -0.00000000000E+00 -0.00000000000E+00 -0.33127809204E+03  0.33127809204E+03  0.00000000000E+00 0.  1.
          6    2    1    2  501    0 -0.10368714450E+03  0.36233857717E+01 -0.13226246583E+03  0.23979153743E+03  0.17100429437E+03 0.  0.
         24    2    3    3    0    0 -0.10222992559E+03  0.59473571164E+02 -0.10653014523E+03  0.17810191902E+03  0.79897173694E+02 0.  0.
         -6    2    1    2    0  502  0.10368714450E+03 -0.36233857717E+01 -0.75697763714E+02  0.21480441711E+03  0.17218197734E+03 0.  0.
        -24    2    5    5    0    0  0.12410792026E+03 -0.43366295046E+02 -0.70707721304E+02  0.16959935718E+03  0.80504339540E+02 0.  0.
          5    1    3    3  501    0 -0.14572189146E+01 -0.55850185392E+02 -0.25732320597E+02  0.61689618402E+02  0.47000000000E+01 0. -1.
        -13    1    4    4    0    0 -0.97738851292E+02  0.33996086779E+02 -0.47926177552E+02  0.11404181454E+03  0.00000000000E+00 0.  1.
         14    1    4    4    0    0 -0.44910742938E+01  0.25477484385E+02 -0.58603967681E+02  0.64060104486E+02  0.00000000000E+00 0. -1.
         -5    1    5    5    0  502 -0.20420775765E+02  0.39742909274E+02 -0.49900424102E+01  0.45205059934E+02  0.47000000000E+01 0.  1.
         11    1    6    6    0    0  0.44120920473E+01 -0.29395308629E+02 -0.30428538548E+02  0.42537591420E+02  0.00000000000E+00 0. -1.
        -12    1    6    6    0    0  0.11969582822E+03 -0.13970986416E+02 -0.40279182756E+02  0.12706176576E+03  0.00000000000E+00 0.  1.
</event>
<event>
12    1  0.8407180E-002  0.2080097E+03  0.7818608E-02  0.1143563E+00
         21   -1    0    0  503  502  0.00000000000E+00  0.00000000000E+00  0.11556860726E+03  0.11556860726E+03  0.00000000000E+00 0. -1.
         21   -1    0    0  501  503 -0.00000000000E+00 -0.00000000000E+00 -0.96622834609E+03  0.96622834609E+03  0.00000000000E+00 0. -1.
          6    2    1    2  501    0 -0.17084037337E+02  0.11305913328E+03 -0.84915911858E+03  0.87378186468E+03  0.17131639279E+03 0.  0.
         24    2    3    3    0    0 -0.55727173773E+02  0.12997155776E+03 -0.71124359973E+03  0.72948320760E+03  0.79247512875E+02 0.  0.
         -6    2    1    2    0  502  0.17084037337E+02 -0.11305913328E+03 -0.15006202549E+01  0.20801508867E+03  0.17376361329E+03 0.  0.
        -24    2    5    5    0    0 -0.51564919286E+02 -0.77878073040E+02 -0.29016347930E+02  0.12598100115E+03  0.79406102049E+02 0.  0.
          5    1    3    3  501    0  0.38643136436E+02 -0.16912424486E+02 -0.13791551885E+03  0.14429865708E+03  0.47000000000E+01 0. -1.
        -13    1    4    4    0    0 -0.61343862073E+02  0.46276709223E+02 -0.38777415118E+03  0.39531429971E+03  0.00000000000E+00 0.  1.
         14    1    4    4    0    0  0.56166883006E+01  0.83694848539E+02 -0.32346944855E+03  0.33416890789E+03  0.00000000000E+00 0. -1.
         -5    1    5    5    0  502  0.68648956622E+02 -0.35181060236E+02  0.27515727675E+02  0.82034087514E+02  0.47000000000E+01 0.  1.
         13    1    6    6    0    0 -0.31337352075E+02 -0.72008868160E+02 -0.52478053929E+02  0.94452384157E+02  0.00000000000E+00 0. -1.
        -14    1    6    6    0    0 -0.20227567211E+02 -0.58692048797E+01  0.23461705999E+02  0.31528616995E+02  0.00000000000E+00 0.  1.
</event>
<event>
12    1  0.8407180E-002  0.1783793E+03  0.7818608E-02  0.1172088E+00
         21   -1    0    0  501  502  0.00000000000E+00  0.00000000000E+00  0.67610561640E+02  0.67610561640E+02  0.00000000000E+00 0. -1.
         21   -1    0    0  502  503 -0.00000000000E+00 -0.00000000000E+00 -0.50733569188E+03  0.50733569188E+03  0.00000000000E+00 0. -1.
         -6    2    1    2    0  503 -0.53184483138E+02  0.56556644184E+01 -0.11146688521E+03  0.20135202507E+03  0.15892512613E+03 0.  0.
        -24    2    3    3    0    0 -0.63390710858E+02 -0.49652130339E+02 -0.79475114724E+02  0.13647766477E+03  0.76329174316E+02 0.  0.
          6    2    1    2  501    0  0.53184483138E+02 -0.56556644184E+01 -0.32825824502E+03  0.37359422844E+03  0.17017225483E+03 0.  0.
         24    2    5    5    0    0  0.30035994797E+01 -0.24680170764E+02 -0.68214720399E+02  0.10802921263E+03  0.79993313864E+02 0.  0.
          5    1    5    5  501    0  0.50180883659E+02  0.19024506345E+02 -0.26004352462E+03  0.26556501582E+03  0.47000000000E+01 0. -1.
        -11    1    6    6    0    0  0.20931509554E+01 -0.36862488368E+02 -0.81807501803E+02  0.89753505117E+02  0.00000000000E+00 0.  1.
         12    1    6    6    0    0  0.91044852432E+00  0.12182317604E+02  0.13592781403E+02  0.18275707510E+02  0.00000000000E+00 0. -1.
         -5    1    3    3    0  503  0.10206227719E+02  0.55307794757E+02 -0.31991770490E+02  0.64874360299E+02  0.47000000000E+01 0.  1.
         11    1    4    4    0    0  0.16218447105E+02 -0.20369295755E+02 -0.21009935325E+02  0.33456891942E+02  0.00000000000E+00 0. -1.
        -12    1    4    4    0    0 -0.79609157963E+02 -0.29282834583E+02 -0.58465179400E+02  0.10302077283E+03  0.00000000000E+00 0.  1.
</event>
<event>
12    1  0.8407180E-002  0.1830793E+03  0.7818608E-02  0.1165816E+00
         21   -1    0    0  501  502  0.00000000000E+00  0.00000000000E+00  0.18388762274E+03  0.18388762274E+03  0.00000000000E+00 0.  1.
         21   -1    0    0  502  503 -0.00000000000E+00 -0.00000000000E+00 -0.68216156328E+03  0.68216156328E+03  0.00000000000E+00 0.  1.
         -6    2    1    2    0  503  0.43085211025E+02 -0.47597795195E+02 -0.62056425355E+03  0.64588345082E+03  0.16716325477E+03 0.  0.
        -24    2    3    3    0    0 -0.13665487612E+02 -0.46692081632E+02 -0.53410272397E+03  0.54235013150E+03  0.80691073512E+02 0.  0.
          6    2    1    2  501    0 -0.43085211025E+02  0.47597795195E+02  0.12229031301E+03  0.22016573520E+03  0.17145303959E+03 0.  0.
         24    2    5    5    0    0 -0.19099247621E+02 -0.93877857927E+01  0.13510208556E+03  0.15684974672E+03  0.76787744752E+02 0.  0.
          5    1    5    5  501    0 -0.23985963404E+02  0.56985580988E+02 -0.12811772544E+02  0.63315988476E+02  0.47000000000E+01 0. -1.
        -11    1    6    6    0    0 -0.16302097941E+02 -0.37907642516E+02  0.39792676486E+02  0.57325429439E+02  0.00000000000E+00 0.  1.
         12    1    6    6    0    0 -0.27971496798E+01  0.28519856724E+02  0.95309409069E+02  0.99524317285E+02  0.00000000000E+00 0. -1.
         -5    1    3    3    0  503  0.56750698638E+02 -0.90571356333E+00 -0.86461529579E+02  0.10353331932E+03  0.47000000000E+01 0.  1.
         11    1    4    4    0    0 -0.45416630109E+02 -0.12171724438E+02 -0.28906146490E+03  0.29286063521E+03  0.00000000000E+00 0. -1.
        -12    1    4    4    0    0  0.31751142496E+02 -0.34520357194E+02 -0.24504125907E+03  0.24948949628E+03  0.00000000000E+00 0.  1.
</event>
<event>
12    1  0.8407180E-002  0.1902219E+03  0.7818608E-02  0.1158455E+00
         21   -1    0    0  503  502  0.00000000000E+00  0.00000000000E+00  0.29508414946E+03  0.29508414946E+03  0.00000000000E+00 0. -1.
         21   -1    0    0  501  503 -0.00000000000E+00 -0.00000000000E+00 -0.16177392338E+03  0.16177392338E+03  0.00000000000E+00 0. -1.
          6    2    1    2  501    0  0.76715321488E+02 -0.10509118641E+02 -0.46393271124E+02  0.19579763307E+03  0.17374894355E+03 0.  0.
         24    2    3    3    0    0  0.48336792606E+02  0.28362070142E+02  0.32769292899E+02  0.10303389144E+03  0.80008147622E+02 0.  0.
         -6    2    1    2    0  502 -0.76715321488E+02  0.10509118641E+02  0.17970349720E+03  0.26106043976E+03  0.17281065990E+03 0.  0.
        -24    2    5    5    0    0 -0.44536263733E+02 -0.46175185803E+02  0.41092682122E+02  0.10781667908E+03  0.76290243108E+02 0.  0.
          5    1    3    3  501    0  0.28378528882E+02 -0.38871188783E+02 -0.79162564023E+02  0.92763741632E+02  0.47000000000E+01 0. -1.
        -11    1    4    4    0    0 -0.80511667198E+01  0.28088344146E+02  0.36223668926E+02  0.46539559011E+02  0.00000000000E+00 0.  1.
         12    1    4    4    0    0  0.56387959326E+02  0.27372599588E+00 -0.34543760277E+01  0.56494332429E+02  0.00000000000E+00 0. -1.
         -5    1    5    5    0  502 -0.32179057756E+02  0.56684304444E+02  0.13861081508E+03  0.15324376067E+03  0.47000000000E+01 0.  1.
         11    1    6    6    0    0 -0.16008802014E+02  0.21029509878E+02  0.14275280063E+02  0.30038402895E+02  0.00000000000E+00 0. -1.
        -12    1    6    6    0    0 -0.28527461719E+02 -0.67204695681E+02  0.26817402059E+02  0.77778276189E+02  0.00000000000E+00 0.  1.
</event>
<event>
12    1  0.8407180E-002  0.2115566E+03  0.7818608E-02  0.1140445E+00
         21   -1    0    0  503  502  0.00000000000E+00  0.00000000000E+00  0.62259608584E+02  0.62259608584E+02  0.00000000000E+00 0.  1.
         21   -1    0    0  501  503 -0.00000000000E+00 -0.00000000000E+00 -0.94287672730E+03  0.94287672730E+03  0.00000000000E+00 0. -1.
          6    2    1    2  501    0 -0.89211923381E+02  0.85179502058E+02 -0.68584300397E+03  0.71757215346E+03  0.17121581262E+03 0.  0.
         24    2    3    3    0    0 -0.26182884057E+02  0.11216278482E+03 -0.40516586074E+03  0.42860415164E+03  0.79221905923E+02 0.  0.
         -6    2    1    2    0  502  0.89211923381E+02 -0.85179502058E+02 -0.19477411475E+03  0.28756418242E+03  0.17187753894E+03 0.  0.
        -24    2    5    5    0    0 -0.82943219920E+01 -0.81130220095E+02 -0.12687323226E+03  0.16858315698E+03  0.75316368505E+02 0.  0.
          5    1    3    3  501    0 -0.63029039324E+02 -0.26983282762E+02 -0.28067714322E+03  0.28896800182E+03  0.47000000000E+01 0. -1.
        -11    1    4    4    0    0 -0.41574568920E+02  0.33289044841E+02 -0.10326294026E+03  0.11618881237E+03  0.00000000000E+00 0.  1.
         12    1    4    4    0    0  0.15391684863E+02  0.78873739980E+02 -0.30190292048E+03  0.31241533928E+03  0.00000000000E+00 0. -1.
         -5    1    5    5    0  502  0.97506245373E+02 -0.40492819632E+01 -0.67900882488E+02  0.11898102544E+03  0.47000000000E+01 0.  1.
         11    1    6    6    0    0 -0.14069537976E+02 -0.48225023761E+02 -0.12546161647E+03  0.13514518867E+03  0.00000000000E+00 0. -1.
        -12    1    6    6    0    0  0.57752159843E+01 -0.32905196334E+02 -0.14116157920E+01  0.33437968308E+02  0.00000000000E+00 0.  1.
</event>
<event>
12    1  0.8407180E-002  0.2524391E+03  0.7818608E-02  0.1111867E+00
         21   -1    0    0  503  502  0.00000000000E+00  0.00000000000E+00  0.10346355724E+03  0.10346355724E+03  0.00000000000E+00 0.  1.
         21   -1    0    0  501  503 -0.00000000000E+00 -0.00000000000E+00 -0.14105909907E+04  0.14105909907E+04  0.00000000000E+00 0. -1.
          6    2    1    2  501    0 -0.17236966795E+03 -0.63966120135E+02 -0.12219526860E+04  0.12476334014E+04  0.17209814234E+03 0.  0.
         24    2    3    3    0    0 -0.60394664898E+02 -0.12603160001E+02 -0.27704477981E+03  0.29471703776E+03  0.79359732449E+02 0.  0.
         -6    2    1    2    0  502  0.17236966795E+03  0.63966120135E+02 -0.85174747465E+02  0.26642114650E+03  0.17298127859E+03 0.  0.
        -24    2    5    5    0    0  0.25142915175E+02 -0.98675404230E+01 -0.71659511657E+01  0.84117585199E+02  0.79340297113E+02 0.  0.
          5    1    3    3  501    0 -0.11197500305E+03 -0.51362960135E+02 -0.94490790616E+03  0.95291636365E+03  0.47000000000E+01 0. -1.
        -13    1    4    4    0    0  0.13492432928E+02 -0.20271634474E+02 -0.46351325168E+02  0.52358669343E+02  0.00000000000E+00 0.  1.
         14    1    4    4    0    0 -0.73887097826E+02  0.76684744727E+01 -0.23069345464E+03  0.24235836841E+03  0.00000000000E+00 0. -1.
         -5    1    5    5    0  502  0.14722675277E+03  0.73833660558E+02 -0.78008796299E+02  0.18230356130E+03  0.47000000000E+01 0.  1.
         11    1    6    6    0    0  0.32512278584E+01  0.17162177272E+02 -0.35297084752E+02  0.39382673898E+02  0.00000000000E+00 0. -1.
        -12    1    6    6    0    0  0.21891687316E+02 -0.27029717695E+02  0.28131133587E+02  0.44734911301E+02  0.00000000000E+00 0.  1.
</event>
<event>
12    1  0.8407180E-002  0.3854365E+03  0.7818608E-02  0.1048974E+00
         21   -1    0    0  503  502  0.00000000000E+00  0.00000000000E+00  0.49443232169E+03  0.49443232169E+03  0.00000000000E+00 0.  1.
         21   -1    0    0  501  503 -0.00000000000E+00 -0.00000000000E+00 -0.37954716343E+03  0.37954716343E+03  0.00000000000E+00 0. -1.
          6    2    1    2  501    0 -0.15550719651E+03 -0.30708754434E+03 -0.14238229480E+03  0.41057054511E+03  0.17265632507E+03 0.  0.
         24    2    3    3    0    0 -0.66334155248E+02 -0.55636224946E+02 -0.41019074617E+02  0.12513020157E+03  0.80494677992E+02 0.  0.
         -6    2    1    2    0  502  0.15550719651E+03  0.30708754434E+03  0.25726745306E+03  0.46340894001E+03  0.17342449430E+03 0.  0.
        -24    2    5    5    0    0  0.12545370067E+02  0.10360923327E+03  0.12416870299E+03  0.18131166217E+03  0.81017235862E+02 0.  0.
          5    1    3    3  501    0 -0.89173041263E+02 -0.25145131940E+03 -0.10136322018E+03  0.28544034354E+03  0.47000000000E+01 0. -1.
        -13    1    4    4    0    0  0.91028461188E+01 -0.30281927212E+02  0.67191770211E+01  0.32326525687E+02  0.00000000000E+00 0.  1.
         14    1    4    4    0    0 -0.75437001367E+02 -0.25354297733E+02 -0.47738251638E+02  0.92803675887E+02  0.00000000000E+00 0. -1.
         -5    1    5    5    0  502  0.14296182644E+03  0.20347831107E+03  0.13309875007E+03  0.28209727784E+03  0.47000000000E+01 0.  1.
         11    1    6    6    0    0 -0.22592996434E+02 -0.12747492725E+00  0.21581233528E+02  0.31244349542E+02  0.00000000000E+00 0. -1.
        -12    1    6    6    0    0  0.35138366501E+02  0.10373670820E+03  0.10258746946E+03  0.15006731262E+03  0.00000000000E+00 0.  1.
</event>
<event>
12    1  0.8407180E-002  0.1853854E+03  0.7818608E-02  0.1163246E+00
         21   -1    0    0  501  502  0.00000000000E+00  0.00000000000E+00  0.32827169334E+02  0.32827169334E+02  0.00000000000E+00 0. -1.
         21   -1    0    0  502  503 -0.00000000000E+00 -0.00000000000E+00 -0.12138786919E+04  0.12138786919E+04  0.00000000000E+00 0.  1.
         -6    2    1    2    0  503  0.32925840840E+02  0.56860080771E+02 -0.83397650712E+03  0.85433281631E+03  0.17335099312E+03 0.  0.
        -24    2    3    3    0    0  0.46911198007E+02  0.46037610318E+02 -0.82889238542E+03  0.83534191387E+03  0.80083733728E+02 0.  0.
          6    2    1    2  501    0 -0.32925840840E+02 -0.56860080771E+02 -0.34707501544E+03  0.39237304492E+03  0.17081674466E+03 0.  0.
         24    2    5    5    0    0 -0.96198877114E+00  0.76548249349E+01 -0.28671640386E+03  0.29830332137E+03  0.81969833034E+02 0.  0.
          5    1    5    5  501    0 -0.31963852069E+02 -0.64514905706E+02 -0.60358611579E+02  0.94069723552E+02  0.47000000000E+01 0. -1.
        -11    1    6    6    0    0 -0.31739576854E+02 -0.13495104432E+01 -0.23714783117E+03  0.23926620269E+03  0.00000000000E+00 0.  1.
         12    1    6    6    0    0  0.30777588083E+02  0.90043353781E+01 -0.49568572691E+02  0.59037118683E+02  0.00000000000E+00 0. -1.
         -5    1    3    3    0  503 -0.13985357167E+02  0.10822470453E+02 -0.50841216997E+01  0.18990902434E+02  0.47000000000E+01 0.  1.
         13    1    4    4    0    0 -0.14712861323E+02 -0.94166446189E+00 -0.39608218370E+02  0.42263056949E+02  0.00000000000E+00 0. -1.
        -14    1    4    4    0    0  0.61624059331E+02  0.46979274780E+02 -0.78928416705E+03  0.79307885692E+03  0.00000000000E+00 0.  1.
</event>
<event>
12    1  0.8407180E-002  0.1755964E+03  0.7818608E-02  0.1172333E+00
         21   -1    0    0  503  502  0.00000000000E+00  0.00000000000E+00  0.22240223074E+03  0.22240223074E+03  0.00000000000E+00 0. -1.
         21   -1    0    0  501  503 -0.00000000000E+00 -0.00000000000E+00 -0.16909020459E+03  0.16909020459E+03  0.00000000000E+00 0.  1.
          6    2    1    2  501    0 -0.34825169740E+02 -0.63936168443E+01 -0.57306431060E+02  0.18395803057E+03  0.17118077926E+03 0.  0.
         24    2    3    3    0    0  0.17299631924E+02  0.48976574548E+02 -0.49882928764E+02  0.10740705782E+03  0.79686807991E+02 0.  0.
         -6    2    1    2    0  502  0.34825169740E+02  0.63936168443E+01  0.11061845721E+03  0.20753440475E+03  0.17198957904E+03 0.  0.
        -24    2    5    5    0    0  0.47907911687E+02  0.39885063400E+02  0.13116424760E+03  0.16585641738E+03  0.80114324889E+02 0.  0.
          5    1    3    3  501    0 -0.52124801664E+02 -0.55370191393E+02 -0.74235022959E+01  0.76550972755E+02  0.47000000000E+01 0. -1.
        -11    1    4    4    0    0 -0.27687250535E+02  0.40628424920E+02 -0.29315359383E+02  0.57241969301E+02  0.00000000000E+00 0.  1.
         12    1    4    4    0    0  0.44986882459E+02  0.83481496283E+01 -0.20567569381E+02  0.50165088516E+02  0.00000000000E+00 0. -1.
         -5    1    5    5    0  502 -0.13082741947E+02 -0.33491446555E+02 -0.20545790390E+02  0.41677987379E+02  0.47000000000E+01 0.  1.
         13    1    6    6    0    0  0.60513607559E+02  0.46362594964E+02  0.71445347520E+02  0.10447882366E+03  0.00000000000E+00 0. -1.
        -14    1    6    6    0    0 -0.12605695873E+02 -0.64775315647E+01  0.59718900077E+02  0.61377593713E+02  0.00000000000E+00 0.  1.
</event>
<event>
12    1  0.8407180E-002  0.1781415E+03  0.7818608E-02  0.1170007E+00
         21   -1    0    0  501  502  0.00000000000E+00  0.00000000000E+00  0.90213978994E+03  0.90213978994E+03  0.00000000000E+00 0.  1.
         21   -1    0    0  502  503 -0.00000000000E+00 -0.00000000000E+00 -0.35079984573E+02  0.35079984573E+02  0.00000000000E+00 0.  1.
         -6    2    1    2    0  503 -0.41852854759E+02 -0.74308716835E+00  0.47233324373E+03  0.50480995859E+03  0.17315365294E+03 0.  0.
        -24    2    3    3    0    0  0.20073657965E+02 -0.47090712547E+02  0.18443878212E+03  0.20666853848E+03  0.77934161294E+02 0.  0.
          6    2    1    2  501    0  0.41852854759E+02  0.74308716835E+00  0.39472656164E+03  0.43240981592E+03  0.17151378025E+03 0.  0.
         24    2    5    5    0    0  0.49838359322E+02 -0.53391382212E+02  0.33938772133E+03  0.35444324421E+03  0.71494658698E+02 0.  0.
          5    1    5    5  501    0 -0.79855045635E+01  0.54134469380E+02  0.55338840304E+02  0.77966571711E+02  0.47000000000E+01 0. -1.
        -11    1    6    6    0    0  0.35937561526E+02 -0.55461496579E+02  0.14276849248E+03  0.15732237087E+03  0.00000000000E+00 0.  1.
         12    1    6    6    0    0  0.13900797797E+02  0.20701143668E+01  0.19661922885E+03  0.19712087334E+03  0.00000000000E+00 0. -1.
         -5    1    3    3    0  503 -0.61926512724E+02  0.46347625378E+02  0.28789446161E+03  0.29814142010E+03  0.47000000000E+01 0.  1.
         11    1    4    4    0    0  0.20271717132E+00 -0.12044121255E+02  0.15804805441E+03  0.15850643348E+03  0.00000000000E+00 0. -1.
        -12    1    4    4    0    0  0.19870940794E+02 -0.35046591292E+02  0.26390727703E+02  0.48162104999E+02  0.00000000000E+00 0.  1.
</event>
<event>
12    1  0.8407180E-002  0.2665008E+03  0.7818608E-02  0.1103376E+00
         21   -1    0    0  501  502  0.00000000000E+00  0.00000000000E+00  0.35425282141E+03  0.35425282141E+03  0.00000000000E+00 0. -1.
         21   -1    0    0  502  503 -0.00000000000E+00 -0.00000000000E+00 -0.20360113303E+03  0.20360113303E+03  0.00000000000E+00 0. -1.
         -6    2    1    2    0  503 -0.14710029639E+03  0.13979695093E+03  0.38632441357E+02  0.26876744676E+03  0.17193542458E+03 0.  0.
        -24    2    3    3    0    0 -0.14260843223E+03  0.49052286265E+02  0.60077233334E+01  0.17211739123E+03  0.82734587040E+02 0.  0.
          6    2    1    2  501    0  0.14710029639E+03 -0.13979695093E+03  0.11201924702E+03  0.28908650768E+03  0.17274551378E+03 0.  0.
         24    2    5    5    0    0  0.42236527226E+02  0.19924385067E+01  0.45252851047E+02  0.10045861295E+03  0.79096259988E+02 0.  0.
          5    1    5    5  501    0  0.10486376917E+03 -0.14178938943E+03  0.66766395969E+02  0.18862789473E+03  0.47000000000E+01 0. -1.
        -11    1    6    6    0    0  0.47958643896E+01 -0.65609396197E+00  0.59953234637E+02  0.60148325978E+02  0.00000000000E+00 0.  1.
         12    1    6    6    0    0  0.37440662837E+02  0.26485324687E+01 -0.14700383589E+02  0.40310286969E+02  0.00000000000E+00 0. -1.
         -5    1    3    3    0  503 -0.44918641619E+01  0.90744664662E+02  0.32624718024E+02  0.96650055532E+02  0.47000000000E+01 0.  1.
         13    1    4    4    0    0 -0.53620017815E+02  0.55489858534E+02  0.24579854955E+02  0.80983948904E+02  0.00000000000E+00 0. -1.
        -14    1    4    4    0    0 -0.88988414415E+02 -0.64375722684E+01 -0.18572131621E+02  0.91133442324E+02  0.00000000000E+00 0.  1.
</event>
<event>
12    1  0.8407180E-002  0.2459150E+03  0.7818608E-02  0.1116422E+00
         21   -1    0    0  503  502  0.00000000000E+00  0.00000000000E+00  0.19111512857E+04  0.19111512857E+04  0.00000000000E+00 0.  1.
         21   -1    0    0  501  503 -0.00000000000E+00 -0.00000000000E+00 -0.31380776369E+02  0.31380776369E+02  0.00000000000E+00 0. -1.
          6    2    1    2  501    0  0.15195016231E+03 -0.85533015213E+02  0.99845519427E+03  0.10275507209E+04  0.16894662052E+03 0.  0.
         24    2    3    3    0    0  0.18036019568E+03 -0.83930191603E+02  0.90752284852E+03  0.93215428209E+03  0.75761519041E+02 0.  0.
         -6    2    1    2    0  502 -0.15195016231E+03  0.85533015213E+02  0.88131531503E+03  0.91498134112E+03  0.17340536776E+03 0.  0.
        -24    2    5    5    0    0 -0.12730389133E+03  0.61754912230E+02  0.39472746627E+03  0.42716717423E+03  0.81498909067E+02 0.  0.
          5    1    3    3  501    0 -0.28410033373E+02 -0.16028236100E+01  0.90932345742E+02  0.95396438832E+02  0.47000000000E+01 0. -1.
        -13    1    4    4    0    0  0.12904346140E+03 -0.19647669432E+02  0.54369811212E+03  0.55914746084E+03  0.00000000000E+00 0.  1.
         14    1    4    4    0    0  0.51316734287E+02 -0.64282522171E+02  0.36382473640E+03  0.37300682124E+03  0.00000000000E+00 0. -1.
         -5    1    5    5    0  502 -0.24646270979E+02  0.23778102983E+02  0.48658784876E+03  0.48781416689E+03  0.47000000000E+01 0.  1.
         11    1    6    6    0    0 -0.50085896259E+02  0.57182948369E+02  0.12255385641E+03  0.14421488934E+03  0.00000000000E+00 0. -1.
        -12    1    6    6    0    0 -0.77217995073E+02  0.45719638615E+01  0.27217360987E+03  0.28295228489E+03  0.00000000000E+00 0.  1.
</event>
<event>
12    1  0.8407180E-002  0.1856103E+03  0.7818608E-02  0.1163640E+00
         21   -1    0    0  503  502  0.00000000000E+00  0.00000000000E+00  0.19893945082E+02  0.19893945082E+02  0.00000000000E+00 0. -1.
         21   -1    0    0  501  503 -0.00000000000E+00 -0.00000000000E+00 -0.21101483640E+04  0.21101483640E+04  0.00000000000E+00 0.  1.
          6    2    1    2  501    0  0.12133109264E+01 -0.65367293373E+02 -0.15336645325E+04  0.15448553572E+04  0.17371476981E+03 0.  0.
         24    2    3    3    0    0 -0.42185580659E+02 -0.73632869576E+02 -0.13728558018E+04  0.13780221428E+04  0.83729032916E+02 0.  0.
         -6    2    1    2    0  502 -0.12133109264E+01  0.65367293373E+02 -0.55658988633E+03  0.58518695180E+03  0.16845507359E+03 0.  0.
        -24    2    5    5    0    0  0.20530296564E+02  0.80909637479E+02 -0.22280412996E+03  0.25029985130E+03  0.77720478101E+02 0.  0.
          5    1    3    3  501    0  0.43398891586E+02  0.82655762025E+01 -0.16080873074E+03  0.16683321439E+03  0.47000000000E+01 0. -1.
        -11    1    4    4    0    0  0.16837816952E+02 -0.29110554457E+02 -0.75665343759E+03  0.75740039681E+03  0.00000000000E+00 0.  1.
         12    1    4    4    0    0 -0.59023397612E+02 -0.44522315119E+02 -0.61620236421E+03  0.62062174604E+03  0.00000000000E+00 0. -1.
         -5    1    5    5    0  502 -0.21743607490E+02 -0.15542344105E+02 -0.33378575637E+03  0.33488710050E+03  0.47000000000E+01 0.  1.
         11    1    6    6    0    0 -0.85041015709E+01 -0.11585475780E+02 -0.13883739197E+02  0.19982522530E+02  0.00000000000E+00 0. -1.
        -12    1    6    6    0    0  0.29034398135E+02  0.92495113259E+02 -0.20892039077E+03  0.23031732877E+03  0.00000000000E+00 0.  1.
</event>
<event>
12    1  0.8407180E-002  0.2094996E+03  0.7818608E-02  0.1142087E+00
         21   -1    0    0  503  502  0.00000000000E+00  0.00000000000E+00  0.23142734142E+03  0.23142734142E+03  0.00000000000E+00 0. -1.
         21   -1    0    0  501  503 -0.00000000000E+00 -0.00000000000E+00 -0.19264220809E+03  0.19264220809E+03  0.00000000000E+00 0. -1.
          6    2    1    2  501    0  0.10496105975E+03  0.56587178952E+02 -0.94520297905E+01  0.20908836759E+03  0.17149248295E+03 0.  0.
         24    2    3    3    0    0  0.47286170497E+02  0.24897650796E+02 -0.70288447584E+02  0.11934551954E+03  0.80293288860E+02 0.  0.
         -6    2    1    2    0  502 -0.10496105975E+03 -0.56587178952E+02  0.48237163115E+02  0.21498118192E+03  0.17225316192E+03 0.  0.
        -24    2    5    5    0    0 -0.11049079092E+03 -0.58318903105E+02 -0.17068069874E+02  0.14925112601E+03  0.79845289576E+02 0.  0.
          5    1    3    3  501    0  0.57674889253E+02  0.31689528156E+02  0.60836417794E+02  0.89742848044E+02  0.47000000000E+01 0. -1.
        -13    1    4    4    0    0  0.31516022072E+02  0.54331882457E+02 -0.49907368441E+02  0.80224425977E+02  0.00000000000E+00 0.  1.
         14    1    4    4    0    0  0.15770148425E+02 -0.29434231662E+02 -0.20381079143E+02  0.39121093567E+02  0.00000000000E+00 0. -1.
         -5    1    5    5    0  502  0.55297311697E+01  0.17317241526E+01  0.65305232988E+02  0.65730055918E+02  0.47000000000E+01 0.  1.
         11    1    6    6    0    0  0.56422543958E+01 -0.16067716223E+02 -0.19184976460E+02  0.25652872375E+02  0.00000000000E+00 0. -1.
        -12    1    6    6    0    0 -0.11613304532E+03 -0.42251186881E+02  0.21169065867E+01  0.12359825363E+03  0.00000000000E+00 0.  1.
</event>
<event>
12    1  0.8407180E-002  0.1885091E+03  0.7818608E-02  0.1159895E+00
         21   -1    0    0  501  502  0.00000000000E+00  0.00000000000E+00  0.42132066683E+03  0.42132066683E+03  0.00000000000E+00 0.  1.
         21   -1    0    0  502  503 -0.00000000000E+00 -0.00000000000E+00 -0.14400648026E+03  0.14400648026E+03  0.00000000000E+00 0.  1.
         -6    2    1    2    0  503 -0.30146775457E+02  0.70991079529E+02 -0.43452619011E+02  0.19345236425E+03  0.17200908607E+03 0.  0.
        -24    2    3    3    0    0  0.80009939588E+01  0.52938173619E+02  0.37597129516E+02  0.10195202841E+03  0.78193387301E+02 0.  0.
          6    2    1    2  501    0  0.30146775457E+02 -0.70991079529E+02  0.32076680558E+03  0.37187478284E+03  0.17161278830E+03 0.  0.
         24    2    5    5    0    0  0.66794598197E+02 -0.66127174957E+02  0.13600251626E+03  0.18338962935E+03  0.79377264428E+02 0.  0.
          5    1    5    5  501    0 -0.36647822739E+02 -0.48639045717E+01  0.18476428932E+03  0.18848515349E+03  0.47000000000E+01 0. -1.
        -11    1    6    6    0    0  0.32860301493E+02 -0.37287955811E+02  0.12908432284E+03  0.13832191969E+03  0.00000000000E+00 0.  1.
         12    1    6    6    0    0  0.33934296704E+02 -0.28839219146E+02  0.69181934146E+01  0.45067709659E+02  0.00000000000E+00 0. -1.
         -5    1    3    3    0  503 -0.38147769416E+02  0.18052905910E+02 -0.81049748526E+02  0.91500335843E+02  0.47000000000E+01 0.  1.
         13    1    4    4    0    0  0.32618649306E+02 -0.38534445379E+01  0.14112859393E+02  0.35749099536E+02  0.00000000000E+00 0. -1.
        -14    1    4    4    0    0 -0.24617655348E+02  0.56791618157E+02  0.23484270122E+02  0.66202928869E+02  0.00000000000E+00 0.  1.
</event>
<event>
12    1  0.8407180E-002  0.2023649E+03  0.7818608E-02  0.1148076E+00
         21   -1    0    0  501  502  0.00000000000E+00  0.00000000000E+00  0.64507367090E+03  0.64507367090E+03  0.00000000000E+00 0. -1.
         21   -1    0    0  502  503 -0.00000000000E+00 -0.00000000000E+00 -0.75052991882E+02  0.75052991882E+02  0.00000000000E+00 0. -1.
         -6    2    1    2    0  503  0.11236285534E+02  0.10281452842E+03  0.43016034403E+03  0.47538350578E+03  0.17393813448E+03 0.  0.
        -24    2    3    3    0    0  0.68135519954E+02  0.51447716935E+02  0.18261756148E+03  0.21620096124E+03  0.78130437256E+02 0.  0.
          6    2    1    2  501    0 -0.11236285534E+02 -0.10281452842E+03  0.13986033499E+03  0.24474315700E+03  0.17216625171E+03 0.  0.
         24    2    5    5    0    0 -0.34841519701E+02 -0.10675048770E+03  0.31468983449E+02  0.13364196914E+03  0.65270827145E+02 0.  0.
          5    1    5    5  501    0  0.23605234167E+02  0.39359592839E+01  0.10839135154E+03  0.11110118786E+03  0.47000000000E+01 0. -1.
        -13    1    6    6    0    0 -0.28546277368E+02 -0.16150988971E+02  0.27392106959E+02  0.42732562759E+02  0.00000000000E+00 0.  1.
         14    1    6    6    0    0 -0.62952423328E+01 -0.90599498732E+02  0.40768764906E+01  0.90909406380E+02  0.00000000000E+00 0. -1.
         -5    1    3    3    0  503 -0.56899234420E+02  0.51366811484E+02  0.24754278255E+03  0.25918254454E+03  0.47000000000E+01 0.  1.
         11    1    4    4    0    0  0.32026286480E+02  0.19716940892E+02  0.15757116805E+03  0.16199726475E+03  0.00000000000E+00 0. -1.
        -12    1    4    4    0    0  0.36109233474E+02  0.31730776042E+02  0.25046393423E+02  0.54203696496E+02  0.00000000000E+00 0.  1.
</event>
<event>
12    1  0.8407180E-002  0.2603027E+03  0.7818608E-02  0.1107081E+00
         21   -1    0    0  501  502  0.00000000000E+00  0.00000000000E+00  0.50203306736E+03  0.50203306736E+03  0.00000000000E+00 0.  1.
         21   -1    0    0  502  503 -0.00000000000E+00 -0.00000000000E+00 -0.16527661256E+03  0.16527661256E+03  0.00000000000E+00 0.  1.
         -6    2    1    2    0  503  0.18763831273E+03  0.51982861404E+02  0.24317858347E+02  0.26064600204E+03  0.17156522335E+03 0.  0.
        -24    2    3    3    0    0  0.18852488636E+03  0.41734268002E+02  0.68022160263E+02  0.21550205798E+03  0.67310777779E+02 0.  0.
          6    2    1    2  501    0 -0.18763831273E+03 -0.51982861404E+02  0.31243859645E+03  0.40666367789E+03  0.17276317917E+03 0.  0.
         24    2    5    5    0    0 -0.19062026888E+03 -0.60672796772E+02  0.19999885322E+03  0.29375135394E+03  0.79202534546E+02 0.  0.
          5    1    5    5  501    0  0.29819561570E+01  0.86899353680E+01  0.11243974323E+03  0.11291232394E+03  0.47000000000E+01 0. -1.
        -13    1    6    6    0    0 -0.14516322485E+03 -0.98192219303E+01  0.15155628259E+03  0.21009066081E+03  0.00000000000E+00 0.  1.
         14    1    6    6    0    0 -0.45457044039E+02 -0.50853574842E+02  0.48442570629E+02  0.83660693137E+02  0.00000000000E+00 0. -1.
         -5    1    3    3    0  503 -0.88657362797E+00  0.10248593402E+02 -0.43704301916E+02  0.45143944062E+02  0.47000000000E+01 0.  1.
         13    1    4    4    0    0  0.40179451287E+02  0.38902373610E+02  0.22747022796E+02  0.60375574733E+02  0.00000000000E+00 0. -1.
        -14    1    4    4    0    0  0.14834543507E+03  0.28318943914E+01  0.45275137467E+02  0.15512648325E+03  0.00000000000E+00 0.  1.
</event>
<event>
12    1  0.8407180E-002  0.1755467E+03  0.7818608E-02  0.1172201E+00
         21   -1    0    0  501  502  0.00000000000E+00  0.00000000000E+00  0.58559415802E+03  0.58559415802E+03  0.00000000000E+00 0.  1.
         21   -1    0    0  502  503 -0.00000000000E+00 -0.00000000000E+00 -0.52624536402E+02  0.52624536402E+02  0.00000000000E+00 0.  1.
         -6    2    1    2    0  503  0.38701765640E+01  0.39867778948E+02  0.26007322651E+03  0.31373592065E+03  0.17084415909E+03 0.  0.
        -24    2    3    3    0    0 -0.95876284091E+01  0.44676488242E+02  0.51784086540E+02  0.10490418927E+03  0.78964460921E+02 0.  0.
          6    2    1    2  501    0 -0.38701765640E+01 -0.39867778948E+02  0.27289639511E+03  0.32448277377E+03  0.17091579783E+03 0.  0.
         24    2    5    5    0    0 -0.26777277599E+02 -0.86095063859E+02  0.21570282091E+03  0.24731482656E+03  0.80669287024E+02 0.  0.
          5    1    5    5  501    0  0.22907101036E+02  0.46227284911E+02  0.57193574197E+02  0.77167947216E+02  0.47000000000E+01 0. -1.
        -11    1    6    6    0    0 -0.14517322031E+01 -0.50043095775E+02  0.34419833952E+02  0.60754785247E+02  0.00000000000E+00 0.  1.
         12    1    6    6    0    0 -0.25325545396E+02 -0.36051968084E+02  0.18128298696E+03  0.18656004131E+03  0.00000000000E+00 0. -1.
         -5    1    3    3    0  503  0.13457804973E+02 -0.48087092945E+01  0.20828913997E+03  0.20883173138E+03  0.47000000000E+01 0.  1.
         11    1    4    4    0    0 -0.23195057054E+01 -0.22589267100E+02  0.69795349053E+01  0.23756451805E+02  0.00000000000E+00 0. -1.
        -12    1    4    4    0    0 -0.72681227037E+01  0.67265755342E+02  0.44804551634E+02  0.81147737470E+02  0.00000000000E+00 0.  1.
</event>
<event>
12    1  0.8407180E-002  0.1858310E+03  0.7818608E-02  0.1165844E+00
         21   -1    0    0  501  502  0.00000000000E+00  0.00000000000E+00  0.58721968052E+02  0.58721968052E+02  0.00000000000E+00 0. -1.
         21   -1    0    0  502  503 -0.00000000000E+00 -0.00000000000E+00 -0.14224318778E+04  0.14224318778E+04  0.00000000000E+00 0. -1.
         -6    2    1    2    0  503  0.63414595594E+01 -0.95573995325E+01 -0.11026577861E+03  0.21608261458E+03  0.18547667346E+03 0.  0.
        -24    2    3    3    0    0  0.45593412909E+02  0.58555989652E+02 -0.60820441379E+02  0.12309293235E+03  0.77104997761E+02 0.  0.
          6    2    1    2  501    0 -0.63414595594E+01  0.95573995325E+01 -0.12534441311E+04  0.12650712312E+04  0.17073802246E+03 0.  0.
         24    2    5    5    0    0  0.47476953040E+02 -0.23055486404E+02 -0.50628640331E+03  0.51525339866E+03  0.79840629515E+02 0.  0.
          5    1    5    5  501    0 -0.53818412600E+02  0.32612885937E+02 -0.74715772778E+03  0.74981783258E+03  0.47000000000E+01 0. -1.
        -11    1    6    6    0    0  0.34982916054E+02  0.24327863281E+02 -0.16257039663E+03  0.16806184341E+03  0.00000000000E+00 0.  1.
         12    1    6    6    0    0  0.12494036986E+02 -0.47383349685E+02 -0.34371600668E+03  0.34719155525E+03  0.00000000000E+00 0. -1.
         -5    1    3    3    0  503 -0.39251953349E+02 -0.68113389185E+02 -0.49445337236E+02  0.92989682236E+02  0.47000000000E+01 0.  1.
         13    1    4    4    0    0 -0.93786149775E+01  0.34534567011E+02  0.24924502496E+01  0.35872092855E+02  0.00000000000E+00 0. -1.
        -14    1    4    4    0    0  0.54972027886E+02  0.24021422641E+02 -0.63312891628E+02  0.87220839494E+02  0.00000000000E+00 0.  1.
</event>
<event>
12    1  0.8407180E-002  0.1885501E+03  0.7818608E-02  0.1160013E+00
         21   -1    0    0  501  502  0.00000000000E+00  0.00000000000E+00  0.41624075662E+02  0.41624075662E+02  0.00000000000E+00 0.  1.
         21   -1    0    0  502  503 -0.00000000000E+00 -0.00000000000E+00 -0.28793363442E+04  0.28793363442E+04  0.00000000000E+00 0.  1.
         -6    2    1    2    0  503 -0.28904218255E+02  0.69474411161E+02 -0.26439817103E+04  0.26506223247E+04  0.17174770992E+03 0.  0.
        -24    2    3    3    0    0 -0.48464605160E+02  0.10812774691E+03 -0.18551136261E+04  0.18605516738E+04  0.78520936261E+02 0.  0.
          6    2    1    2  501    0  0.28904218255E+02 -0.69474411161E+02 -0.19373055824E+03  0.27033809522E+03  0.17288438013E+03 0.  0.
         24    2    5    5    0    0 -0.27713786621E+02 -0.56090471520E+02 -0.18365788622E+03  0.21110738496E+03  0.83198039935E+02 0.  0.
          5    1    5    5  501    0  0.56618004876E+02 -0.13383939640E+02 -0.10072672022E+02  0.59230710262E+02  0.47000000000E+01 0. -1.
        -13    1    6    6    0    0 -0.13026167507E+02 -0.64383489488E+02 -0.69196943600E+02  0.95410333624E+02  0.00000000000E+00 0.  1.
         14    1    6    6    0    0 -0.14687619114E+02  0.82930179681E+01 -0.11446094262E+03  0.11569705133E+03  0.00000000000E+00 0. -1.
         -5    1    3    3    0  503  0.19560386905E+02 -0.38653335744E+02 -0.78886808424E+03  0.79007065091E+03  0.47000000000E+01 0.  1.
         13    1    4    4    0    0 -0.12587710014E+02 -0.77335972098E+01 -0.44057901225E+03  0.44082663827E+03  0.00000000000E+00 0. -1.
        -14    1    4    4    0    0 -0.35876895146E+02  0.11586134411E+03 -0.14145346138E+04  0.14197250355E+04  0.00000000000E+00 0.  1.
</event>
<event>
12    1  0.8407180E-002  0.2055126E+03  0.7818608E-02  0.1146569E+00
         21   -1    0    0  501  502  0.00000000000E+00  0.00000000000E+00  0.11730232873E+04  0.11730232873E+04  0.00000000000E+00 0. -1.
         21   -1    0    0  502  503 -0.00000000000E+00 -0.00000000000E+00 -0.82160273786E+02  0.82160273786E+02  0.00000000000E+00 0. -1.
         -6    2    1    2    0  503  0.11275069894E+03  0.15243185695E+01  0.65272337197E+02  0.20920475972E+03  0.16367990050E+03 0.  0.
        -24    2    3    3    0    0  0.30602421278E+02 -0.22651048514E+02 -0.16999734281E+02  0.90362125780E+02  0.80166979631E+02 0.  0.
          6    2    1    2  501    0 -0.11275069894E+03 -0.15243185695E+01  0.10255906763E+04  0.10459788013E+04  0.17181494083E+03 0.  0.
         24    2    5    5    0    0 -0.10297688442E+03  0.29208073396E+02  0.44230393061E+03  0.46178232322E+03  0.78439764926E+02 0.  0.
          5    1    5    5  501    0 -0.97738145246E+01 -0.30732391966E+02  0.58328674568E+03  0.58419647812E+03  0.47000000000E+01 0. -1.
        -13    1    6    6    0    0 -0.72980760698E+02  0.75193134420E+01  0.39480146676E+03  0.40156061767E+03  0.00000000000E+00 0.  1.
         14    1    6    6    0    0 -0.29996123722E+02  0.21688759954E+02  0.47502463850E+02  0.60221705543E+02  0.00000000000E+00 0. -1.
         -5    1    3    3    0  503  0.82148277667E+02  0.24175367083E+02  0.82272071478E+02  0.11884263394E+03  0.47000000000E+01 0.  1.
         11    1    4    4    0    0  0.33694844478E+02 -0.33933437751E+02  0.19792484232E+02  0.51754837204E+02  0.00000000000E+00 0. -1.
        -12    1    4    4    0    0 -0.30924231999E+01  0.11282389237E+02 -0.36792218513E+02  0.38607288576E+02  0.00000000000E+00 0.  1.
</event>
<event>
12    1  0.8407180E-002  0.1872085E+03  0.7818608E-02  0.1161485E+00
         21   -1    0    0  503  502  0.00000000000E+00  0.00000000000E+00  0.47421544284E+02  0.47421544284E+02  0.00000000000E+00 0.  1.
         21   -1    0    0  501  503 -0.00000000000E+00 -0.00000000000E+00 -0.84313037394E+03  0.84313037394E+03  0.00000000000E+00 0. -1.
          6    2    1    2  501    0 -0.40332986962E+02  0.60963164120E+02 -0.55841398343E+03  0.58830058507E+03  0.17008275716E+03 0.  0.
         24    2    3    3    0    0 -0.35663420119E+01  0.32403803455E+01 -0.11877610305E+03  0.14334298955E+03  0.80101380365E+02 0.  0.
         -6    2    1    2    0  502  0.40332986962E+02 -0.60963164120E+02 -0.23729484622E+03  0.30225133315E+03  0.17234780861E+03 0.  0.
        -24    2    5    5    0    0  0.59538234867E+02  0.11359001070E+02 -0.18657514929E+03  0.21173108801E+03  0.79661402061E+02 0.  0.
          5    1    3    3  501    0 -0.36766644951E+02  0.57722783775E+02 -0.43963788038E+03  0.44495759552E+03  0.47000000000E+01 0. -1.
        -13    1    4    4    0    0  0.25346583546E+02  0.29940952093E+02 -0.73804991150E+02  0.83582812996E+02  0.00000000000E+00 0.  1.
         14    1    4    4    0    0 -0.28912925558E+02 -0.26700571747E+02 -0.44971111904E+02  0.59760176554E+02  0.00000000000E+00 0. -1.
         -5    1    5    5    0  502 -0.19205247904E+02 -0.72322165190E+02 -0.50719696930E+02  0.90520245147E+02  0.47000000000E+01 0.  1.
         11    1    6    6    0    0  0.16437113729E+02 -0.30680275578E+02 -0.38594853210E+02  0.51971345101E+02  0.00000000000E+00 0. -1.
        -12    1    6    6    0    0  0.43101121138E+02  0.42039276648E+02 -0.14798029608E+03  0.15975974291E+03  0.00000000000E+00 0.  1.
</event>
<event>
12    1  0.8407180E-002  0.1840923E+03  0.7818608E-02  0.1164458E+00
         21   -1    0    0  503  502  0.00000000000E+00  0.00000000000E+00  0.16942637614E+03  0.16942637614E+03  0.00000000000E+00 0. -1.
         21   -1    0    0  501  503 -0.00000000000E+00 -0.00000000000E+00 -0.57989254378E+03  0.57989254378E+03  0.00000000000E+00 0. -1.
          6    2    1    2  501    0 -0.35651491313E+01 -0.58838480812E+02 -0.50993258481E+03  0.54214500205E+03  0.17439978522E+03 0.  0.
         24    2    3    3    0    0 -0.60645651012E+02 -0.15240507196E+02 -0.27787147996E+03  0.29917707540E+03  0.91565250072E+02 0.  0.
         -6    2    1    2    0  502  0.35651491313E+01  0.58838480812E+02  0.99466417160E+02  0.20717391787E+03  0.17190924056E+03 0.  0.
        -24    2    5    5    0    0  0.59643673540E+02  0.46588500185E+01  0.45202902610E+02  0.11205897528E+03  0.83275679883E+02 0.  0.
          5    1    3    3  501    0  0.57080501881E+02 -0.43597973616E+02 -0.23206110485E+03  0.24296792665E+03  0.47000000000E+01 0. -1.
        -13    1    4    4    0    0 -0.12195441556E+02  0.25033667062E+02 -0.21508122981E+02  0.35185403728E+02  0.00000000000E+00 0.  1.
         14    1    4    4    0    0 -0.48450209456E+02 -0.40274174257E+02 -0.25636335698E+03  0.26399167167E+03  0.00000000000E+00 0. -1.
         -5    1    5    5    0  502 -0.56078524409E+02  0.54179630793E+02  0.54263514550E+02  0.95114942591E+02  0.47000000000E+01 0.  1.
         11    1    6    6    0    0  0.87788814951E+01  0.87686144641E+01  0.58111222865E+02  0.59421137509E+02  0.00000000000E+00 0. -1.
        -12    1    6    6    0    0  0.50864792045E+02 -0.41097644456E+01 -0.12908320255E+02  0.52637837773E+02  0.00000000000E+00 0.  1.
</event>
<event>
12    1  0.8407180E-002  0.2041038E+03  0.7818608E-02  0.1146474E+00
         21   -1    0    0  503  502  0.00000000000E+00  0.00000000000E+00  0.98904487272E+03  0.98904487272E+03  0.00000000000E+00 0. -1.
         21   -1    0    0  501  503 -0.00000000000E+00 -0.00000000000E+00 -0.76358400397E+02  0.76358400397E+02  0.00000000000E+00 0. -1.
          6    2    1    2  501    0  0.18647227167E+02  0.10556933905E+03  0.98391682244E+02  0.22591868623E+03  0.17281702817E+03 0.  0.
         24    2    3    3    0    0  0.61074819112E+01  0.14364731107E+03  0.72149956120E+02  0.17777416054E+03  0.75671557882E+02 0.  0.
         -6    2    1    2    0  502 -0.18647227167E+02 -0.10556933905E+03  0.81429479008E+03  0.83948458688E+03  0.17368293538E+03 0.  0.
        -24    2    5    5    0    0 -0.29087735809E+02 -0.41468422893E+02  0.71764918631E+03  0.72294963761E+03  0.71204616774E+02 0.  0.
          5    1    3    3  501    0  0.12539745255E+02 -0.38077972022E+02  0.26241726124E+02  0.48144525695E+02  0.47000000000E+01 0. -1.
        -11    1    4    4    0    0  0.11277608207E+02  0.41240407026E+02  0.61198089201E+02  0.74653611704E+02  0.00000000000E+00 0.  1.
         12    1    4    4    0    0 -0.51701262953E+01  0.10240690405E+03  0.10951866919E+02  0.10312054883E+03  0.00000000000E+00 0. -1.
         -5    1    5    5    0  502  0.10440508643E+02 -0.64100916158E+02  0.96645603770E+02  0.11653494927E+03  0.47000000000E+01 0.  1.
         11    1    6    6    0    0 -0.44950183928E+02 -0.20605895205E+02  0.26708405617E+03  0.27162292799E+03  0.00000000000E+00 0. -1.
        -12    1    6    6    0    0  0.15862448118E+02 -0.20862527689E+02  0.45056513014E+03  0.45132670962E+03  0.00000000000E+00 0.  1.
</event>
<event>
12    1  0.8407180E-002  0.1868582E+03  0.7818608E-02  0.1162033E+00
         21   -1    0    0  503  502  0.00000000000E+00  0.00000000000E+00  0.80706443822E+03  0.80706443822E+03  0.00000000000E+00 0.  1.
         21   -1    0    0  501  503 -0.00000000000E+00 -0.00000000000E+00 -0.43101396812E+02  0.43101396812E+02  0.00000000000E+00 0.  1.
          6    2    1    2  501    0  0.36685968214E+02 -0.58039712874E+02  0.42644979874E+03  0.46437940695E+03  0.17051197678E+03 0.  0.
         24    2    3    3    0    0  0.25118403515E+02 -0.41588265953E+02  0.43299846187E+03  0.44271298944E+03  0.78400286844E+02 0.  0.
         -6    2    1    2    0  502 -0.36685968214E+02  0.58039712874E+02  0.33751324267E+03  0.38578642808E+03  0.17378581812E+03 0.  0.
        -24    2    5    5    0    0  0.30846398938E+02  0.32687782891E+02  0.28214452640E+03  0.29473080932E+03  0.72392849820E+02 0.  0.
          5    1    3    3  501    0  0.11567564698E+02 -0.16451446921E+02 -0.65486631354E+01  0.21666417510E+02  0.47000000000E+01 0. -1.
        -13    1    4    4    0    0  0.14472704933E+02 -0.61602849200E+02  0.23322299928E+03  0.24165541089E+03  0.00000000000E+00 0.  1.
         14    1    4    4    0    0  0.10645698583E+02  0.20014583247E+02  0.19977546259E+03  0.20105757855E+03  0.00000000000E+00 0. -1.
         -5    1    5    5    0  502 -0.67532367152E+02  0.25351929983E+02  0.55368716272E+02  0.91055618765E+02  0.47000000000E+01 0.  1.
         11    1    6    6    0    0  0.32020286488E+02  0.74866817692E+01  0.42374524571E+02  0.53637202418E+02  0.00000000000E+00 0. -1.
        -12    1    6    6    0    0 -0.11738875502E+01  0.25201101121E+02  0.23977000183E+03  0.24109360690E+03  0.00000000000E+00 0.  1.
</event>
<event>
12    1  0.8407180E-002  0.2607392E+03  0.7818608E-02  0.1106702E+00
         21   -1    0    0  501  502  0.00000000000E+00  0.00000000000E+00  0.25122443213E+03  0.25122443213E+03  0.00000000000E+00 0.  1.
         21   -1    0    0  502  503 -0.00000000000E+00 -0.00000000000E+00 -0.46977727249E+03  0.46977727249E+03  0.00000000000E+00 0.  1.
         -6    2    1    2    0  503 -0.15197386546E+03  0.12214439812E+03  0.12545706803E+03  0.28935168077E+03  0.17311732862E+03 0.  0.
        -24    2    3    3    0    0 -0.14615536422E+03  0.31533917192E+02  0.83365414684E+02  0.18916230262E+03  0.80478605515E+02 0.  0.
          6    2    1    2  501    0  0.15197386546E+03 -0.12214439812E+03 -0.34400990839E+03  0.43165002385E+03  0.17310001804E+03 0.  0.
         24    2    5    5    0    0  0.18183283747E+02 -0.11732451274E+02 -0.86331294327E+02  0.12098770572E+03  0.81955172711E+02 0.  0.
          5    1    5    5  501    0  0.13379058171E+03 -0.11041194685E+03 -0.25767861406E+03  0.31066231813E+03  0.47000000000E+01 0. -1.
        -11    1    6    6    0    0  0.41379304094E+02 -0.30104675252E+02 -0.71399755895E+02  0.87843402833E+02  0.00000000000E+00 0.  1.
         12    1    6    6    0    0 -0.23196020347E+02  0.18372223978E+02 -0.14931538432E+02  0.33144302886E+02  0.00000000000E+00 0. -1.
         -5    1    3    3    0  503 -0.58185012454E+01  0.90610480931E+02  0.42091653348E+02  0.10018937814E+03  0.47000000000E+01 0.  1.
         13    1    4    4    0    0 -0.13893946873E+02  0.23668487117E+02  0.42347382830E+02  0.50463252716E+02  0.00000000000E+00 0. -1.
        -14    1    4    4    0    0 -0.13226141734E+03  0.78654300745E+01  0.41018031854E+02  0.13869904991E+03  0.00000000000E+00 0.  1.
</event>
<event>
12    1  0.8407180E-002  0.1947980E+03  0.7818608E-02  0.1154765E+00
         21   -1    0    0  503  502  0.00000000000E+00  0.00000000000E+00  0.10070935667E+03  0.10070935667E+03  0.00000000000E+00 0.  1.
         21   -1    0    0  501  503 -0.00000000000E+00 -0.00000000000E+00 -0.37545627286E+03  0.37545627286E+03  0.00000000000E+00 0.  1.
          6    2    1    2  501    0  0.47215543193E+02 -0.71743848561E+02 -0.11319408831E+03  0.22309338613E+03  0.17199206372E+03 0.  0.
         24    2    3    3    0    0  0.83599205368E+02 -0.89842149223E+02 -0.98552255497E+02  0.17964465050E+03  0.86598005020E+02 0.  0.
         -6    2    1    2    0  502 -0.47215543193E+02  0.71743848561E+02 -0.16155282788E+03  0.25307224340E+03  0.17484209121E+03 0.  0.
        -24    2    5    5    0    0 -0.22999700000E+02  0.92732980851E+01 -0.16557382674E+03  0.18578751133E+03  0.80543944558E+02 0.  0.
          5    1    3    3  501    0 -0.36383662175E+02  0.18098300662E+02 -0.14641832818E+02  0.43448735637E+02  0.47000000000E+01 0. -1.
        -11    1    4    4    0    0  0.22145721941E+02 -0.32705509354E+02 -0.86213844879E+02  0.94830956924E+02  0.00000000000E+00 0.  1.
         12    1    4    4    0    0  0.61453483427E+02 -0.57136639869E+02 -0.12338410618E+02  0.84813693573E+02  0.00000000000E+00 0. -1.
         -5    1    5    5    0  502 -0.24215843193E+02  0.62470550476E+02  0.40209988678E+01  0.67284732073E+02  0.47000000000E+01 0.  1.
         11    1    6    6    0    0 -0.48146568744E+02  0.13631172042E+02 -0.65021917977E+02  0.82047247062E+02  0.00000000000E+00 0. -1.
        -12    1    6    6    0    0  0.25146868744E+02 -0.43578739570E+01 -0.10055190877E+03  0.10374026426E+03  0.00000000000E+00 0.  1.
</event>
<event>
12    1  0.8407180E-002  0.1807580E+03  0.7818608E-02  0.1168186E+00
         21   -1    0    0  501  502  0.00000000000E+00  0.00000000000E+00  0.26850821520E+02  0.26850821520E+02  0.00000000000E+00 0. -1.
         21   -1    0    0  502  503 -0.00000000000E+00 -0.00000000000E+00 -0.17276782218E+04  0.17276782218E+04  0.00000000000E+00 0. -1.
         -6    2    1    2    0  503  0.55923536961E+02  0.19380842904E+02 -0.13489461724E+04  0.13610030245E+04  0.17079343563E+03 0.  0.
        -24    2    3    3    0    0  0.85686086486E+02 -0.25578079908E+02 -0.10854062412E+04  0.10919630657E+04  0.79248248340E+02 0.  0.
          6    2    1    2  501    0 -0.55923536961E+02 -0.19380842904E+02 -0.35188122792E+03  0.39352601884E+03  0.16594960044E+03 0.  0.
         24    2    5    5    0    0  0.33033858831E+01 -0.58245051913E+01 -0.30853943561E+03  0.31874498086E+03  0.79730435055E+02 0.  0.
          5    1    5    5  501    0 -0.59226922844E+02 -0.13556337713E+02 -0.43341792308E+02  0.74781037986E+02  0.47000000000E+01 0. -1.
        -11    1    6    6    0    0  0.59745411963E+01 -0.35754085601E+02 -0.75225728569E+02  0.83504251499E+02  0.00000000000E+00 0.  1.
         12    1    6    6    0    0 -0.26711553132E+01  0.29929580410E+02 -0.23331370704E+03  0.23524072936E+03  0.00000000000E+00 0. -1.
         -5    1    3    3    0  503 -0.29762549525E+02  0.44958922812E+02 -0.26353993122E+03  0.26903995882E+03  0.47000000000E+01 0.  1.
         11    1    4    4    0    0  0.87709497397E+02  0.34622179060E+01 -0.70476543280E+03  0.71021071391E+03  0.00000000000E+00 0. -1.
        -12    1    4    4    0    0 -0.20234109104E+01 -0.29040297814E+02 -0.38064080838E+03  0.38175235178E+03  0.00000000000E+00 0.  1.
</event>
<event>
12    1  0.8407180E-002  0.1963856E+03  0.7818608E-02  0.1153079E+00
         21   -1    0    0  501  502  0.00000000000E+00  0.00000000000E+00  0.37040618428E+02  0.37040618428E+02  0.00000000000E+00 0. -1.
         21   -1    0    0  502  503 -0.00000000000E+00 -0.00000000000E+00 -0.13581181574E+04  0.13581181574E+04  0.00000000000E+00 0. -1.
         -6    2    1    2    0  503 -0.22844332835E+02 -0.90404426350E+02 -0.10023054408E+04  0.10213635436E+04  0.17283653487E+03 0.  0.
        -24    2    3    3    0    0  0.16960606359E+02  0.64643178282E+01 -0.29801712436E+03  0.30931571558E+03  0.80824228535E+02 0.  0.
          6    2    1    2  501    0  0.22844332835E+02  0.90404426350E+02 -0.31877209816E+03  0.37379523217E+03  0.17150044076E+03 0.  0.
         24    2    5    5    0    0  0.81083807801E+02  0.56724995334E+02 -0.20756928407E+03  0.24374025772E+03  0.80820768127E+02 0.  0.
          5    1    5    5  501    0 -0.58239474966E+02  0.33679431016E+02 -0.11120281409E+03  0.13005497445E+03  0.47000000000E+01 0. -1.
        -11    1    6    6    0    0  0.70134998019E+02  0.66216196822E+02 -0.11523125012E+03  0.15027223188E+03  0.00000000000E+00 0.  1.
         12    1    6    6    0    0  0.10948809782E+02 -0.94912014885E+01 -0.92338033951E+02  0.93468025845E+02  0.00000000000E+00 0. -1.
         -5    1    3    3    0  503 -0.39804939194E+02 -0.96868744178E+02 -0.70428831642E+03  0.71204782805E+03  0.47000000000E+01 0.  1.
         11    1    4    4    0    0  0.16653865718E+02  0.13133888224E+02 -0.14436792032E+02  0.25656796905E+02  0.00000000000E+00 0. -1.
        -12    1    4    4    0    0  0.30674064105E+00 -0.66695703961E+01 -0.28358033233E+03  0.28365891867E+03  0.00000000000E+00 0.  1.
</event>
<event>
12    1  0.8407180E-002  0.3570288E+03  0.7818608E-02  0.1059878E+00
         21   -1    0    0  503  502  0.00000000000E+00  0.00000000000E+00  0.50165505486E+03  0.50165505486E+03  0.00000000000E+00 0. -1.
         21   -1    0    0  501  503 -0.00000000000E+00 -0.00000000000E+00 -0.30525214778E+03  0.30525214778E+03  0.00000000000E+00 0. -1.
          6    2    1    2  501    0  0.17899069696E+03 -0.25585294812E+03  0.26475560768E+03  0.44448294004E+03  0.17312178237E+03 0.  0.
         24    2    3    3    0    0  0.16202249388E+03 -0.12277147675E+03  0.13037278402E+03  0.25453707609E+03  0.80423480812E+02 0.  0.
         -6    2    1    2    0  502 -0.17899069696E+03  0.25585294812E+03 -0.68352700593E+02  0.36242426260E+03  0.17082404334E+03 0.  0.
        -24    2    5    5    0    0 -0.21229314698E+02  0.69253308716E+02 -0.44917816670E+02  0.11690570334E+03  0.80016427362E+02 0.  0.
          5    1    3    3  501    0  0.16968203078E+02 -0.13308147137E+03  0.13438282365E+03  0.18994586395E+03  0.47000000000E+01 0. -1.
        -11    1    4    4    0    0  0.14360427339E+03 -0.12186547737E+03  0.87119168228E+02  0.20751658098E+03  0.00000000000E+00 0.  1.
         12    1    4    4    0    0  0.18418220492E+02 -0.90599937653E+00  0.43253615796E+02  0.47020495110E+02  0.00000000000E+00 0. -1.
         -5    1    5    5    0  502 -0.15776138226E+03  0.18659963940E+03 -0.23434883923E+02  0.24551855926E+03  0.47000000000E+01 0.  1.
         11    1    6    6    0    0 -0.37567781675E+02  0.52555192940E+02 -0.60754567388E+02  0.88682038675E+02  0.00000000000E+00 0. -1.
        -12    1    6    6    0    0  0.16338466978E+02  0.16698115776E+02  0.15836750719E+02  0.28223664662E+02  0.00000000000E+00 0.  1.
</event>
<event>
12    1  0.8407180E-002  0.1905540E+03  0.7818608E-02  0.1158283E+00
         21   -1    0    0  503  502  0.00000000000E+00  0.00000000000E+00  0.68554358347E+03  0.68554358347E+03  0.00000000000E+00 0.  1.
         21   -1    0    0  501  503 -0.00000000000E+00 -0.00000000000E+00 -0.58206249913E+02  0.58206249913E+02  0.00000000000E+00 0.  1.
          6    2    1    2  501    0 -0.79484041580E+02 -0.23438621618E+01  0.19692079275E+03  0.27303843326E+03  0.17160705366E+03 0.  0.
         24    2    3    3    0    0 -0.52951994819E+02  0.52342923624E+02  0.69448433074E+02  0.13173773784E+03  0.83594565050E+02 0.  0.
         -6    2    1    2    0  502  0.79484041580E+02  0.23438621618E+01  0.43041654080E+03  0.47071140012E+03  0.17316933057E+03 0.  0.
        -24    2    5    5    0    0  0.63452867150E+01 -0.40563727638E+02  0.12258407713E+03  0.15137888624E+03  0.78759333235E+02 0.  0.
          5    1    3    3  501    0 -0.26532046761E+02 -0.54686785786E+02  0.12747235968E+03  0.14130069542E+03  0.47000000000E+01 0. -1.
        -11    1    4    4    0    0 -0.38827140860E+02 -0.16117678743E+02  0.25602383172E+02  0.49222032256E+02  0.00000000000E+00 0.  1.
         12    1    4    4    0    0 -0.14124853959E+02  0.68460602367E+02  0.43846049902E+02  0.82515705583E+02  0.00000000000E+00 0. -1.
         -5    1    5    5    0  502  0.73138754865E+02  0.42907589799E+02  0.30783246368E+03  0.31933251388E+03  0.47000000000E+01 0.  1.
         13    1    6    6    0    0  0.42529154367E+02 -0.24834641924E+02  0.71859797191E+02  0.87116696810E+02  0.00000000000E+00 0. -1.
        -14    1    6    6    0    0 -0.36183867652E+02 -0.15729085714E+02  0.50724279936E+02  0.64262189433E+02  0.00000000000E+00 0.  1.
</event>
<event>
12    1  0.8407180E-002  0.2108915E+03  0.7818608E-02  0.1141208E+00
         21   -1    0    0  503  502  0.00000000000E+00  0.00000000000E+00  0.33562906307E+03  0.33562906307E+03  0.00000000000E+00 0. -1.
         21   -1    0    0  501  503 -0.00000000000E+00 -0.00000000000E+00 -0.13167386757E+03  0.13167386757E+03  0.00000000000E+00 0.  1.
          6    2    1    2  501    0 -0.14100518515E+02  0.11830571276E+03  0.11273720870E+03  0.23913367006E+03  0.17401197556E+03 0.  0.
         24    2    3    3    0    0 -0.54234082079E+01  0.13254226125E+03  0.34308677199E+02  0.15881495426E+03  0.80300933940E+02 0.  0.
         -6    2    1    2    0  502  0.14100518515E+02 -0.11830571276E+03  0.91217986796E+02  0.22816926058E+03  0.17188782407E+03 0.  0.
        -24    2    5    5    0    0 -0.45343829431E+02 -0.31176889282E+02  0.72170095556E+02  0.12088471116E+03  0.79853174055E+02 0.  0.
          5    1    3    3  501    0 -0.86771103067E+01 -0.14236548488E+02  0.78428531496E+02  0.80318715806E+02  0.47000000000E+01 0. -1.
        -11    1    4    4    0    0  0.30087727879E+01  0.10747494904E+03  0.58992771361E+02  0.12263794053E+03  0.00000000000E+00 0.  1.
         12    1    4    4    0    0 -0.84321809958E+01  0.25067312209E+02 -0.24684094162E+02  0.36177013729E+02  0.00000000000E+00 0. -1.
         -5    1    5    5    0  502  0.59444347945E+02 -0.87128823478E+02  0.19047891240E+02  0.10728454942E+03  0.47000000000E+01 0.  1.
         13    1    6    6    0    0 -0.23245751404E+02 -0.57480010173E+02  0.39761569509E+02  0.73656628606E+02  0.00000000000E+00 0. -1.
        -14    1    6    6    0    0 -0.22098078027E+02  0.26303120891E+02  0.32408526048E+02  0.47228082553E+02  0.00000000000E+00 0.  1.
</event>
<event>
12    1  0.8407180E-002  0.1776431E+03  0.7818608E-02  0.1171087E+00
         21   -1    0    0  503  502  0.00000000000E+00  0.00000000000E+00  0.18344025151E+04  0.18344025151E+04  0.00000000000E+00 0. -1.
         21   -1    0    0  501  503 -0.00000000000E+00 -0.00000000000E+00 -0.21232463545E+02  0.21232463545E+02  0.00000000000E+00 0. -1.
          6    2    1    2  501    0  0.17962561888E+02  0.30937419547E+02  0.47571808711E+03  0.50643713843E+03  0.16997381921E+03 0.  0.
         24    2    3    3    0    0  0.86812626989E+01  0.17740408660E+02  0.48183780918E+03  0.48855293844E+03  0.78270127663E+02 0.  0.
         -6    2    1    2    0  502 -0.17962561888E+02 -0.30937419547E+02  0.13374519645E+04  0.13491978402E+04  0.17400367034E+03 0.  0.
        -24    2    5    5    0    0  0.42484706994E+02  0.15357057789E+02  0.94668009220E+03  0.95104988143E+03  0.79068896874E+02 0.  0.
          5    1    3    3  501    0  0.92812991895E+01  0.13197010887E+02 -0.61197220666E+01  0.17884199987E+02  0.47000000000E+01 0. -1.
        -11    1    4    4    0    0 -0.34705725443E+02  0.41424894266E+01  0.18866760596E+03  0.19187785994E+03  0.00000000000E+00 0.  1.
         12    1    4    4    0    0  0.43386988142E+02  0.13597919234E+02  0.29317020323E+03  0.29667507851E+03  0.00000000000E+00 0. -1.
         -5    1    5    5    0  502 -0.60447268882E+02 -0.46294477336E+02  0.39077187226E+03  0.39814795880E+03  0.47000000000E+01 0.  1.
         11    1    6    6    0    0  0.25166889355E+02 -0.52434428484E+00  0.87983741124E+03  0.88019743097E+03  0.00000000000E+00 0. -1.
        -12    1    6    6    0    0  0.17317817638E+02  0.15881402074E+02  0.66842680958E+02  0.70852450467E+02  0.00000000000E+00 0.  1.
</event>
<event>
12    1  0.8407180E-002  0.1732571E+03  0.7818608E-02  0.1175387E+00
         21   -1    0    0  503  502  0.00000000000E+00  0.00000000000E+00  0.22563422808E+03  0.22563422808E+03  0.00000000000E+00 0.  1.
         21   -1    0    0  501  503 -0.00000000000E+00 -0.00000000000E+00 -0.23519721385E+03  0.23519721385E+03  0.00000000000E+00 0.  1.
          6    2    1    2  501    0 -0.26321573685E+02  0.41159709751E+00  0.14905936840E+03  0.22592920544E+03  0.16772690872E+03 0.  0.
         24    2    3    3    0    0 -0.72728887686E+02  0.33744577279E+01  0.14125430246E+03  0.17854327514E+03  0.81388236645E+02 0.  0.
         -6    2    1    2    0  502  0.26321573685E+02 -0.41159709751E+00 -0.15862235417E+03  0.23490223649E+03  0.17124548115E+03 0.  0.
        -24    2    5    5    0    0 -0.85186873319E+01  0.48891163897E+00 -0.17759987600E+03  0.19494111741E+03  0.79921938379E+02 0.  0.
          5    1    3    3  501    0  0.46407314001E+02 -0.29628606304E+01  0.78050659351E+01  0.47385930298E+02  0.47000000000E+01 0. -1.
        -13    1    4    4    0    0 -0.88756843969E+02 -0.81911828055E+01  0.12049363058E+03  0.14987857698E+03  0.00000000000E+00 0.  1.
         14    1    4    4    0    0  0.16027956283E+02  0.11565640533E+02  0.20760671882E+02  0.28664698159E+02  0.00000000000E+00 0. -1.
         -5    1    5    5    0  502  0.34840261017E+02 -0.90050873648E+00  0.18977521826E+02  0.39961119083E+02  0.47000000000E+01 0.  1.
         13    1    6    6    0    0 -0.32828840928E+02  0.20408519716E+02 -0.48234384860E+02  0.61812590599E+02  0.00000000000E+00 0. -1.
        -14    1    6    6    0    0  0.24310153596E+02 -0.19919608077E+02 -0.12936549114E+03  0.13312852681E+03  0.00000000000E+00 0.  1.
</event>
<event>
12    1  0.8407180E-002  0.1914651E+03  0.7818608E-02  0.1157880E+00
         21   -1    0    0  501  502  0.00000000000E+00  0.00000000000E+00  0.10785594562E+03  0.10785594562E+03  0.00000000000E+00 0. -1.
         21   -1    0    0  502  503 -0.00000000000E+00 -0.00000000000E+00 -0.36081442753E+03  0.36081442753E+03  0.00000000000E+00 0. -1.
         -6    2    1    2    0  503 -0.75241329265E+02  0.35456989986E+02 -0.61749244070E+02  0.19807872027E+03  0.16883054970E+03 0.  0.
        -24    2    3    3    0    0 -0.10180294727E+03 -0.67351506004E+01 -0.63482288053E+02  0.14797093924E+03  0.86349265414E+02 0.  0.
          6    2    1    2  501    0  0.75241329265E+02 -0.35456989986E+02 -0.19120923784E+03  0.27059165288E+03  0.17245409304E+03 0.  0.
         24    2    5    5    0    0  0.44224071579E+02 -0.78697326432E+02 -0.18020225310E+03  0.21604771937E+03  0.77812128415E+02 0.  0.
          5    1    5    5  501    0  0.31017257686E+02  0.43240336446E+02 -0.11006984740E+02  0.54543933516E+02  0.47000000000E+01 0. -1.
        -13    1    6    6    0    0  0.19713294796E+02  0.10406883929E+02 -0.62785807378E+02  0.66625631951E+02  0.00000000000E+00 0.  1.
         14    1    6    6    0    0  0.24510776783E+02 -0.89104210362E+02 -0.11741644572E+03  0.14942208742E+03  0.00000000000E+00 0. -1.
         -5    1    3    3    0  503  0.26561618002E+02  0.42192140587E+02  0.17330439825E+01  0.50107781029E+02  0.47000000000E+01 0.  1.
         13    1    4    4    0    0 -0.71747109707E+02 -0.54895072225E+01 -0.84715185720E+02  0.11115055165E+03  0.00000000000E+00 0. -1.
        -14    1    4    4    0    0 -0.30055837560E+02 -0.12456433779E+01  0.21232897667E+02  0.36820387589E+02  0.00000000000E+00 0.  1.
</event>
<event>
12    1  0.8407180E-002  0.1893731E+03  0.7818608E-02  0.1159060E+00
         21   -1    0    0  503  502  0.00000000000E+00  0.00000000000E+00  0.39991760879E+03  0.39991760879E+03  0.00000000000E+00 0.  1.
         21   -1    0    0  501  503 -0.00000000000E+00 -0.00000000000E+00 -0.89607932245E+02  0.89607932245E+02  0.00000000000E+00 0.  1.
          6    2    1    2  501    0 -0.54501731921E+02 -0.57874680972E+02  0.15493375046E+03  0.24456873214E+03  0.17172501340E+03 0.  0.
         24    2    3    3    0    0 -0.56425917417E+02 -0.99517977943E+02  0.14458243611E+03  0.20135870574E+03  0.80953909455E+02 0.  0.
         -6    2    1    2    0  502  0.54501731921E+02  0.57874680972E+02  0.15537592609E+03  0.24495680890E+03  0.17187856858E+03 0.  0.
        -24    2    5    5    0    0  0.89591836740E+02  0.56795819820E+02  0.65296046833E+02  0.14816345146E+03  0.80227004536E+02 0.  0.
          5    1    3    3  501    0  0.19241854962E+01  0.41643296971E+02  0.10351314346E+02  0.43210026395E+02  0.47000000000E+01 0. -1.
        -11    1    4    4    0    0  0.14519424973E+02 -0.24450301089E+02  0.69383354998E+01  0.29270658080E+02  0.00000000000E+00 0.  1.
         12    1    4    4    0    0 -0.70945342390E+02 -0.75067676853E+02  0.13764410061E+03  0.17208804766E+03  0.00000000000E+00 0. -1.
         -5    1    5    5    0  502 -0.35090104819E+02  0.10788611520E+01  0.90079879254E+02  0.96793357437E+02  0.47000000000E+01 0.  1.
         13    1    6    6    0    0 -0.99560877126E+01 -0.43114597836E+01  0.20246370417E+02  0.22970152003E+02  0.00000000000E+00 0. -1.
        -14    1    6    6    0    0  0.99547924453E+02  0.61107279604E+02  0.45049676416E+02  0.12519329946E+03  0.00000000000E+00 0.  1.
</event>
<event>
12    1  0.8407180E-002  0.2634970E+03  0.7818608E-02  0.1105072E+00
         21   -1    0    0  501  502  0.00000000000E+00  0.00000000000E+00  0.52682762495E+03  0.52682762495E+03  0.00000000000E+00 0. -1.
         21   -1    0    0  502  503 -0.00000000000E+00 -0.00000000000E+00 -0.29771478069E+03  0.29771478069E+03  0.00000000000E+00 0. -1.
         -6    2    1    2    0  503  0.17589288419E+03  0.95131087525E+02 -0.19326795668E+03  0.32671087735E+03  0.17146213512E+03 0.  0.
        -24    2    3    3    0    0  0.68746628571E+02  0.11349895939E+03 -0.12815901878E+03  0.19990802800E+03  0.77008914031E+02 0.  0.
          6    2    1    2  501    0 -0.17589288419E+03 -0.95131087525E+02  0.42238080094E+03  0.49783152828E+03  0.17158805036E+03 0.  0.
         24    2    5    5    0    0 -0.12817178642E+03 -0.81596174140E+02  0.16805320606E+03  0.23866919967E+03  0.75067731659E+02 0.  0.
          5    1    5    5  501    0 -0.47721097768E+02 -0.13534913385E+02  0.25432759488E+03  0.25916232861E+03  0.47000000000E+01 0. -1.
        -13    1    6    6    0    0 -0.81674711734E+01  0.13652248872E+02  0.11573086179E+02  0.19673022348E+02  0.00000000000E+00 0.  1.
         14    1    6    6    0    0 -0.12000431525E+03 -0.95248423012E+02  0.15648011988E+03  0.21899617732E+03  0.00000000000E+00 0. -1.
         -5    1    3    3    0  503  0.10714625562E+03 -0.18367871867E+02 -0.65108937896E+02  0.12680284935E+03  0.47000000000E+01 0.  1.
         13    1    4    4    0    0  0.36934888297E+02  0.79360003362E+02 -0.12570615467E+03  0.15318039506E+03  0.00000000000E+00 0. -1.
        -14    1    4    4    0    0  0.31811740274E+02  0.34138956031E+02 -0.24528641110E+01  0.46727632944E+02  0.00000000000E+00 0.  1.
</event>
<event>
12    1  0.8407180E-002  0.1843342E+03  0.7818608E-02  0.1163967E+00
         21   -1    0    0  501  502  0.00000000000E+00  0.00000000000E+00  0.52977625630E+02  0.52977625630E+02  0.00000000000E+00 0. -1.
         21   -1    0    0  502  503 -0.00000000000E+00 -0.00000000000E+00 -0.13813674608E+04  0.13813674608E+04  0.00000000000E+00 0. -1.
         -6    2    1    2    0  503 -0.46878670449E+02 -0.43215040029E+02 -0.11895928060E+04  0.12035991276E+04  0.17162361875E+03 0.  0.
        -24    2    3    3    0    0 -0.72501918948E+02 -0.36971144828E+02 -0.11513887645E+04  0.11569389103E+04  0.78664867917E+02 0.  0.
          6    2    1    2  501    0  0.46878670449E+02  0.43215040029E+02 -0.13879702915E+03  0.23074595878E+03  0.17295644760E+03 0.  0.
         24    2    5    5    0    0 -0.35023922167E+02  0.14359339160E+01 -0.95906844244E+02  0.12918225293E+03  0.79127711138E+02 0.  0.
          5    1    5    5  501    0  0.81902592616E+02  0.41779106112E+02 -0.42890184908E+02  0.10156370585E+03  0.47000000000E+01 0. -1.
        -11    1    6    6    0    0 -0.21674130816E+02  0.17199362363E+02 -0.10353006861E+03  0.10716371176E+03  0.00000000000E+00 0.  1.
         12    1    6    6    0    0 -0.13349791351E+02 -0.15763428447E+02  0.76232243666E+01  0.22018541170E+02  0.00000000000E+00 0. -1.
         -5    1    3    3    0  503  0.25623248499E+02 -0.62438952003E+01 -0.38204041539E+02  0.46660217325E+02  0.47000000000E+01 0.  1.
         13    1    4    4    0    0 -0.89549472156E+02 -0.28323443529E+02 -0.97806373771E+03  0.98256297530E+03  0.00000000000E+00 0. -1.
        -14    1    4    4    0    0  0.17047553208E+02 -0.86477012991E+01 -0.17332502676E+03  0.17437593501E+03  0.00000000000E+00 0.  1.
</event>
<event>
12    1  0.8407180E-002  0.1916048E+03  0.7818608E-02  0.1157265E+00
         21   -1    0    0  501  502  0.00000000000E+00  0.00000000000E+00  0.97658621362E+02  0.97658621362E+02  0.00000000000E+00 0. -1.
         21   -1    0    0  502  503 -0.00000000000E+00 -0.00000000000E+00 -0.37905457959E+03  0.37905457959E+03  0.00000000000E+00 0. -1.
         -6    2    1    2    0  503 -0.67913358454E+02  0.43529821613E+02 -0.16915987508E+03  0.25559239548E+03  0.17379683445E+03 0.  0.
        -24    2    3    3    0    0 -0.55797923275E+02 -0.41108303722E+02 -0.12924730143E+03  0.16111753340E+03  0.66713520104E+02 0.  0.
          6    2    1    2  501    0  0.67913358454E+02 -0.43529821613E+02 -0.11223608315E+03  0.22112080547E+03  0.17259896473E+03 0.  0.
         24    2    5    5    0    0 -0.23019407105E+02 -0.21827830145E+02 -0.90842253603E+02  0.12510242063E+03  0.79949692523E+02 0.  0.
          5    1    5    5  501    0  0.90932765559E+02 -0.21701991468E+02 -0.21393829548E+02  0.96018384847E+02  0.47000000000E+01 0. -1.
        -13    1    6    6    0    0 -0.10152873908E+02  0.28795818304E+02 -0.17921028234E+02  0.35404000528E+02  0.00000000000E+00 0.  1.
         14    1    6    6    0    0 -0.12866533197E+02 -0.50623648450E+02 -0.72921225369E+02  0.89698420098E+02  0.00000000000E+00 0. -1.
         -5    1    3    3    0  503 -0.12115435179E+02  0.84638125336E+02 -0.39912573645E+02  0.94474862079E+02  0.47000000000E+01 0.  1.
         11    1    4    4    0    0 -0.56993719580E+02 -0.35889839435E+02 -0.13643557832E+03  0.15215463081E+03  0.00000000000E+00 0. -1.
        -12    1    4    4    0    0  0.11957963051E+01 -0.52184642870E+01  0.71882768829E+01  0.89629025915E+01  0.00000000000E+00 0.  1.
</event>
<event>
12    1  0.8407180E-002  0.2044901E+03  0.7818608E-02  0.1146012E+00
         21   -1    0    0  503  502  0.00000000000E+00  0.00000000000E+00  0.89014624415E+03  0.89014624415E+03  0.00000000000E+00 0.  1.
         21   -1    0    0  501  503 -0.00000000000E+00 -0.00000000000E+00 -0.26284281443E+03  0.26284281443E+03  0.00000000000E+00 0.  1.
          6    2    1    2  501    0 -0.10922526021E+03 -0.14016068281E+02 -0.20879638823E+03  0.29225354846E+03  0.17230669521E+03 0.  0.
         24    2    3    3    0    0  0.95070482824E+01  0.14979421938E+02 -0.86416649371E+02  0.11923045748E+03  0.80207840346E+02 0.  0.
         -6    2    1    2    0  502  0.10922526021E+03  0.14016068281E+02  0.83609981794E+03  0.86073551012E+03  0.17226753955E+03 0.  0.
        -24    2    5    5    0    0 -0.89650600300E+01 -0.13834988944E+02  0.35868448836E+03  0.36809759023E+03  0.81052418400E+02 0.  0.
          5    1    3    3  501    0 -0.11873230849E+03 -0.28995490219E+02 -0.12237973886E+03  0.17302309099E+03  0.47000000000E+01 0. -1.
        -11    1    4    4    0    0 -0.28705000843E+02  0.11856273464E+02 -0.71746805188E+02  0.78180255490E+02  0.00000000000E+00 0.  1.
         12    1    4    4    0    0  0.38212049126E+02  0.31231484743E+01 -0.14669844183E+02  0.41050201986E+02  0.00000000000E+00 0. -1.
         -5    1    5    5    0  502  0.11819032024E+03  0.27851057224E+02  0.47741532959E+03  0.49263791989E+03  0.47000000000E+01 0.  1.
         11    1    6    6    0    0  0.28438979911E+02 -0.28051874408E+02  0.13212376729E+03  0.13803033406E+03  0.00000000000E+00 0. -1.
        -12    1    6    6    0    0 -0.37404039941E+02  0.14216885464E+02  0.22656072106E+03  0.23006725618E+03  0.00000000000E+00 0.  1.
</event>
<event>
12    1  0.8407180E-002  0.1763613E+03  0.7818608E-02  0.1171680E+00
         21   -1    0    0  501  502  0.00000000000E+00  0.00000000000E+00  0.26442437907E+03  0.26442437907E+03  0.00000000000E+00 0. -1.
         21   -1    0    0  502  503 -0.00000000000E+00 -0.00000000000E+00 -0.11779161661E+03  0.11779161661E+03  0.00000000000E+00 0. -1.
         -6    2    1    2    0  503  0.18908868285E+02 -0.33617511867E+02  0.55560397447E+02  0.18372803186E+03  0.17082549436E+03 0.  0.
        -24    2    3    3    0    0 -0.41606995525E+02  0.15471401421E+02  0.44154669080E+02  0.10483524499E+03  0.84085001347E+02 0.  0.
          6    2    1    2  501    0 -0.18908868285E+02  0.33617511867E+02  0.91072365007E+02  0.19848796383E+03  0.17209187579E+03 0.  0.
         24    2    5    5    0    0 -0.15628978841E+02  0.60405416166E+01 -0.26026297385E+02  0.78049457952E+02  0.71649121477E+02 0.  0.
          5    1    5    5  501    0 -0.32798894436E+01  0.27576970251E+02  0.11709866239E+03  0.12043850587E+03  0.47000000000E+01 0. -1.
        -11    1    6    6    0    0  0.26778674746E+02 -0.76250598168E+01 -0.16895594470E+02  0.32568390671E+02  0.00000000000E+00 0.  1.
         12    1    6    6    0    0 -0.42407653588E+02  0.13665601433E+02 -0.91307029155E+01  0.45481067282E+02  0.00000000000E+00 0. -1.
         -5    1    3    3    0  503  0.60515863810E+02 -0.49088913288E+02  0.11405728367E+02  0.78892786870E+02  0.47000000000E+01 0.  1.
         13    1    4    4    0    0 -0.48256057626E+02 -0.24473847485E+02  0.20011671398E+02  0.57689542384E+02  0.00000000000E+00 0. -1.
        -14    1    4    4    0    0  0.66490621007E+01  0.39945248906E+02  0.24142997682E+02  0.47145702604E+02  0.00000000000E+00 0.  1.
</event>
<event>
12    1  0.8407180E-002  0.1994056E+03  0.7818608E-02  0.1150768E+00
         21   -1    0    0  501  502  0.00000000000E+00  0.00000000000E+00  0.19112163240E+03  0.19112163240E+03  0.00000000000E+00 0.  1.
         21   -1    0    0  502  503 -0.00000000000E+00 -0.00000000000E+00 -0.40312105348E+03  0.40312105348E+03  0.00000000000E+00 0.  1.
         -6    2    1    2    0  503  0.83300819120E+02 -0.51859778493E+02 -0.31370559476E+03  0.37039732689E+03  0.17074693697E+03 0.  0.
        -24    2    3    3    0    0  0.48483425327E+02  0.88830575228E+01 -0.27778550636E+03  0.29156658549E+03  0.73598471368E+02 0.  0.
          6    2    1    2  501    0 -0.83300819120E+02  0.51859778493E+02  0.10170617369E+03  0.22384535900E+03  0.17359186584E+03 0.  0.
         24    2    5    5    0    0 -0.89546462876E+02  0.92647632050E+02  0.53450289501E+02  0.16017921869E+03  0.78729257032E+02 0.  0.
          5    1    5    5  501    0  0.62456437559E+01 -0.40787853557E+02  0.48255884186E+02  0.63666140312E+02  0.47000000000E+01 0. -1.
        -11    1    6    6    0    0 -0.19534346728E+02  0.66972872284E+02  0.49428799667E+02  0.85499488657E+02  0.00000000000E+00 0.  1.
         12    1    6    6    0    0 -0.70012116148E+02  0.25674759766E+02  0.40214898335E+01  0.74679730028E+02  0.00000000000E+00 0. -1.
         -5    1    3    3    0  503  0.34817393793E+02 -0.60742836015E+02 -0.35920088401E+02  0.78830741392E+02  0.47000000000E+01 0.  1.
         13    1    4    4    0    0  0.14608461551E+02 -0.15251979520E+02 -0.15995917314E+02  0.26493384059E+02  0.00000000000E+00 0. -1.
        -14    1    4    4    0    0  0.33874963777E+02  0.24135037043E+02 -0.26178958905E+03  0.26507320143E+03  0.00000000000E+00 0.  1.
</event>
<event>
12    1  0.8407180E-002  0.2162068E+03  0.7818608E-02  0.1137018E+00
         21   -1    0    0  503  502  0.00000000000E+00  0.00000000000E+00  0.28684732308E+03  0.28684732308E+03  0.00000000000E+00 0. -1.
         21   -1    0    0  501  503 -0.00000000000E+00 -0.00000000000E+00 -0.22911509717E+03  0.22911509717E+03  0.00000000000E+00 0.  1.
          6    2    1    2  501    0  0.12999970910E+03 -0.18571532332E+02 -0.11095045406E+03  0.24173767216E+03  0.16994785290E+03 0.  0.
         24    2    3    3    0    0  0.10782894459E+03 -0.70459430373E+02 -0.10531324820E+03  0.18483631144E+03  0.80510677303E+02 0.  0.
         -6    2    1    2    0  502 -0.12999970910E+03  0.18571532332E+02  0.16868267997E+03  0.27422474808E+03  0.17175721167E+03 0.  0.
        -24    2    5    5    0    0 -0.10261973219E+03 -0.44973631152E+02  0.14677472978E+03  0.20149442965E+03  0.80645811701E+02 0.  0.
          5    1    3    3  501    0  0.22170764513E+02  0.51887898042E+02 -0.56372058555E+01  0.56901360723E+02  0.47000000000E+01 0. -1.
        -13    1    4    4    0    0  0.55337151928E+02 -0.39970468189E+02 -0.10365017775E+03  0.12410962114E+03  0.00000000000E+00 0.  1.
         14    1    4    4    0    0  0.52491792659E+02 -0.30488962184E+02 -0.16630704512E+01  0.60726690301E+02  0.00000000000E+00 0. -1.
         -5    1    5    5    0  502 -0.27379976914E+02  0.63545163484E+02  0.21907950190E+02  0.72730318434E+02  0.47000000000E+01 0.  1.
         11    1    6    6    0    0 -0.51238555768E+02 -0.31533059359E+02  0.13397473519E+03  0.14686372288E+03  0.00000000000E+00 0. -1.
        -12    1    6    6    0    0 -0.51381176418E+02 -0.13440571793E+02  0.12799994588E+02  0.54630706765E+02  0.00000000000E+00 0.  1.
</event>
<event>
12    1  0.8407180E-002  0.2076152E+03  0.7818608E-02  0.1143571E+00
         21   -1    0    0  503  502  0.00000000000E+00  0.00000000000E+00  0.14686984639E+03  0.14686984639E+03  0.00000000000E+00 0. -1.
         21   -1    0    0  501  503 -0.00000000000E+00 -0.00000000000E+00 -0.31322217669E+03  0.31322217669E+03  0.00000000000E+00 0. -1.
          6    2    1    2  501    0  0.11281348751E+03 -0.28777129180E+02 -0.24482666779E+02  0.20905373913E+03  0.17189839657E+03 0.  0.
         24    2    3    3    0    0  0.13117079794E+03 -0.56603961159E+02 -0.45487031908E+02  0.16937254989E+03  0.78792156550E+02 0.  0.
         -6    2    1    2    0  502 -0.11281348751E+03  0.28777129180E+02 -0.14186966352E+03  0.25103828395E+03  0.17128401108E+03 0.  0.
        -24    2    5    5    0    0 -0.13928214017E+03  0.45364675214E+01 -0.14308530204E+03  0.21481995946E+03  0.79082976772E+02 0.  0.
          5    1    3    3  501    0 -0.18357310435E+02  0.27826831979E+02  0.21004365130E+02  0.39681189232E+02  0.47000000000E+01 0. -1.
        -11    1    4    4    0    0  0.11316535184E+02  0.10709068639E+02 -0.26311529102E+02  0.30578500346E+02  0.00000000000E+00 0.  1.
         12    1    4    4    0    0  0.11985426276E+03 -0.67313029798E+02 -0.19175502806E+02  0.13879404955E+03  0.00000000000E+00 0. -1.
         -5    1    5    5    0  502  0.26468652664E+02  0.24240661659E+02  0.12156385187E+01  0.36218324485E+02  0.47000000000E+01 0.  1.
         13    1    6    6    0    0 -0.63457688667E+02 -0.31642879045E+02 -0.38558491895E+02  0.80714975949E+02  0.00000000000E+00 0. -1.
        -14    1    6    6    0    0 -0.75824451505E+02  0.36179346567E+02 -0.10452681015E+03  0.13410498351E+03  0.00000000000E+00 0.  1.
</event>
<event>
12    1  0.8407180E-002  0.1880844E+03  0.7818608E-02  0.1160211E+00
         21   -1    0    0  503  502  0.00000000000E+00  0.00000000000E+00  0.25191869315E+03  0.25191869315E+03  0.00000000000E+00 0.  1.
         21   -1    0    0  501  503 -0.00000000000E+00 -0.00000000000E+00 -0.20219747563E+03  0.20219747563E+03  0.00000000000E+00 0.  1.
          6    2    1    2  501    0  0.42416611240E+02  0.60976636891E+02 -0.10067526101E+03  0.21329501247E+03  0.17274818382E+03 0.  0.
         24    2    3    3    0    0  0.13519102853E+02  0.26762176596E+02 -0.13263574814E+03  0.15807492535E+03  0.80600620988E+02 0.  0.
         -6    2    1    2    0  502 -0.42416611240E+02 -0.60976636891E+02  0.15039647853E+03  0.24082115630E+03  0.17279586052E+03 0.  0.
        -24    2    5    5    0    0  0.86544912049E+01 -0.20648797805E+02  0.53630529192E+01  0.81788528657E+02  0.78481386421E+02 0.  0.
          5    1    3    3  501    0  0.28897508387E+02  0.34214460295E+02  0.31960487129E+02  0.55220087122E+02  0.47000000000E+01 0. -1.
        -11    1    4    4    0    0  0.21763481706E+02 -0.40836391332E+01 -0.12263305239E+03  0.12461617384E+03  0.00000000000E+00 0.  1.
         12    1    4    4    0    0 -0.82443788539E+01  0.30845815729E+02 -0.10002695750E+02  0.33458751515E+02  0.00000000000E+00 0. -1.
         -5    1    5    5    0  502 -0.51071102445E+02 -0.40327839086E+02  0.14503342561E+03  0.15903262764E+03  0.47000000000E+01 0.  1.
         11    1    6    6    0    0 -0.12149347108E+02 -0.29863396935E+02 -0.27119605648E+02  0.42129587254E+02  0.00000000000E+00 0. -1.
        -12    1    6    6    0    0  0.20803838313E+02  0.92145991304E+01  0.32482658567E+02  0.39658941404E+02  0.00000000000E+00 0.  1.
</event>
<event>
12    1  0.8407180E-002  0.2065833E+03  0.7818608E-02  0.1144454E+00
         21   -1    0    0  501  502  0.00000000000E+00  0.00000000000E+00  0.16681552400E+03  0.16681552400E+03  0.00000000000E+00 0. -1.
         21   -1    0    0  502  503 -0.00000000000E+00 -0.00000000000E+00 -0.30192860409E+03  0.30192860409E+03  0.00000000000E+00 0. -1.
         -6    2    1    2    0  503  0.14135413821E+01 -0.11387912966E+03 -0.15995383286E+03  0.26067266113E+03  0.17144839848E+03 0.  0.
        -24    2    3    3    0    0 -0.64808215604E+02 -0.54579622328E+02 -0.89480474635E+02  0.14713704166E+03  0.80395980650E+02 0.  0.
          6    2    1    2  501    0 -0.14135413821E+01  0.11387912966E+03  0.24840752764E+02  0.20807146696E+03  0.17235491897E+03 0.  0.
         24    2    5    5    0    0  0.14115070684E+02  0.14159042253E+03  0.47115085348E+02  0.16899091634E+03  0.78044958614E+02 0.  0.
          5    1    5    5  501    0 -0.15528612066E+02 -0.27711292864E+02 -0.22274332584E+02  0.39080550623E+02  0.47000000000E+01 0. -1.
        -11    1    6    6    0    0  0.21092317101E+02  0.44794041079E+02 -0.17372710061E+02  0.52470973040E+02  0.00000000000E+00 0.  1.
         12    1    6    6    0    0 -0.69772464178E+01  0.96796381449E+02  0.64487795409E+02  0.11651994330E+03  0.00000000000E+00 0. -1.
         -5    1    3    3    0  503  0.66221756986E+02 -0.59299507336E+02 -0.70473358226E+02  0.11353561947E+03  0.47000000000E+01 0.  1.
         13    1    4    4    0    0 -0.26031397716E+02  0.11715163820E+02 -0.57000209004E+02  0.63748745532E+02  0.00000000000E+00 0. -1.
        -14    1    4    4    0    0 -0.38776817888E+02 -0.66294786148E+02 -0.32480265632E+02  0.83388296130E+02  0.00000000000E+00 0.  1.
</event>
<event>
12    1  0.8407180E-002  0.2178695E+03  0.7818608E-02  0.1135682E+00
         21   -1    0    0  503  502  0.00000000000E+00  0.00000000000E+00  0.14208363532E+03  0.14208363532E+03  0.00000000000E+00 0. -1.
         21   -1    0    0  501  503 -0.00000000000E+00 -0.00000000000E+00 -0.42671927022E+03  0.42671927022E+03  0.00000000000E+00 0. -1.
          6    2    1    2  501    0 -0.11532334360E+03 -0.66285674131E+02 -0.27625764293E+03  0.35183147585E+03  0.17255097203E+03 0.  0.
         24    2    3    3    0    0 -0.92255643904E+01 -0.48433718575E+02 -0.65135496152E+02  0.11482919331E+03  0.80698046097E+02 0.  0.
         -6    2    1    2    0  502  0.11532334360E+03  0.66285674131E+02 -0.83779919781E+01  0.21697142969E+03  0.17121082436E+03 0.  0.
        -24    2    5    5    0    0  0.10108291044E+03  0.92673389706E+02 -0.49180003443E+02  0.16611874432E+03  0.79816367572E+02 0.  0.
          5    1    3    3  501    0 -0.10609777921E+03 -0.17851955556E+02 -0.21112214678E+03  0.23700228254E+03  0.47000000000E+01 0. -1.
        -11    1    4    4    0    0  0.21592452261E+02 -0.57665619011E+02 -0.49782510257E+02  0.79182421901E+02  0.00000000000E+00 0.  1.
         12    1    4    4    0    0 -0.30818016651E+02  0.92319004363E+01 -0.15352985895E+02  0.35646771409E+02  0.00000000000E+00 0. -1.
         -5    1    5    5    0  502  0.14240433160E+02 -0.26387715575E+02  0.40802011465E+02  0.50852685371E+02  0.47000000000E+01 0.  1.
         11    1    6    6    0    0  0.40212532524E+02  0.70086561822E+02  0.58419386966E+01  0.81014209666E+02  0.00000000000E+00 0. -1.
        -12    1    6    6    0    0  0.60870377915E+02  0.22586827884E+02 -0.55021942140E+02  0.85104534651E+02  0.00000000000E+00 0.  1.
</event>
<event>
12    1  0.8407180E-002  0.1737098E+03  0.7818608E-02  0.1174380E+00
         21   -1    0    0  501  502  0.00000000000E+00  0.00000000000E+00  0.29179023697E+03  0.29179023697E+03  0.00000000000E+00 0.  1.
         21   -1    0    0  502  503 -0.00000000000E+00 -0.00000000000E+00 -0.21711995228E+03  0.21711995228E+03  0.00000000000E+00 0.  1.
         -6    2    1    2    0  503 -0.17712900139E+02  0.27110275242E+02 -0.14752953241E+03  0.22686792802E+03  0.16927900039E+03 0.  0.
        -24    2    3    3    0    0  0.24811073075E+02 -0.37120654210E+02 -0.96336427880E+02  0.13425732091E+03  0.82163182548E+02 0.  0.
          6    2    1    2  501    0  0.17712900139E+02 -0.27110275242E+02  0.22219981711E+03  0.28204226123E+03  0.17066447944E+03 0.  0.
         24    2    5    5    0    0  0.24981574933E+02  0.49880432157E+02  0.12042888708E+03  0.15413676934E+03  0.78376592294E+02 0.  0.
          5    1    5    5  501    0 -0.72686747932E+01 -0.76990707399E+02  0.10177093003E+03  0.12790549190E+03  0.47000000000E+01 0. -1.
        -11    1    6    6    0    0  0.34094885560E+02  0.31922893579E+02  0.12503942399E+03  0.13347805028E+03  0.00000000000E+00 0.  1.
         12    1    6    6    0    0 -0.91133106273E+01  0.17957538578E+02 -0.46105369082E+01  0.20658719054E+02  0.00000000000E+00 0. -1.
         -5    1    3    3    0  503 -0.42523973215E+02  0.64230929452E+02 -0.51193104535E+02  0.92610607104E+02  0.47000000000E+01 0.  1.
         13    1    4    4    0    0  0.47809541432E+02 -0.26385624225E+02 -0.94076277296E+02  0.10877637320E+03  0.00000000000E+00 0. -1.
        -14    1    4    4    0    0 -0.22998468357E+02 -0.10735029985E+02 -0.22601505836E+01  0.25480947710E+02  0.00000000000E+00 0.  1.
</event>
<event>
12    1  0.8407180E-002  0.2913051E+03  0.7818608E-02  0.1089888E+00
         21   -1    0    0  503  502  0.00000000000E+00  0.00000000000E+00  0.38038528340E+03  0.38038528340E+03  0.00000000000E+00 0.  1.
         21   -1    0    0  501  503 -0.00000000000E+00 -0.00000000000E+00 -0.23943026022E+03  0.23943026022E+03  0.00000000000E+00 0. -1.
          6    2    1    2  501    0  0.12530624830E+03  0.19879819604E+03 -0.13423833875E+02  0.29161427049E+03  0.17215198177E+03 0.  0.
         24    2    3    3    0    0  0.14837301695E+02  0.29995601648E+01 -0.36670128206E+01  0.66541438873E+02  0.64692914771E+02 0.  0.
         -6    2    1    2    0  502 -0.12530624830E+03 -0.19879819604E+03  0.15437885705E+03  0.32820127313E+03  0.16929520244E+03 0.  0.
        -24    2    5    5    0    0 -0.13686193109E+03 -0.15301619966E+03  0.69656019299E+02  0.23109527829E+03  0.80049491460E+02 0.  0.
          5    1    3    3  501    0  0.11046894661E+03  0.19579863588E+03 -0.97568210545E+01  0.22507283162E+03  0.47000000000E+01 0. -1.
        -13    1    4    4    0    0  0.38672305728E+02  0.11886683106E+02 -0.63853511190E+01  0.40958676425E+02  0.00000000000E+00 0.  1.
         14    1    4    4    0    0 -0.23835004033E+02 -0.88871229408E+01  0.27183382984E+01  0.25582762449E+02  0.00000000000E+00 0. -1.
         -5    1    5    5    0  502  0.11555682788E+02 -0.45781996382E+02  0.84722837755E+02  0.97105994845E+02  0.47000000000E+01 0.  1.
         13    1    6    6    0    0 -0.13043097456E+03 -0.16199411480E+03  0.71448289333E+02  0.21990723136E+03  0.00000000000E+00 0. -1.
        -14    1    6    6    0    0 -0.64309565252E+01  0.89779151441E+01 -0.17922700334E+01  0.11188046927E+02  0.00000000000E+00 0.  1.
</event>
<event>
12    1  0.8407180E-002  0.4067263E+03  0.7818608E-02  0.1041585E+00
         21   -1    0    0  503  502  0.00000000000E+00  0.00000000000E+00  0.25168478861E+04  0.25168478861E+04  0.00000000000E+00 0.  1.
         21   -1    0    0  501  503 -0.00000000000E+00 -0.00000000000E+00 -0.10624591240E+03  0.10624591240E+03  0.00000000000E+00 0. -1.
          6    2    1    2  501    0 -0.18093296549E+03 -0.31956483243E+03  0.39210360205E+03  0.56402557829E+03  0.17181733933E+03 0.  0.
         24    2    3    3    0    0 -0.45188072736E+02 -0.21646854132E+03  0.21935901204E+03  0.32129464799E+03  0.78811695572E+02 0.  0.
         -6    2    1    2    0  502  0.18093296549E+03  0.31956483243E+03  0.20184983716E+04  0.20590682202E+04  0.17483660660E+03 0.  0.
        -24    2    5    5    0    0  0.15315848710E+03  0.32538648924E+03  0.17022961050E+04  0.17415603041E+04  0.76722710365E+02 0.  0.
          5    1    3    3  501    0 -0.13574489276E+03 -0.10309629111E+03  0.17274459000E+03  0.24273093030E+03  0.47000000000E+01 0. -1.
        -11    1    4    4    0    0 -0.11486035911E+01 -0.47300643240E+02  0.96984829961E+02  0.10791073804E+03  0.00000000000E+00 0.  1.
         12    1    4    4    0    0 -0.44039469145E+02 -0.16916789808E+03  0.12237418208E+03  0.21338390995E+03  0.00000000000E+00 0. -1.
         -5    1    5    5    0  502  0.27774478395E+02 -0.58216568118E+01  0.31620226662E+03  0.31750791605E+03  0.47000000000E+01 0.  1.
         11    1    6    6    0    0  0.91200954815E+02  0.12929716669E+03  0.61787013964E+03  0.63780787149E+03  0.00000000000E+00 0. -1.
        -12    1    6    6    0    0  0.61957532281E+02  0.19608932256E+03  0.10844259653E+04  0.11037524326E+04  0.00000000000E+00 0.  1.
</event>
<event>
12    1  0.8407180E-002  0.4053177E+03  0.7818608E-02  0.1041968E+00
         21   -1    0    0  503  502  0.00000000000E+00  0.00000000000E+00  0.93601183931E+03  0.93601183931E+03  0.00000000000E+00 0.  1.
         21   -1    0    0  501  503 -0.00000000000E+00 -0.00000000000E+00 -0.48965286470E+03  0.48965286470E+03  0.00000000000E+00 0.  1.
          6    2    1    2  501    0  0.21791035292E+03  0.29517089359E+03 -0.34785925617E+03  0.53400051306E+03  0.17187119455E+03 0.  0.
         24    2    3    3    0    0  0.22449918750E+03  0.25107727541E+03 -0.34536915447E+03  0.48910117552E+03  0.80625204613E+02 0.  0.
         -6    2    1    2    0  502 -0.21791035292E+03 -0.29517089359E+03  0.79421823078E+03  0.89166419094E+03  0.17225461671E+03 0.  0.
        -24    2    5    5    0    0 -0.20579089646E+03 -0.24360838470E+03  0.54256135393E+03  0.63445056920E+03  0.80372655857E+02 0.  0.
          5    1    3    3  501    0 -0.65888345818E+01  0.44093618180E+02 -0.24901016976E+01  0.44899337543E+02  0.47000000000E+01 0. -1.
        -11    1    4    4    0    0  0.79973846176E+02  0.14870924975E+03 -0.15731683089E+03  0.23077877354E+03  0.00000000000E+00 0.  1.
         12    1    4    4    0    0  0.14452534132E+03  0.10236802566E+03 -0.18805232358E+03  0.25832240198E+03  0.00000000000E+00 0. -1.
         -5    1    5    5    0  502 -0.12119456458E+02 -0.51562508882E+02  0.25165687685E+03  0.25721362175E+03  0.47000000000E+01 0.  1.
         13    1    6    6    0    0 -0.56935538197E+01 -0.23047272898E+02  0.13440202048E+02  0.27280622688E+02  0.00000000000E+00 0. -1.
        -14    1    6    6    0    0 -0.20009734264E+03 -0.22056111181E+03  0.52912115188E+03  0.60716994651E+03  0.00000000000E+00 0.  1.
</event>
<event>
12    1  0.8407180E-002  0.2271037E+03  0.7818608E-02  0.1128847E+00
         21   -1    0    0  501  502  0.00000000000E+00  0.00000000000E+00  0.42287141418E+03  0.42287141418E+03  0.00000000000E+00 0. -1.
         21   -1    0    0  502  503 -0.00000000000E+00 -0.00000000000E+00 -0.20070736579E+03  0.20070736579E+03  0.00000000000E+00 0. -1.
         -6    2    1    2    0  503  0.14227215765E+03  0.41410740334E+02 -0.84895325134E+02  0.24166055017E+03  0.17098651707E+03 0.  0.
        -24    2    3    3    0    0  0.98683635837E+02  0.22480857815E+02  0.16146889385E+02  0.12990224488E+03  0.79812419067E+02 0.  0.
          6    2    1    2  501    0 -0.14227215765E+03 -0.41410740334E+02  0.30705937352E+03  0.38191822980E+03  0.17210421010E+03 0.  0.
         24    2    5    5    0    0 -0.67770629321E+01 -0.40071283387E+02  0.10312467205E+03  0.13702607537E+03  0.80559363284E+02 0.  0.
          5    1    5    5  501    0 -0.13549509472E+03 -0.13394569466E+01  0.20393470147E+03  0.24489215443E+03  0.47000000000E+01 0. -1.
        -13    1    6    6    0    0  0.27422956292E+02 -0.24447363237E+02  0.89986357628E+02  0.97196896350E+02  0.00000000000E+00 0.  1.
         14    1    6    6    0    0 -0.34200019224E+02 -0.15623920150E+02  0.13138314421E+02  0.39829179023E+02  0.00000000000E+00 0. -1.
         -5    1    3    3    0  503  0.43588521812E+02  0.18929882518E+02 -0.10104221452E+03  0.11175830529E+03  0.47000000000E+01 0.  1.
         11    1    4    4    0    0  0.10030253397E+03 -0.37422347014E+01  0.27482002284E+01  0.10040993599E+03  0.00000000000E+00 0. -1.
        -12    1    4    4    0    0 -0.16188981328E+01  0.26223092517E+02  0.13398689157E+02  0.29492308886E+02  0.00000000000E+00 0.  1.
</event>
<event>
12    1  0.8407180E-002  0.1991358E+03  0.7818608E-02  0.1151051E+00
         21   -1    0    0  503  502  0.00000000000E+00  0.00000000000E+00  0.15578438787E+04  0.15578438787E+04  0.00000000000E+00 0. -1.
         21   -1    0    0  501  503 -0.00000000000E+00 -0.00000000000E+00 -0.26371321510E+02  0.26371321510E+02  0.00000000000E+00 0. -1.
          6    2    1    2  501    0 -0.31279263542E+02  0.88789041342E+02  0.59743903904E+03  0.62975272232E+03  0.17547991257E+03 0.  0.
         24    2    3    3    0    0  0.32335870502E+01  0.15364912703E+02  0.48088525677E+03  0.48766432138E+03  0.79494172972E+02 0.  0.
         -6    2    1    2    0  502  0.31279263542E+02 -0.88789041342E+02  0.93403351813E+03  0.95446247787E+03  0.17238945002E+03 0.  0.
        -24    2    5    5    0    0 -0.35805481989E+02 -0.76458506668E+00  0.44089160283E+03  0.44903225854E+03  0.77213642781E+02 0.  0.
          5    1    3    3  501    0 -0.34512850593E+02  0.73424128638E+02  0.11655378227E+03  0.14208840095E+03  0.47000000000E+01 0. -1.
        -13    1    4    4    0    0 -0.11223379687E+02  0.27998293462E+02  0.45184888658E+03  0.45285459586E+03  0.00000000000E+00 0.  1.
         14    1    4    4    0    0  0.14456966737E+02 -0.12633380759E+02  0.29036370191E+02  0.34809725516E+02  0.00000000000E+00 0. -1.
         -5    1    5    5    0  502  0.67084745531E+02 -0.88024456275E+02  0.49314191530E+03  0.50543021933E+03  0.47000000000E+01 0.  1.
         11    1    6    6    0    0 -0.26545257814E+02 -0.17486395858E+02  0.41801137879E+03  0.41921824573E+03  0.00000000000E+00 0. -1.
        -12    1    6    6    0    0 -0.92602241743E+01  0.16721810791E+02  0.22880224045E+02  0.29814012817E+02  0.00000000000E+00 0.  1.
</event>
<event>
12    1  0.8407180E-002  0.2216610E+03  0.7818608E-02  0.1132769E+00
         21   -1    0    0  501  502  0.00000000000E+00  0.00000000000E+00  0.54945499026E+02  0.54945499026E+02  0.00000000000E+00 0.  1.
         21   -1    0    0  502  503 -0.00000000000E+00 -0.00000000000E+00 -0.91041633014E+03  0.91041633014E+03  0.00000000000E+00 0.  1.
         -6    2    1    2    0  503 -0.43344423779E+02 -0.13351871341E+03 -0.49764483001E+03  0.54477884159E+03  0.17154481488E+03 0.  0.
        -24    2    3    3    0    0 -0.89261157307E+02 -0.12557258277E+03 -0.41391943103E+03  0.44884386443E+03  0.79971816924E+02 0.  0.
          6    2    1    2  501    0  0.43344423779E+02  0.13351871341E+03 -0.35782600110E+03  0.42058298757E+03  0.17071794417E+03 0.  0.
         24    2    5    5    0    0  0.22254878567E+02  0.17019819542E+02 -0.76395211082E+02  0.11522722659E+03  0.81585118707E+02 0.  0.
          5    1    5    5  501    0  0.21089545213E+02  0.11649889387E+03 -0.28143079002E+03  0.30535576098E+03  0.47000000000E+01 0. -1.
        -13    1    6    6    0    0  0.52465611586E+02  0.24019879269E+01 -0.42949095732E+02  0.67845668758E+02  0.00000000000E+00 0.  1.
         14    1    6    6    0    0 -0.30210733019E+02  0.14617831615E+02 -0.33446115350E+02  0.47381557833E+02  0.00000000000E+00 0. -1.
         -5    1    3    3    0  503  0.45916733528E+02 -0.79461306419E+01 -0.83725398978E+02  0.95934977168E+02  0.47000000000E+01 0.  1.
         13    1    4    4    0    0 -0.91083310014E+00 -0.50845220371E+01 -0.11062236754E+03  0.11074290127E+03  0.00000000000E+00 0. -1.
        -14    1    4    4    0    0 -0.88350324207E+02 -0.12048806073E+03 -0.30329706349E+03  0.33810096316E+03  0.00000000000E+00 0.  1.
</event>
<event>
12    1  0.8407180E-002  0.2302628E+03  0.7818608E-02  0.1127270E+00
         21   -1    0    0  501  502  0.00000000000E+00  0.00000000000E+00  0.79905056372E+03  0.79905056372E+03  0.00000000000E+00 0.  1.
         21   -1    0    0  502  503 -0.00000000000E+00 -0.00000000000E+00 -0.17931064493E+03  0.17931064493E+03  0.00000000000E+00 0. -1.
         -6    2    1    2    0  503 -0.23390143868E+02  0.14731287170E+03 -0.81765371189E+02  0.24003157283E+03  0.16935583554E+03 0.  0.
        -24    2    3    3    0    0 -0.40110157265E+02  0.58876325989E+02 -0.10096418956E+03  0.14788350670E+03  0.81243568984E+02 0.  0.
          6    2    1    2  501    0  0.23390143868E+02 -0.14731287170E+03  0.70150528998E+03  0.73832963582E+03  0.17542177251E+03 0.  0.
         24    2    5    5    0    0  0.67681598534E+02 -0.15112558451E+03  0.51871949138E+03  0.55015682189E+03  0.78631271514E+02 0.  0.
          5    1    5    5  501    0 -0.44291454666E+02  0.38127128082E+01  0.18278579859E+03  0.18817281393E+03  0.47000000000E+01 0. -1.
        -11    1    6    6    0    0 -0.49543653227E+01 -0.49742063986E+02  0.23463988043E+03  0.23990559008E+03  0.00000000000E+00 0.  1.
         12    1    6    6    0    0  0.72635963857E+02 -0.10138352052E+03  0.28407961096E+03  0.31025123181E+03  0.00000000000E+00 0. -1.
         -5    1    3    3    0  503  0.16720013397E+02  0.88436545713E+02  0.19198818372E+02  0.92148066136E+02  0.47000000000E+01 0.  1.
         11    1    4    4    0    0 -0.26860263936E+02  0.79248635628E+02 -0.75893098309E+02  0.11296717399E+03  0.00000000000E+00 0. -1.
        -12    1    4    4    0    0 -0.13249893329E+02 -0.20372309640E+02 -0.25071091251E+02  0.34916332709E+02  0.00000000000E+00 0.  1.
</event>
<event>
12    1  0.8407180E-002  0.2039997E+03  0.7818608E-02  0.1146453E+00
         21   -1    0    0  501  502  0.00000000000E+00  0.00000000000E+00  0.33065992350E+02  0.33065992350E+02  0.00000000000E+00 0.  1.
         21   -1    0    0  502  503 -0.00000000000E+00 -0.00000000000E+00 -0.13296027438E+04  0.13296027438E+04  0.00000000000E+00 0.  1.
         -6    2    1    2    0  503  0.49882171471E+02 -0.94428420829E+02 -0.48897217539E+03  0.52973630729E+03  0.17355635760E+03 0.  0.
        -24    2    3    3    0    0  0.43473136320E+02 -0.64783489600E+02 -0.48618732209E+03  0.49891840523E+03  0.80340829055E+02 0.  0.
          6    2    1    2  501    0 -0.49882171471E+02  0.94428420829E+02 -0.80756457610E+03  0.83293242890E+03  0.17381291338E+03 0.  0.
         24    2    5    5    0    0 -0.50798321208E+02  0.84755494191E+02 -0.81151469580E+03  0.82143902707E+03  0.80262135889E+02 0.  0.
          5    1    5    5  501    0  0.91614973775E+00  0.96729266384E+01  0.39501197008E+01  0.11493401835E+02  0.47000000000E+01 0. -1.
        -13    1    6    6    0    0 -0.38626530274E+02  0.89951595694E+01 -0.45687703401E+03  0.45859518744E+03  0.00000000000E+00 0.  1.
         14    1    6    6    0    0 -0.12171790934E+02  0.75760334621E+02 -0.35463766179E+03  0.36284383963E+03  0.00000000000E+00 0. -1.
         -5    1    3    3    0  503  0.64090351508E+01 -0.29644931229E+02 -0.27848533003E+01  0.30817902054E+02  0.47000000000E+01 0.  1.
         11    1    4    4    0    0  0.10764023073E+02  0.19108663796E+02 -0.98352040392E+02  0.10076769857E+03  0.00000000000E+00 0. -1.
        -12    1    4    4    0    0  0.32709113247E+02 -0.83892153396E+02 -0.38783528170E+03  0.39815070667E+03  0.00000000000E+00 0.  1.
</event>
<event>
12    1  0.8407180E-002  0.2065807E+03  0.7818608E-02  0.1144488E+00
         21   -1    0    0  503  502  0.00000000000E+00  0.00000000000E+00  0.23837097323E+03  0.23837097323E+03  0.00000000000E+00 0. -1.
         21   -1    0    0  501  503 -0.00000000000E+00 -0.00000000000E+00 -0.17827052326E+03  0.17827052326E+03  0.00000000000E+00 0. -1.
          6    2    1    2  501    0  0.11187540388E+03  0.14978783118E+02  0.27257884263E+02  0.20746643369E+03  0.17192689992E+03 0.  0.
         24    2    3    3    0    0  0.71721601948E+01 -0.34104776516E+02  0.22899075418E+02  0.91651692492E+02  0.81615497417E+02 0.  0.
         -6    2    1    2    0  502 -0.11187540388E+03 -0.14978783118E+02  0.32842565714E+02  0.20917506279E+03  0.17301763735E+03 0.  0.
        -24    2    5    5    0    0 -0.86384389202E+02  0.14121830030E+02 -0.39911108349E+02  0.12664128423E+03  0.82361577931E+02 0.  0.
          5    1    3    3  501    0  0.10470324369E+03  0.49083559634E+02  0.43588088453E+01  0.11581474120E+03  0.47000000000E+01 0. -1.
        -13    1    4    4    0    0  0.18941974605E+02 -0.55641873201E+02  0.10423215841E+01  0.58786927880E+02  0.00000000000E+00 0.  1.
         14    1    4    4    0    0 -0.11769814411E+02  0.21537096685E+02  0.21856753834E+02  0.32864764612E+02  0.00000000000E+00 0. -1.
         -5    1    5    5    0  502 -0.25491014681E+02 -0.29100613148E+02  0.72753674063E+02  0.82533778568E+02  0.47000000000E+01 0.  1.
         11    1    6    6    0    0 -0.77423623492E+02  0.48591864688E+01  0.70957078929E+01  0.77899796137E+02  0.00000000000E+00 0. -1.
        -12    1    6    6    0    0 -0.89607657105E+01  0.92626435613E+01 -0.47006816242E+02  0.48741488088E+02  0.00000000000E+00 0.  1.
</event>
<event>
12    1  0.8407180E-002  0.1752852E+03  0.7818608E-02  0.1172953E+00
         21   -1    0    0  501  502  0.00000000000E+00  0.00000000000E+00  0.30803210088E+03  0.30803210088E+03  0.00000000000E+00 0.  1.
         21   -1    0    0  502  503 -0.00000000000E+00 -0.00000000000E+00 -0.13512387514E+03  0.13512387514E+03  0.00000000000E+00 0.  1.
         -6    2    1    2    0  503  0.27411353743E+02  0.10234508683E+02 -0.29102306123E+02  0.17569915292E+03  0.17078384184E+03 0.  0.
        -24    2    3    3    0    0  0.10711946765E+02  0.85059104675E+01  0.48442216465E+02  0.96218958982E+02  0.82002093968E+02 0.  0.
          6    2    1    2  501    0 -0.27411353743E+02 -0.10234508683E+02  0.20201053186E+03  0.26745682311E+03  0.17282583650E+03 0.  0.
         24    2    5    5    0    0 -0.50088049116E+02  0.18646965775E+02  0.43859715061E+02  0.10503101563E+03  0.79065274564E+02 0.  0.
          5    1    5    5  501    0  0.22676695373E+02 -0.28881474458E+02  0.15815081680E+03  0.16242580748E+03  0.47000000000E+01 0. -1.
        -11    1    6    6    0    0 -0.30570384759E+01  0.21704671044E+02  0.52702054397E+02  0.57078408939E+02  0.00000000000E+00 0.  1.
         12    1    6    6    0    0 -0.47031010640E+02 -0.30577052689E+01 -0.88423393366E+01  0.47952606689E+02  0.00000000000E+00 0. -1.
         -5    1    3    3    0  503  0.16699406978E+02  0.17285982159E+01 -0.77544522588E+02  0.79480193939E+02  0.47000000000E+01 0.  1.
         13    1    4    4    0    0 -0.26529169285E+02 -0.16564189517E+02  0.15688711712E+01  0.31315021221E+02  0.00000000000E+00 0. -1.
        -14    1    4    4    0    0  0.37241116051E+02  0.25070099984E+02  0.46873345294E+02  0.64903937761E+02  0.00000000000E+00 0.  1.
</event>
<event>
12    1  0.8407180E-002  0.2136649E+03  0.7818608E-02  0.1139023E+00
         21   -1    0    0  503  502  0.00000000000E+00  0.00000000000E+00  0.17120755886E+03  0.17120755886E+03  0.00000000000E+00 0.  1.
         21   -1    0    0  501  503 -0.00000000000E+00 -0.00000000000E+00 -0.29638235195E+03  0.29638235195E+03  0.00000000000E+00 0.  1.
          6    2    1    2  501    0  0.97417279852E+02  0.75280650752E+02 -0.13942202022E+03  0.25512976518E+03  0.17462930615E+03 0.  0.
         24    2    3    3    0    0  0.11171980484E+03  0.73600723206E+02 -0.16420046379E+03  0.22608762952E+03  0.79091356445E+02 0.  0.
         -6    2    1    2    0  502 -0.97417279852E+02 -0.75280650752E+02  0.14247227122E+02  0.21246014564E+03  0.17256600828E+03 0.  0.
        -24    2    5    5    0    0 -0.89209121870E+02 -0.62712830989E+02 -0.49730588519E+02  0.14657710651E+03  0.84383352163E+02 0.  0.
          5    1    3    3  501    0 -0.14302524986E+02  0.16799275454E+01  0.24778443573E+02  0.29042135655E+02  0.47000000000E+01 0. -1.
        -11    1    4    4    0    0  0.11083962813E+03  0.75052815329E+02 -0.11390407440E+03  0.17576258538E+03  0.00000000000E+00 0.  1.
         12    1    4    4    0    0  0.88017670445E+00 -0.14520921226E+01 -0.50296389386E+02  0.50325044142E+02  0.00000000000E+00 0. -1.
         -5    1    5    5    0  502 -0.82081579827E+01 -0.12567819763E+02  0.63977815641E+02  0.65883039132E+02  0.47000000000E+01 0.  1.
         11    1    6    6    0    0  0.22988085930E+01 -0.33362863216E+02  0.81130464282E+01  0.34412013677E+02  0.00000000000E+00 0. -1.
        -12    1    6    6    0    0 -0.91507930463E+02 -0.29349967773E+02 -0.57843634947E+02  0.11216509283E+03  0.00000000000E+00 0.  1.
</event>
<event>
12    1  0.8407180E-002  0.2111371E+03  0.7818608E-02  0.1140740E+00
         21   -1    0    0  503  502  0.00000000000E+00  0.00000000000E+00  0.79843545599E+02  0.79843545599E+02  0.00000000000E+00 0.  1.
         21   -1    0    0  501  503 -0.00000000000E+00 -0.00000000000E+00 -0.59565447920E+03  0.59565447920E+03  0.00000000000E+00 0.  1.
          6    2    1    2  501    0 -0.68489646955E+01  0.12349604945E+03 -0.17206465182E+03  0.27208709613E+03  0.17066622667E+03 0.  0.
         24    2    3    3    0    0 -0.61060473302E+02  0.68128869515E+02 -0.60712994739E+02  0.13634582085E+03  0.80834342156E+02 0.  0.
         -6    2    1    2    0  502  0.68489646955E+01 -0.12349604945E+03 -0.34374628178E+03  0.40341092867E+03  0.17111600914E+03 0.  0.
        -24    2    5    5    0    0 -0.23231625404E+02 -0.77451221497E+01 -0.89001883783E+02  0.12195059863E+03  0.79692646176E+02 0.  0.
          5    1    3    3  501    0  0.54211508607E+02  0.55367179939E+02 -0.11135165708E+03  0.13574127528E+03  0.47000000000E+01 0. -1.
        -13    1    4    4    0    0 -0.68449561878E+01  0.62579406265E+02 -0.13824991514E+02  0.64452819210E+02  0.00000000000E+00 0.  1.
         14    1    4    4    0    0 -0.54215517114E+02  0.55494632496E+01 -0.46888003226E+02  0.71893001640E+02  0.00000000000E+00 0. -1.
         -5    1    5    5    0  502  0.30080590100E+02 -0.11575092730E+03 -0.25474439800E+03  0.28146033003E+03  0.47000000000E+01 0.  1.
         11    1    6    6    0    0 -0.38475315750E+02  0.87599750774E+00 -0.95740615707E+02  0.10318615600E+03  0.00000000000E+00 0. -1.
        -12    1    6    6    0    0  0.15243690346E+02 -0.86211196574E+01  0.67387319246E+01  0.18764442637E+02  0.00000000000E+00 0.  1.
</event>
<event>
12    1  0.8407180E-002  0.1795556E+03  0.7818608E-02  0.1169412E+00
         21   -1    0    0  503  502  0.00000000000E+00  0.00000000000E+00  0.14412876733E+04  0.14412876733E+04  0.00000000000E+00 0. -1.
         21   -1    0    0  501  503 -0.00000000000E+00 -0.00000000000E+00 -0.26695916039E+02  0.26695916039E+02  0.00000000000E+00 0. -1.
          6    2    1    2  501    0  0.96322120151E+01  0.51289581094E+02  0.40004472064E+03  0.43849285205E+03  0.17180454638E+03 0.  0.
         24    2    3    3    0    0  0.29610765132E+02  0.61193942344E+02  0.40201485129E+03  0.41561905982E+03  0.80633530455E+02 0.  0.
         -6    2    1    2    0  502 -0.96322120151E+01 -0.51289581094E+02  0.10145470366E+04  0.10294907373E+04  0.16679954436E+03 0.  0.
        -24    2    5    5    0    0 -0.55012928902E+02  0.40780093781E+01  0.44787672570E+03  0.45829697784E+03  0.79996912267E+02 0.  0.
          5    1    3    3  501    0 -0.19978553116E+02 -0.99043612503E+01 -0.19701306551E+01  0.22873792235E+02  0.47000000000E+01 0. -1.
        -11    1    4    4    0    0  0.80603565844E+01 -0.65161923706E+00 -0.21764646502E+00  0.80895813169E+01  0.00000000000E+00 0.  1.
         12    1    4    4    0    0  0.21550408547E+02  0.61845561581E+02  0.40223249776E+03  0.40752947850E+03  0.00000000000E+00 0. -1.
         -5    1    5    5    0  502  0.45380716887E+02 -0.55367590472E+02  0.56667031095E+03  0.57119375946E+03  0.47000000000E+01 0.  1.
         11    1    6    6    0    0 -0.37488124866E+02 -0.32218058892E+02  0.15582634846E+03  0.16347848084E+03  0.00000000000E+00 0. -1.
        -12    1    6    6    0    0 -0.17524804036E+02  0.36296068271E+02  0.29205037724E+03  0.29481849700E+03  0.00000000000E+00 0.  1.
</event>
<event>
12    1  0.8407180E-002  0.2396223E+03  0.7818608E-02  0.1120427E+00
         21   -1    0    0  501  502  0.00000000000E+00  0.00000000000E+00  0.42013467794E+03  0.42013467794E+03  0.00000000000E+00 0. -1.
         21   -1    0    0  502  503 -0.00000000000E+00 -0.00000000000E+00 -0.15093894178E+03  0.15093894178E+03  0.00000000000E+00 0. -1.
         -6    2    1    2    0  503 -0.10037172590E+03 -0.12913337991E+03  0.42323843781E+02  0.24108922643E+03  0.17199649467E+03 0.  0.
        -24    2    3    3    0    0 -0.93140140697E+02 -0.31372258280E+02 -0.15582968157E+02  0.12713826506E+03  0.79132832301E+02 0.  0.
          6    2    1    2  501    0  0.10037172590E+03  0.12913337991E+03  0.22687189238E+03  0.32998439329E+03  0.17512547245E+03 0.  0.
         24    2    5    5    0    0  0.64161364990E+02  0.24395872791E+02  0.17976242092E+03  0.20947494165E+03  0.82785166769E+02 0.  0.
          5    1    5    5  501    0  0.36210360906E+02  0.10473750712E+03  0.47109471451E+02  0.12050945164E+03  0.47000000000E+01 0. -1.
        -11    1    6    6    0    0 -0.15770490917E+02 -0.29193620311E+01  0.76886809416E+01  0.17786142726E+02  0.00000000000E+00 0.  1.
         12    1    6    6    0    0  0.79931855907E+02  0.27315234822E+02  0.17207373998E+03  0.19168879893E+03  0.00000000000E+00 0. -1.
         -5    1    3    3    0  503 -0.72315851983E+01 -0.97761121631E+02  0.57906811938E+02  0.11395096136E+03  0.47000000000E+01 0.  1.
         11    1    4    4    0    0 -0.80940011940E+02 -0.47055365892E+02  0.10651904493E+02  0.94228212662E+02  0.00000000000E+00 0. -1.
        -12    1    4    4    0    0 -0.12200128757E+02  0.15683107612E+02 -0.26234872650E+02  0.32910052401E+02  0.00000000000E+00 0.  1.
</event>
<event>
12    1  0.8407180E-002  0.2479754E+03  0.7818608E-02  0.1114630E+00
         21   -1    0    0  503  502  0.00000000000E+00  0.00000000000E+00  0.24905405903E+03  0.24905405903E+03  0.00000000000E+00 0. -1.
         21   -1    0    0  501  503 -0.00000000000E+00 -0.00000000000E+00 -0.24680999589E+03  0.24680999589E+03  0.00000000000E+00 0.  1.
          6    2    1    2  501    0 -0.11038481781E+03 -0.14042314360E+03  0.72124662331E+01  0.24808028619E+03  0.17201262008E+03 0.  0.
         24    2    3    3    0    0 -0.10819916261E+03 -0.78108242098E+02 -0.45633364269E+02  0.16621029267E+03  0.87951697996E+02 0.  0.
         -6    2    1    2    0  502  0.11038481781E+03  0.14042314360E+03 -0.49684030993E+01  0.24778376873E+03  0.17166433454E+03 0.  0.
        -24    2    5    5    0    0  0.19096793459E+02  0.19273859908E+02  0.35982904827E+02  0.90590410247E+02  0.78585518977E+02 0.  0.
          5    1    3    3  501    0 -0.21856551924E+01 -0.62314901506E+02  0.52845830502E+02  0.81869993525E+02  0.47000000000E+01 0. -1.
        -13    1    4    4    0    0 -0.61258603675E+02  0.71883515894E+01 -0.25764391956E+02  0.66843794144E+02  0.00000000000E+00 0.  1.
         14    1    4    4    0    0 -0.46940558939E+02 -0.85296593687E+02 -0.19868972313E+02  0.99366498524E+02  0.00000000000E+00 0. -1.
         -5    1    5    5    0  502  0.91288024347E+02  0.12114928370E+03 -0.40951307926E+02  0.15719335848E+03  0.47000000000E+01 0.  1.
         11    1    6    6    0    0  0.21814462035E+02  0.41739614213E+00  0.57708204609E+02  0.61695071543E+02  0.00000000000E+00 0. -1.
        -12    1    6    6    0    0 -0.27176685759E+01  0.18856463765E+02 -0.21725299782E+02  0.28895338705E+02  0.00000000000E+00 0.  1.
</event>
<event>
12    1  0.8407180E-002  0.1827923E+03  0.7818608E-02  0.1165213E+00
         21   -1    0    0  503  502  0.00000000000E+00  0.00000000000E+00  0.18928333657E+03  0.18928333657E+03  0.00000000000E+00 0.  1.
         21   -1    0    0  501  503 -0.00000000000E+00 -0.00000000000E+00 -0.17912930274E+03  0.17912930274E+03  0.00000000000E+00 0.  1.
          6    2    1    2  501    0  0.12795871290E+02  0.57517738962E+02 -0.18583535935E+02  0.18337516075E+03  0.17265305429E+03 0.  0.
         24    2    3    3    0    0  0.31736893688E+02  0.99375272610E+02  0.57785814908E+01  0.13116004591E+03  0.79289913675E+02 0.  0.
         -6    2    1    2    0  502 -0.12795871290E+02 -0.57517738962E+02  0.28737569768E+02  0.18503747856E+03  0.17303466687E+03 0.  0.
        -24    2    5    5    0    0  0.20773513357E+02  0.26734992819E+02  0.32682247957E+02  0.94136010560E+02  0.81530119921E+02 0.  0.
          5    1    3    3  501    0 -0.18941022398E+02 -0.41857533649E+02 -0.24362117425E+02  0.52215114843E+02  0.47000000000E+01 0. -1.
        -13    1    4    4    0    0  0.12796580526E+02  0.56615669975E+02 -0.36124243638E+02  0.68367006211E+02  0.00000000000E+00 0.  1.
         14    1    4    4    0    0  0.18940313162E+02  0.42759602635E+02  0.41902825129E+02  0.62793039694E+02  0.00000000000E+00 0. -1.
         -5    1    5    5    0  502 -0.33569384647E+02 -0.84252731780E+02 -0.39446781893E+01  0.90901467997E+02  0.47000000000E+01 0.  1.
         13    1    6    6    0    0  0.27005709216E+02  0.15944966244E+02  0.57989920370E+02  0.65927089601E+02  0.00000000000E+00 0. -1.
        -14    1    6    6    0    0 -0.62321958587E+01  0.10790026575E+02 -0.25307672412E+02  0.28208920958E+02  0.00000000000E+00 0.  1.
</event>
<event>
12    1  0.8407180E-002  0.2154065E+03  0.7818608E-02  0.1137446E+00
         21   -1    0    0  501  502  0.00000000000E+00  0.00000000000E+00  0.15932593236E+03  0.15932593236E+03  0.00000000000E+00 0.  1.
         21   -1    0    0  502  503 -0.00000000000E+00 -0.00000000000E+00 -0.41309962140E+03  0.41309962140E+03  0.00000000000E+00 0.  1.
         -6    2    1    2    0  503  0.63178046354E+02  0.11241381928E+03 -0.28265545353E+03  0.35509141060E+03  0.17195194726E+03 0.  0.
        -24    2    3    3    0    0 -0.26778877083E+02  0.25582251275E+02 -0.12041155480E+03  0.15020817079E+03  0.81804597713E+02 0.  0.
          6    2    1    2  501    0 -0.63178046354E+02 -0.11241381928E+03  0.28881764480E+02  0.21733414316E+03  0.17254460629E+03 0.  0.
         24    2    5    5    0    0  0.32379287838E+02 -0.73653775174E+02  0.10932110584E+02  0.11255902583E+03  0.77953360260E+02 0.  0.
          5    1    5    5  501    0 -0.95557334191E+02 -0.38760044106E+02  0.17949653896E+02  0.10477511733E+03  0.47000000000E+01 0. -1.
        -13    1    6    6    0    0 -0.15498362455E+02 -0.60387525538E+02  0.58940795602E+01  0.62622620938E+02  0.00000000000E+00 0.  1.
         14    1    6    6    0    0  0.47877650293E+02 -0.13266249636E+02  0.50380310241E+01  0.49936404892E+02  0.00000000000E+00 0. -1.
         -5    1    3    3    0  503  0.89956923437E+02  0.86831568005E+02 -0.16224389873E+03  0.20488323980E+03  0.47000000000E+01 0.  1.
         13    1    4    4    0    0 -0.38777173265E+02  0.12957965004E+02 -0.15285029497E+02  0.43648713042E+02  0.00000000000E+00 0. -1.
        -14    1    4    4    0    0  0.11998296182E+02  0.12624286271E+02 -0.10512652530E+03  0.10655945775E+03  0.00000000000E+00 0.  1.
</event>
<event>
12    1  0.8407180E-002  0.1834491E+03  0.7818608E-02  0.1164869E+00
         21   -1    0    0  501  502  0.00000000000E+00  0.00000000000E+00  0.51658311624E+03  0.51658311624E+03  0.00000000000E+00 0.  1.
         21   -1    0    0  502  503 -0.00000000000E+00 -0.00000000000E+00 -0.95945601625E+02  0.95945601625E+02  0.00000000000E+00 0.  1.
         -6    2    1    2    0  503  0.34686450035E+02 -0.51814959725E+02  0.34683517569E+02  0.18519504627E+03  0.17089856321E+03 0.  0.
        -24    2    3    3    0    0  0.76661886622E+02 -0.21840440978E+02  0.61130673731E+02  0.12704050114E+03  0.77770688158E+02 0.  0.
          6    2    1    2  501    0 -0.34686450035E+02  0.51814959725E+02  0.38595399705E+03  0.42733367159E+03  0.17252721285E+03 0.  0.
         24    2    5    5    0    0 -0.27990573351E+02  0.66508580941E+02  0.39397733572E+03  0.40870033500E+03  0.81307805510E+02 0.  0.
          5    1    5    5  501    0 -0.66958766838E+01 -0.14693621217E+02 -0.80233386704E+01  0.18633336589E+02  0.47000000000E+01 0. -1.
        -13    1    6    6    0    0  0.19307130354E+02  0.46010714618E+02  0.12075984342E+03  0.13066250772E+03  0.00000000000E+00 0.  1.
         14    1    6    6    0    0 -0.47297703706E+02  0.20497866323E+02  0.27321749230E+03  0.27803782728E+03  0.00000000000E+00 0. -1.
         -5    1    3    3    0  503 -0.41975436586E+02 -0.29974518747E+02 -0.26447156162E+02  0.58154545134E+02  0.47000000000E+01 0.  1.
         11    1    4    4    0    0  0.47188819753E+02  0.11072349068E+02 -0.36730709702E+01  0.48609392857E+02  0.00000000000E+00 0. -1.
        -12    1    4    4    0    0  0.29473066869E+02 -0.32912790046E+02  0.64803744702E+02  0.78431108284E+02  0.00000000000E+00 0.  1.
</event>
<event>
12    1  0.8407180E-002  0.1918898E+03  0.7818608E-02  0.1156802E+00
         21   -1    0    0  503  502  0.00000000000E+00  0.00000000000E+00  0.17502796794E+04  0.17502796794E+04  0.00000000000E+00 0.  1.
         21   -1    0    0  501  503 -0.00000000000E+00 -0.00000000000E+00 -0.10131789929E+03  0.10131789929E+03  0.00000000000E+00 0. -1.
          6    2    1    2  501    0 -0.53572703908E+02 -0.65843367991E+02  0.36646147052E+00  0.19189014696E+03  0.17209390023E+03 0.  0.
         24    2    3    3    0    0 -0.10258047939E+03 -0.45977437148E+02  0.10077952846E+02  0.13791959638E+03  0.79268975357E+02 0.  0.
         -6    2    1    2    0  502  0.53572703908E+02  0.65843367991E+02  0.16485953187E+04  0.16597074317E+04  0.17192105916E+03 0.  0.
        -24    2    5    5    0    0  0.80728219766E+01  0.92300705788E+01  0.13478122651E+04  0.13502436374E+04  0.80060063380E+02 0.  0.
          5    1    3    3  501    0  0.49007775478E+02 -0.19865930843E+02 -0.97114913758E+01  0.53970550583E+02  0.47000000000E+01 0. -1.
        -13    1    4    4    0    0 -0.11598271829E+03 -0.41664413764E+02  0.65925999149E+01  0.12341546374E+03  0.00000000000E+00 0.  1.
         14    1    4    4    0    0  0.13402238909E+02 -0.43130233842E+01  0.34853529313E+01  0.14504132636E+02  0.00000000000E+00 0. -1.
         -5    1    5    5    0  502  0.45499881931E+02  0.56613297412E+02  0.30078305359E+03  0.30946379438E+03  0.47000000000E+01 0.  1.
         13    1    6    6    0    0  0.11475389468E+02  0.33520996706E+02  0.29131771312E+03  0.29346439607E+03  0.00000000000E+00 0. -1.
        -14    1    6    6    0    0 -0.34025674918E+01 -0.24290926128E+02  0.10564945519E+04  0.10567792413E+04  0.00000000000E+00 0.  1.
</event>
<event>
12    1  0.8407180E-002  0.1970591E+03  0.7818608E-02  0.1153104E+00
         21   -1    0    0  503  502  0.00000000000E+00  0.00000000000E+00  0.10478230301E+03  0.10478230301E+03  0.00000000000E+00 0. -1.
         21   -1    0    0  501  503 -0.00000000000E+00 -0.00000000000E+00 -0.51172410250E+03  0.51172410250E+03  0.00000000000E+00 0. -1.
          6    2    1    2  501    0 -0.74921819622E+02 -0.49123944229E+02 -0.37099553458E+03  0.42008328904E+03  0.17551593118E+03 0.  0.
         24    2    3    3    0    0 -0.27853907571E+02 -0.97565039522E+02 -0.22836360679E+03  0.26219761874E+03  0.79390662332E+02 0.  0.
         -6    2    1    2    0  502  0.74921819622E+02  0.49123944229E+02 -0.35946264901E+02  0.19642311647E+03  0.17106567678E+03 0.  0.
        -24    2    5    5    0    0  0.90250783401E+02  0.73929467717E+02 -0.64575244169E+02  0.15528919397E+03  0.79586440454E+02 0.  0.
          5    1    3    3  501    0 -0.47067912050E+02  0.48441095293E+02 -0.14263192779E+03  0.15788567029E+03  0.47000000000E+01 0. -1.
        -11    1    4    4    0    0 -0.31972848997E+02 -0.67278103031E+02 -0.74586796754E+02  0.10541250623E+03  0.00000000000E+00 0.  1.
         12    1    4    4    0    0  0.41189414254E+01 -0.30286936491E+02 -0.15377681003E+03  0.15678511251E+03  0.00000000000E+00 0. -1.
         -5    1    5    5    0  502 -0.15328963780E+02 -0.24805523488E+02  0.28628979267E+02  0.41133922496E+02  0.47000000000E+01 0.  1.
         13    1    6    6    0    0 -0.11391576268E+02  0.25672116325E+02 -0.18912291949E+02  0.33860011123E+02  0.00000000000E+00 0. -1.
        -14    1    6    6    0    0  0.10164235967E+03  0.48257351392E+02 -0.45662952219E+02  0.12142918285E+03  0.00000000000E+00 0.  1.
</event>
<event>
12    1  0.8407180E-002  0.2057342E+03  0.7818608E-02  0.1145171E+00
         21   -1    0    0  503  502  0.00000000000E+00  0.00000000000E+00  0.11091074646E+03  0.11091074646E+03  0.00000000000E+00 0.  1.
         21   -1    0    0  501  503 -0.00000000000E+00 -0.00000000000E+00 -0.70177495624E+03  0.70177495624E+03  0.00000000000E+00 0.  1.
          6    2    1    2  501    0 -0.94852108280E+02  0.59407062694E+02 -0.57094277274E+03  0.60687906239E+03  0.17262799621E+03 0.  0.
         24    2    3    3    0    0 -0.34606829601E+01 -0.40218351152E+00 -0.34276016498E+03  0.35385943659E+03  0.87862575020E+02 0.  0.
         -6    2    1    2    0  502  0.94852108280E+02 -0.59407062694E+02 -0.19921437037E+02  0.20580664030E+03  0.17156161574E+03 0.  0.
        -24    2    5    5    0    0  0.53613704975E+01 -0.55398125377E+02 -0.52079767510E+02  0.11051282127E+03  0.80019278254E+02 0.  0.
          5    1    3    3  501    0 -0.91391425320E+02  0.59809246206E+02 -0.22818260776E+03  0.25301962580E+03  0.47000000000E+01 0. -1.
        -13    1    4    4    0    0 -0.33208748061E+02 -0.30053733023E+02 -0.20513450583E+03  0.20996717196E+03  0.00000000000E+00 0.  1.
         14    1    4    4    0    0  0.29748065101E+02  0.29651549511E+02 -0.13762565915E+03  0.14389226463E+03  0.00000000000E+00 0. -1.
         -5    1    5    5    0  502  0.89490737783E+02 -0.40089373171E+01  0.32158330473E+02  0.95293819034E+02  0.47000000000E+01 0.  1.
         13    1    6    6    0    0  0.17284473591E+02  0.16513112666E+02 -0.18652170076E+02  0.30320609588E+02  0.00000000000E+00 0. -1.
        -14    1    6    6    0    0 -0.11923103093E+02 -0.71911238044E+02 -0.33427597434E+02  0.80192211682E+02  0.00000000000E+00 0.  1.
</event>
<event>
12    1  0.8407180E-002  0.2388206E+03  0.7818608E-02  0.1120684E+00
         21   -1    0    0  501  502  0.00000000000E+00  0.00000000000E+00  0.74508917420E+03  0.74508917420E+03  0.00000000000E+00 0.  1.
         21   -1    0    0  502  503 -0.00000000000E+00 -0.00000000000E+00 -0.12892385264E+03  0.12892385264E+03  0.00000000000E+00 0.  1.
         -6    2    1    2    0  503 -0.15889512940E+03 -0.47316847506E+02  0.28788553632E+02  0.23994147295E+03  0.17104555947E+03 0.  0.
        -24    2    3    3    0    0 -0.81163723443E+02  0.27070804162E+02  0.53516775339E+02  0.12944591131E+03  0.81066764279E+02 0.  0.
          6    2    1    2  501    0  0.15889512940E+03  0.47316847506E+02  0.58737676793E+03  0.63407155389E+03  0.17189741634E+03 0.  0.
         24    2    5    5    0    0  0.17098429902E+03  0.75598261896E+01  0.53233786453E+03  0.56494746508E+03  0.80555911077E+02 0.  0.
          5    1    5    5  501    0 -0.12089169617E+02  0.39757021317E+02  0.55038903393E+02  0.69124088802E+02  0.47000000000E+01 0. -1.
        -13    1    6    6    0    0  0.17093255965E+03 -0.35551632928E+01  0.52360825219E+03  0.55081410739E+03  0.00000000000E+00 0.  1.
         14    1    6    6    0    0  0.51739362138E-01  0.11114989482E+02  0.87296123418E+01  0.14133357697E+02  0.00000000000E+00 0. -1.
         -5    1    3    3    0  503 -0.77731405957E+02 -0.74387651669E+02 -0.24728221706E+02  0.11049556164E+03  0.47000000000E+01 0.  1.
         13    1    4    4    0    0  0.70918224431E+01  0.25773865659E+02  0.25233013709E+02  0.36759911281E+02  0.00000000000E+00 0. -1.
        -14    1    4    4    0    0 -0.88255545886E+02  0.12969385034E+01  0.28283761630E+02  0.92686000027E+02  0.00000000000E+00 0.  1.
</event>
<event>
12    1  0.8407180E-002  0.1723728E+03  0.7818608E-02  0.1177981E+00
         21   -1    0    0  501  502  0.00000000000E+00  0.00000000000E+00  0.28544558784E+03  0.28544558784E+03  0.00000000000E+00 0. -1.
         21   -1    0    0  502  503 -0.00000000000E+00 -0.00000000000E+00 -0.99224200846E+02  0.99224200846E+02  0.00000000000E+00 0. -1.
         -6    2    1    2    0  503  0.11201705726E+02 -0.21679481914E+02  0.10931863613E+03  0.19592014057E+03  0.16074407961E+03 0.  0.
        -24    2    3    3    0    0 -0.50988479300E+02 -0.12652738991E+02  0.84136028450E+02  0.12805737515E+03  0.80993229484E+02 0.  0.
          6    2    1    2  501    0 -0.11201705726E+02  0.21679481914E+02  0.76902750869E+02  0.18874964811E+03  0.17063680267E+03 0.  0.
         24    2    5    5    0    0 -0.13915432626E+02 -0.79459467821E+01  0.11474339325E+03  0.14038608171E+03  0.79280693161E+02 0.  0.
          5    1    5    5  501    0  0.27137268993E+01  0.29625428696E+02 -0.37840642382E+02  0.48363566401E+02  0.47000000000E+01 0. -1.
        -11    1    6    6    0    0 -0.73430109904E+01  0.10673872424E+02  0.11939824199E+03  0.12009909056E+03  0.00000000000E+00 0.  1.
         12    1    6    6    0    0 -0.65724216352E+01 -0.18619819206E+02 -0.46548487344E+01  0.20286991156E+02  0.00000000000E+00 0. -1.
         -5    1    3    3    0  503  0.62190185026E+02 -0.90267429230E+01  0.25182607676E+02  0.67862765422E+02  0.47000000000E+01 0.  1.
         13    1    4    4    0    0 -0.17727019660E+02 -0.23591945284E+02  0.88013771868E+02  0.92829150307E+02  0.00000000000E+00 0. -1.
        -14    1    4    4    0    0 -0.33261459640E+02  0.10939206294E+02 -0.38777434178E+01  0.35228224845E+02  0.00000000000E+00 0.  1.
</event>
<event>
12    1  0.8407180E-002  0.1937902E+03  0.7818608E-02  0.1155293E+00
         21   -1    0    0  501  502  0.00000000000E+00  0.00000000000E+00  0.20617729619E+03  0.20617729619E+03  0.00000000000E+00 0. -1.
         21   -1    0    0  502  503 -0.00000000000E+00 -0.00000000000E+00 -0.31810494465E+03  0.31810494465E+03  0.00000000000E+00 0. -1.
         -6    2    1    2    0  503  0.57441097521E+02 -0.65795491801E+02 -0.22797146637E+03  0.29920836724E+03  0.17299170825E+03 0.  0.
        -24    2    3    3    0    0  0.31557598625E+02 -0.19225772100E+01 -0.21150069032E+03  0.22819371243E+03  0.79625687154E+02 0.  0.
          6    2    1    2  501    0 -0.57441097521E+02  0.65795491801E+02  0.11604381791E+03  0.22507387360E+03  0.17194055507E+03 0.  0.
         24    2    5    5    0    0 -0.73213176143E+02 -0.17343867907E+02  0.67567459970E+02  0.12743700109E+03  0.77549008271E+02 0.  0.
          5    1    5    5  501    0  0.15772078622E+02  0.83139359708E+02  0.48476357936E+02  0.97636872520E+02  0.47000000000E+01 0. -1.
        -13    1    6    6    0    0  0.50358147562E+01 -0.67414163235E+01  0.44334650168E+02  0.45126126909E+02  0.00000000000E+00 0.  1.
         14    1    6    6    0    0 -0.78248990899E+02 -0.10602451583E+02  0.23232809803E+02  0.82310874176E+02  0.00000000000E+00 0. -1.
         -5    1    3    3    0  503  0.25883498897E+02 -0.63872914591E+02 -0.16470776046E+02  0.71014654805E+02  0.47000000000E+01 0.  1.
         13    1    4    4    0    0  0.19559346414E+02 -0.30739936053E+02 -0.18071480116E+03  0.18435116234E+03  0.00000000000E+00 0. -1.
        -14    1    4    4    0    0  0.11998252211E+02  0.28817358843E+02 -0.30785889162E+02  0.43842550088E+02  0.00000000000E+00 0.  1.
</event>
<event>
12    1  0.8407180E-002  0.1836492E+03  0.7818608E-02  0.1164483E+00
         21   -1    0    0  501  502  0.00000000000E+00  0.00000000000E+00  0.33744706034E+03  0.33744706034E+03  0.00000000000E+00 0. -1.
         21   -1    0    0  502  503 -0.00000000000E+00 -0.00000000000E+00 -0.23512694702E+03  0.23512694702E+03  0.00000000000E+00 0. -1.
         -6    2    1    2    0  503  0.24131008791E+02  0.55889509503E+02 -0.16626027853E+03  0.24720890509E+03  0.17252193970E+03 0.  0.
        -24    2    3    3    0    0 -0.21371299154E+02 -0.14267898038E+02 -0.13815791948E+03  0.15886664767E+03  0.74099228636E+02 0.  0.
          6    2    1    2  501    0 -0.24131008791E+02 -0.55889509503E+02  0.26858039185E+03  0.32536510227E+03  0.17326592288E+03 0.  0.
         24    2    5    5    0    0 -0.41279813900E+02  0.30002536659E+02  0.10672084928E+03  0.14126695825E+03  0.77219418417E+02 0.  0.
          5    1    5    5  501    0  0.17148805109E+02 -0.85892046162E+02  0.16185954258E+03  0.18409814402E+03  0.47000000000E+01 0. -1.
        -11    1    6    6    0    0 -0.16792129252E+02  0.33405709772E+01  0.10351834525E+03  0.10492465307E+03  0.00000000000E+00 0.  1.
         12    1    6    6    0    0 -0.24487684647E+02  0.26661965682E+02  0.32025040279E+01  0.36342305176E+02  0.00000000000E+00 0. -1.
         -5    1    3    3    0  503  0.45502307945E+02  0.70157407541E+02 -0.28102359055E+02  0.88342257418E+02  0.47000000000E+01 0.  1.
         13    1    4    4    0    0 -0.23170523650E+02  0.24480741182E+02 -0.95178090987E+02  0.10097053461E+03  0.00000000000E+00 0. -1.
        -14    1    4    4    0    0  0.17992244957E+01 -0.38748639221E+02 -0.42979828492E+02  0.57896113060E+02  0.00000000000E+00 0.  1.
</event>
<event>
12    1  0.8407180E-002  0.1841317E+03  0.7818608E-02  0.1165630E+00
         21   -1    0    0  503  502  0.00000000000E+00  0.00000000000E+00  0.60483921054E+02  0.60483921054E+02  0.00000000000E+00 0.  1.
         21   -1    0    0  501  503 -0.00000000000E+00 -0.00000000000E+00 -0.56732149073E+03  0.56732149073E+03  0.00000000000E+00 0.  1.
          6    2    1    2  501    0 -0.71248503867E+01  0.53202572160E+02 -0.18743282170E+03  0.26274616373E+03  0.17613405896E+03 0.  0.
         24    2    3    3    0    0 -0.14306779962E+01  0.62238660374E+02 -0.34261257901E+02  0.10913075940E+03  0.82825063661E+02 0.  0.
         -6    2    1    2    0  502  0.71248503867E+01 -0.53202572160E+02 -0.31940474798E+03  0.36505924805E+03  0.16842679235E+03 0.  0.
        -24    2    5    5    0    0 -0.10103357988E+02  0.35080581909E+02 -0.12077382515E+03  0.14696050904E+03  0.75354822716E+02 0.  0.
          5    1    3    3  501    0 -0.56941723905E+01 -0.90360882145E+01 -0.15317156380E+03  0.15361540432E+03  0.47000000000E+01 0. -1.
        -13    1    4    4    0    0 -0.36924936375E+02  0.14989715502E+02 -0.30000587170E+02  0.49881637179E+02  0.00000000000E+00 0.  1.
         14    1    4    4    0    0  0.35494258379E+02  0.47248944872E+02 -0.42606707316E+01  0.59249122226E+02  0.00000000000E+00 0. -1.
         -5    1    5    5    0  502  0.17228208375E+02 -0.88283154068E+02 -0.19863092282E+03  0.21809873901E+03  0.47000000000E+01 0.  1.
         13    1    6    6    0    0 -0.34118713128E+02 -0.44521025822E+01 -0.71668073047E+02  0.79499814447E+02  0.00000000000E+00 0. -1.
        -14    1    6    6    0    0  0.24015355140E+02  0.39532684491E+02 -0.49105752106E+02  0.67460694596E+02  0.00000000000E+00 0.  1.
</event>
<event>
12    1  0.8407180E-002  0.2662727E+03  0.7818608E-02  0.1103492E+00
         21   -1    0    0  501  502  0.00000000000E+00  0.00000000000E+00  0.98595653096E+02  0.98595653096E+02  0.00000000000E+00 0.  1.
         21   -1    0    0  502  503 -0.00000000000E+00 -0.00000000000E+00 -0.81453733390E+03  0.81453733390E+03  0.00000000000E+00 0. -1.
         -6    2    1    2    0  503 -0.63131866638E+02 -0.19194144848E+03 -0.51539573933E+03  0.58011541813E+03  0.17341850539E+03 0.  0.
        -24    2    3    3    0    0 -0.35303259862E+02 -0.17535061261E+02 -0.15653197211E+03  0.18011877731E+03  0.79916938841E+02 0.  0.
          6    2    1    2  501    0  0.63131866638E+02  0.19194144848E+03 -0.20054594148E+03  0.33301756886E+03  0.17278563105E+03 0.  0.
         24    2    5    5    0    0  0.10912191380E+03  0.14899792635E+03 -0.13628207459E+03  0.24295556179E+03  0.79665720490E+02 0.  0.
          5    1    5    5  501    0 -0.45990047161E+02  0.42943522123E+02 -0.64263866889E+02  0.90062007072E+02  0.47000000000E+01 0. -1.
        -11    1    6    6    0    0  0.94988710557E+02  0.72847186322E+02 -0.10567149223E+03  0.15967476933E+03  0.00000000000E+00 0.  1.
         12    1    6    6    0    0  0.14133203242E+02  0.76150740033E+02 -0.30610582356E+02  0.83280792465E+02  0.00000000000E+00 0. -1.
         -5    1    3    3    0  503 -0.27828606776E+02 -0.17440638722E+03 -0.35886376721E+03  0.39999664083E+03  0.47000000000E+01 0.  1.
         13    1    4    4    0    0  0.23943513746E+02 -0.49906716616E+01 -0.72675140390E+02  0.76680340928E+02  0.00000000000E+00 0. -1.
        -14    1    4    4    0    0 -0.59246773608E+02 -0.12544389599E+02 -0.83856831725E+02  0.10343843638E+03  0.00000000000E+00 0.  1.
</event>
<event>
12    1  0.8407180E-002  0.2091761E+03  0.7818608E-02  0.1142272E+00
         21   -1    0    0  501  502  0.00000000000E+00  0.00000000000E+00  0.33654778596E+03  0.33654778596E+03  0.00000000000E+00 0. -1.
         21   -1    0    0  502  503 -0.00000000000E+00 -0.00000000000E+00 -0.13202829798E+03  0.13202829798E+03  0.00000000000E+00 0.  1.
         -6    2    1    2    0  503  0.10938696939E+03 -0.42343983593E+02  0.72099610809E+02  0.22100860719E+03  0.17288125565E+03 0.  0.
        -24    2    3    3    0    0  0.44343537980E+02  0.57703311176E+01  0.99424508682E+02  0.13548448607E+03  0.80443563811E+02 0.  0.
          6    2    1    2  501    0 -0.10938696939E+03  0.42343983593E+02  0.13241987717E+03  0.24756747674E+03  0.17319384993E+03 0.  0.
         24    2    5    5    0    0 -0.74442775984E+02  0.66549189300E+02  0.22847061359E+02  0.12994400714E+03  0.79955833353E+02 0.  0.
          5    1    5    5  501    0 -0.34944193401E+02 -0.24205205707E+02  0.10957281581E+03  0.11762346960E+03  0.47000000000E+01 0. -1.
        -13    1    6    6    0    0 -0.28130163969E+02 -0.92609923767E+01 -0.15216432406E+02  0.33295824361E+02  0.00000000000E+00 0.  1.
         14    1    6    6    0    0 -0.46312612015E+02  0.75810181676E+02  0.38063493766E+02  0.96648182782E+02  0.00000000000E+00 0. -1.
         -5    1    3    3    0  503  0.65043431406E+02 -0.48114314711E+02 -0.27324897873E+02  0.85524121117E+02  0.47000000000E+01 0.  1.
         13    1    4    4    0    0  0.60639397826E+02  0.19945521449E+02  0.93275589741E+02  0.11302785513E+03  0.00000000000E+00 0. -1.
        -14    1    4    4    0    0 -0.16295859847E+02 -0.14175190331E+02  0.61489189402E+01  0.22456630941E+02  0.00000000000E+00 0.  1.
</event>
<event>
12    1  0.8407180E-002  0.1857726E+03  0.7818608E-02  0.1162428E+00
         21   -1    0    0  501  502  0.00000000000E+00  0.00000000000E+00  0.38082957595E+02  0.38082957595E+02  0.00000000000E+00 0. -1.
         21   -1    0    0  502  503 -0.00000000000E+00 -0.00000000000E+00 -0.10579826132E+04  0.10579826132E+04  0.00000000000E+00 0. -1.
         -6    2    1    2    0  503 -0.34048116316E+02  0.60907581896E+02 -0.71841810200E+03  0.74194331083E+03  0.17171575188E+03 0.  0.
        -24    2    3    3    0    0  0.34677024056E+02  0.30314347746E+02 -0.23468723941E+03  0.25237541123E+03  0.80584068987E+02 0.  0.
          6    2    1    2  501    0  0.34048116316E+02 -0.60907581896E+02 -0.30148155362E+03  0.35412225998E+03  0.17216980015E+03 0.  0.
         24    2    5    5    0    0  0.29801572593E+02 -0.12994232293E+02 -0.29241295682E+03  0.30494857137E+03  0.80195449143E+02 0.  0.
          5    1    5    5  501    0  0.42465437222E+01 -0.47913349602E+02 -0.90685967994E+01  0.49173688611E+02  0.47000000000E+01 0. -1.
        -13    1    6    6    0    0  0.41066550878E+02  0.22024426996E+02 -0.20268076243E+03  0.20796881604E+03  0.00000000000E+00 0.  1.
         14    1    6    6    0    0 -0.11264978284E+02 -0.35018659290E+02 -0.89732194385E+02  0.96979755327E+02  0.00000000000E+00 0. -1.
         -5    1    3    3    0  503 -0.68725140371E+02  0.30593234150E+02 -0.48373086259E+03  0.48956789959E+03  0.47000000000E+01 0.  1.
         11    1    4    4    0    0  0.11034754713E+02  0.18123960378E+01 -0.20393119032E+03  0.20423756015E+03  0.00000000000E+00 0. -1.
        -12    1    4    4    0    0  0.23642269343E+02  0.28501951708E+02 -0.30756049093E+02  0.48137851081E+02  0.00000000000E+00 0.  1.
</event>
<event>
12    1  0.8407180E-002  0.1762863E+03  0.7818608E-02  0.1171491E+00
         21   -1    0    0  501  502  0.00000000000E+00  0.00000000000E+00  0.62374177526E+02  0.62374177526E+02  0.00000000000E+00 0. -1.
         21   -1    0    0  502  503 -0.00000000000E+00 -0.00000000000E+00 -0.88654680453E+03  0.88654680453E+03  0.00000000000E+00 0. -1.
         -6    2    1    2    0  503 -0.22047948977E+02  0.28107517340E+02 -0.72618078343E+03  0.74722995998E+03  0.17244691442E+03 0.  0.
        -24    2    3    3    0    0 -0.17501682980E+02  0.38962487875E+02 -0.18479642087E+03  0.20569730451E+03  0.79607032032E+02 0.  0.
          6    2    1    2  501    0  0.22047948977E+02 -0.28107517340E+02 -0.97991843578E+02  0.20169102207E+03  0.17262885736E+03 0.  0.
         24    2    5    5    0    0  0.66079231433E+02  0.25807631015E+02 -0.59930294397E+02  0.12221543725E+03  0.79451080989E+02 0.  0.
          5    1    5    5  501    0 -0.44031282456E+02 -0.53915148355E+02 -0.38061549181E+02  0.79475584823E+02  0.47000000000E+01 0. -1.
        -11    1    6    6    0    0  0.16600501755E+02 -0.18230741298E+02 -0.49310260767E+02  0.55131101964E+02  0.00000000000E+00 0.  1.
         12    1    6    6    0    0  0.49478729678E+02  0.44038372313E+02 -0.10620033629E+02  0.67084335286E+02  0.00000000000E+00 0. -1.
         -5    1    3    3    0  503 -0.45462659974E+01 -0.10854970535E+02 -0.54138436256E+03  0.54153265547E+03  0.47000000000E+01 0.  1.
         11    1    4    4    0    0  0.49146051521E+01 -0.14694850750E+02 -0.10934317339E+03  0.11043559911E+03  0.00000000000E+00 0. -1.
        -12    1    4    4    0    0 -0.22416288132E+02  0.53657338626E+02 -0.75453247473E+02  0.95261705403E+02  0.00000000000E+00 0.  1.
</event>
<event>
12    1  0.8407180E-002  0.2541691E+03  0.7818608E-02  0.1111021E+00
         21   -1    0    0  503  502  0.00000000000E+00  0.00000000000E+00  0.79770335053E+03  0.79770335053E+03  0.00000000000E+00 0.  1.
         21   -1    0    0  501  503 -0.00000000000E+00 -0.00000000000E+00 -0.90257833515E+02  0.90257833515E+02  0.00000000000E+00 0. -1.
          6    2    1    2  501    0 -0.49842096711E+01  0.18497397234E+03  0.20772170786E+03  0.32825329596E+03  0.17424610642E+03 0.  0.
         24    2    3    3    0    0  0.60370572507E+02  0.14797298792E+03  0.14912116573E+03  0.23287806888E+03  0.80339664668E+02 0.  0.
         -6    2    1    2    0  502  0.49842096711E+01 -0.18497397234E+03  0.49972380916E+03  0.55970788809E+03  0.17119819437E+03 0.  0.
        -24    2    5    5    0    0 -0.42575358503E+02 -0.72888170000E+02  0.15613995219E+03  0.19515734786E+03  0.81125577196E+02 0.  0.
          5    1    3    3  501    0 -0.65354782178E+02  0.37000984422E+02  0.58600542127E+02  0.95375227074E+02  0.47000000000E+01 0. -1.
        -11    1    4    4    0    0  0.78136668203E+01  0.42708012617E+02  0.92762483807E+02  0.10242024279E+03  0.00000000000E+00 0.  1.
         12    1    4    4    0    0  0.52556905687E+02  0.10526497531E+03  0.56358681924E+02  0.13045782610E+03  0.00000000000E+00 0. -1.
         -5    1    5    5    0  502  0.47559568174E+02 -0.11208580234E+03  0.34358385697E+03  0.36455054023E+03  0.47000000000E+01 0.  1.
         13    1    6    6    0    0 -0.65524042418E+02 -0.52044423107E+02  0.94938043482E+02  0.12655138961E+03  0.00000000000E+00 0. -1.
        -14    1    6    6    0    0  0.22948683915E+02 -0.20843746893E+02  0.61201908706E+02  0.68605958248E+02  0.00000000000E+00 0.  1.
</event>
<event>
12    1  0.8407180E-002  0.1949298E+03  0.7818608E-02  0.1154493E+00
         21   -1    0    0  501  502  0.00000000000E+00  0.00000000000E+00  0.46098028209E+02  0.46098028209E+02  0.00000000000E+00 0.  1.
         21   -1    0    0  502  503 -0.00000000000E+00 -0.00000000000E+00 -0.15589284529E+04  0.15589284529E+04  0.00000000000E+00 0.  1.
         -6    2    1    2    0  503 -0.57373937116E+02  0.67678136365E+02 -0.13083477680E+04  0.13225184352E+04  0.17149061373E+03 0.  0.
        -24    2    3    3    0    0 -0.73847975784E+02 -0.78402218007E+01 -0.60304897665E+03  0.61298133860E+03  0.81012718894E+02 0.  0.
          6    2    1    2  501    0  0.57373937116E+02 -0.67678136365E+02 -0.20448265667E+03  0.28250804589E+03  0.17356710608E+03 0.  0.
         24    2    5    5    0    0  0.32141569498E+02 -0.10199057098E+03 -0.19777991086E+03  0.23913717610E+03  0.81452678258E+02 0.  0.
          5    1    5    5  501    0  0.25232367617E+02  0.34312434616E+02 -0.67027458063E+01  0.43370869788E+02  0.47000000000E+01 0. -1.
        -13    1    6    6    0    0  0.25241620022E+01 -0.73091953759E+02 -0.17963719717E+03  0.19395444750E+03  0.00000000000E+00 0.  1.
         14    1    6    6    0    0  0.29617407496E+02 -0.28898617221E+02 -0.18142713696E+02  0.45182728607E+02  0.00000000000E+00 0. -1.
         -5    1    3    3    0  503  0.16474038668E+02  0.75518358165E+02 -0.70529879134E+03  0.70953709659E+03  0.47000000000E+01 0.  1.
         11    1    4    4    0    0 -0.74321827453E+01  0.14098628921E+02 -0.19179421432E+02  0.24937098554E+02  0.00000000000E+00 0. -1.
        -12    1    4    4    0    0 -0.66415793038E+02 -0.21938850722E+02 -0.58386955522E+03  0.58804424005E+03  0.00000000000E+00 0.  1.
</event>
<event>
12    1  0.8407180E-002  0.2032799E+03  0.7818608E-02  0.1147318E+00
         21   -1    0    0  501  502  0.00000000000E+00  0.00000000000E+00  0.10021248337E+03  0.10021248337E+03  0.00000000000E+00 0.  1.
         21   -1    0    0  502  503 -0.00000000000E+00 -0.00000000000E+00 -0.41938912842E+03  0.41938912842E+03  0.00000000000E+00 0.  1.
         -6    2    1    2    0  503  0.60156380573E+02  0.86482165579E+02 -0.19938706635E+03  0.28365189773E+03  0.17206173826E+03 0.  0.
        -24    2    3    3    0    0  0.33716491236E+02  0.12043419046E+02 -0.73404164894E+01  0.75940077038E+02  0.66567017830E+02 0.  0.
          6    2    1    2  501    0 -0.60156380573E+02 -0.86482165579E+02 -0.11978957870E+03  0.23594971405E+03  0.17385272304E+03 0.  0.
         24    2    5    5    0    0 -0.65852845862E+02 -0.13528861333E+02 -0.12025240597E+03  0.16262210311E+03  0.86404165866E+02 0.  0.
          5    1    5    5  501    0  0.56964652883E+01 -0.72953304246E+02  0.46282727768E+00  0.73327610941E+02  0.47000000000E+01 0. -1.
        -13    1    6    6    0    0 -0.32165149013E+02 -0.50122657935E+02 -0.60831031039E+02  0.85131028343E+02  0.00000000000E+00 0.  1.
         14    1    6    6    0    0 -0.33687696849E+02  0.36593796602E+02 -0.59421374936E+02  0.77491074763E+02  0.00000000000E+00 0. -1.
         -5    1    3    3    0  503  0.26439889337E+02  0.74438746533E+02 -0.19204664986E+03  0.20771182070E+03  0.47000000000E+01 0.  1.
         11    1    4    4    0    0  0.52831267136E+02  0.14633293300E+02 -0.11949501906E+02  0.56107634559E+02  0.00000000000E+00 0. -1.
        -12    1    4    4    0    0 -0.19114775899E+02 -0.25898742537E+01  0.46090854167E+01  0.19832442480E+02  0.00000000000E+00 0.  1.
</event>
<event>
12    1  0.8407180E-002  0.1732320E+03  0.7818608E-02  0.1175211E+00
         21   -1    0    0  501  502  0.00000000000E+00  0.00000000000E+00  0.10407339525E+03  0.10407339525E+03  0.00000000000E+00 0. -1.
         21   -1    0    0  502  503 -0.00000000000E+00 -0.00000000000E+00 -0.75194602705E+03  0.75194602705E+03  0.00000000000E+00 0. -1.
         -6    2    1    2    0  503  0.22615967325E+02 -0.68015511016E+01 -0.66258093446E+03  0.68485241848E+03  0.17161467685E+03 0.  0.
        -24    2    3    3    0    0 -0.30786068985E+02 -0.44186021170E+02 -0.50487697449E+03  0.51414212273E+03  0.80877540053E+02 0.  0.
          6    2    1    2  501    0 -0.22615967325E+02  0.68015511016E+01  0.14708302656E+02  0.17116700383E+03  0.16889069234E+03 0.  0.
         24    2    5    5    0    0  0.48233379518E+02  0.19933247631E+02  0.34286251713E+02  0.96350845878E+02  0.73376734623E+02 0.  0.
          5    1    5    5  501    0 -0.70849346843E+02 -0.13131696530E+02 -0.19577949057E+02  0.74816157954E+02  0.47000000000E+01 0. -1.
        -13    1    6    6    0    0  0.96347179151E+00  0.39038431158E+02  0.14197970041E+02  0.41551290455E+02  0.00000000000E+00 0.  1.
         14    1    6    6    0    0  0.47269907726E+02 -0.19105183527E+02  0.20088281671E+02  0.54799555423E+02  0.00000000000E+00 0. -1.
         -5    1    3    3    0  503  0.53402036310E+02  0.37384470068E+02 -0.15770395997E+03  0.17071029575E+03  0.47000000000E+01 0.  1.
         13    1    4    4    0    0  0.10087784564E+02  0.16130527565E+02 -0.18976045807E+03  0.19071179503E+03  0.00000000000E+00 0. -1.
        -14    1    4    4    0    0 -0.40873853549E+02 -0.60316548735E+02 -0.31511651642E+03  0.32343032770E+03  0.00000000000E+00 0.  1.
</event>
<event>
12    1  0.8407180E-002  0.1965113E+03  0.7818608E-02  0.1153272E+00
         21   -1    0    0  501  502  0.00000000000E+00  0.00000000000E+00  0.56048434134E+03  0.56048434134E+03  0.00000000000E+00 0.  1.
         21   -1    0    0  502  503 -0.00000000000E+00 -0.00000000000E+00 -0.16316763738E+03  0.16316763738E+03  0.00000000000E+00 0. -1.
         -6    2    1    2    0  503  0.80011146428E+02 -0.45191030801E+02 -0.78202091707E+02  0.20912809019E+03  0.17080684454E+03 0.  0.
        -24    2    3    3    0    0  0.63575891574E+02  0.29418236109E+02 -0.81548837890E+02  0.13251248459E+03  0.77472698461E+02 0.  0.
          6    2    1    2  501    0 -0.80011146428E+02  0.45191030801E+02  0.47551879567E+03  0.51452388853E+03  0.17370289007E+03 0.  0.
         24    2    5    5    0    0 -0.47954981276E+02  0.77616628023E+02  0.43627277552E+03  0.45418022957E+03  0.87302491937E+02 0.  0.
          5    1    5    5  501    0 -0.32056165153E+02 -0.32425597222E+02  0.39246020152E+02  0.60343658965E+02  0.47000000000E+01 0. -1.
        -11    1    6    6    0    0 -0.42878223734E+02  0.32639654713E+01  0.24787831142E+03  0.25158070835E+03  0.00000000000E+00 0.  1.
         12    1    6    6    0    0 -0.50767575412E+01  0.74352662552E+02  0.18839446410E+03  0.20259952122E+03  0.00000000000E+00 0. -1.
         -5    1    3    3    0  503  0.16435254855E+02 -0.74609266909E+02  0.33467461829E+01  0.76615605596E+02  0.47000000000E+01 0.  1.
         13    1    4    4    0    0  0.24669993327E+02 -0.11150734872E+02 -0.70103562885E+02  0.75149564125E+02  0.00000000000E+00 0. -1.
        -14    1    4    4    0    0  0.38905898247E+02  0.40568970980E+02 -0.11445275005E+02  0.57362920469E+02  0.00000000000E+00 0.  1.
</event>
<event>
12    1  0.8407180E-002  0.2072198E+03  0.7818608E-02  0.1143955E+00
         21   -1    0    0  503  502  0.00000000000E+00  0.00000000000E+00  0.61658226918E+03  0.61658226918E+03  0.00000000000E+00 0. -1.
         21   -1    0    0  501  503 -0.00000000000E+00 -0.00000000000E+00 -0.75111251180E+02  0.75111251180E+02  0.00000000000E+00 0. -1.
          6    2    1    2  501    0 -0.51120910814E+02  0.98274591091E+02  0.36591444348E+03  0.42010531871E+03  0.17413746318E+03 0.  0.
         24    2    3    3    0    0 -0.15096603392E+02 -0.15578159008E+02  0.11129430207E+03  0.13883373137E+03  0.80111152914E+02 0.  0.
         -6    2    1    2    0  502  0.51120910814E+02 -0.98274591091E+02  0.17555657452E+03  0.27158820165E+03  0.17512509142E+03 0.  0.
        -24    2    5    5    0    0  0.71385433405E+02 -0.36749644540E+01  0.11625446025E+03  0.15801632577E+03  0.79653463291E+02 0.  0.
          5    1    3    3  501    0 -0.36024307422E+02  0.11385275010E+03  0.25462014141E+03  0.28127158734E+03  0.47000000000E+01 0. -1.
        -11    1    4    4    0    0  0.12353564598E+02 -0.47888084822E+01 -0.83144990707E+01  0.15642063155E+02  0.00000000000E+00 0.  1.
         12    1    4    4    0    0 -0.27450167991E+02 -0.10789350526E+02  0.11960880114E+03  0.12319166822E+03  0.00000000000E+00 0. -1.
         -5    1    5    5    0  502 -0.20264522590E+02 -0.94599626637E+02  0.59302114267E+02  0.11357187589E+03  0.47000000000E+01 0.  1.
         13    1    6    6    0    0  0.37157605461E+02 -0.36265466771E+02  0.90127176309E+02  0.10401336276E+03  0.00000000000E+00 0. -1.
        -14    1    6    6    0    0  0.34227827943E+02  0.32590502317E+02  0.26127283941E+02  0.54002963003E+02  0.00000000000E+00 0.  1.
</event>
<event>
12    1  0.8407180E-002  0.1757122E+03  0.7818608E-02  0.1172228E+00
         21   -1    0    0  501  502  0.00000000000E+00  0.00000000000E+00  0.24062537604E+03  0.24062537604E+03  0.00000000000E+00 0. -1.
         21   -1    0    0  502  503 -0.00000000000E+00 -0.00000000000E+00 -0.12898535527E+03  0.12898535527E+03  0.00000000000E+00 0. -1.
         -6    2    1    2    0  503 -0.31210055520E+02 -0.12027531664E+02  0.37510303310E+02  0.17967141282E+03  0.17249946274E+03 0.  0.
        -24    2    3    3    0    0 -0.53607706461E+02 -0.12044236854E+02  0.83462630018E+02  0.12833564189E+03  0.80530593796E+02 0.  0.
          6    2    1    2  501    0  0.31210055520E+02  0.12027531664E+02  0.74129717458E+02  0.18993931849E+03  0.17164789721E+03 0.  0.
         24    2    5    5    0    0 -0.45867704817E+02  0.53254283152E+02  0.29769198745E+02  0.91803841741E+02  0.51008579133E+02 0.  0.
          5    1    5    5  501    0  0.77077760337E+02 -0.41226751488E+02  0.44360518713E+02  0.98135476752E+02  0.47000000000E+01 0. -1.
        -13    1    6    6    0    0 -0.42724224267E+02  0.13701816446E+02  0.52787994441E+01  0.45177038822E+02  0.00000000000E+00 0.  1.
         14    1    6    6    0    0 -0.31434805503E+01  0.39552466707E+02  0.24490399301E+02  0.46626802919E+02  0.00000000000E+00 0. -1.
         -5    1    3    3    0  503  0.22397650941E+02  0.16705189468E-01 -0.45952326708E+02  0.51335770926E+02  0.47000000000E+01 0.  1.
         11    1    4    4    0    0 -0.28036045313E+02 -0.45476042365E+02  0.33722172677E+02  0.63176539918E+02  0.00000000000E+00 0. -1.
        -12    1    4    4    0    0 -0.25571661148E+02  0.33431805512E+02  0.49740457341E+02  0.65159101975E+02  0.00000000000E+00 0.  1.
</event>
<event>
12    1  0.8407180E-002  0.2361413E+03  0.7818608E-02  0.1123375E+00
         21   -1    0    0  503  502  0.00000000000E+00  0.00000000000E+00  0.10844517458E+03  0.10844517458E+03  0.00000000000E+00 0. -1.
         21   -1    0    0  501  503 -0.00000000000E+00 -0.00000000000E+00 -0.17135655289E+04  0.17135655289E+04  0.00000000000E+00 0. -1.
          6    2    1    2  501    0 -0.15332204919E+03 -0.45985980924E+02 -0.15657440585E+04  0.15826089158E+04  0.16575331854E+03 0.  0.
         24    2    3    3    0    0 -0.76787341238E+02  0.12645217560E+02 -0.61269323486E+03  0.62468243570E+03  0.93696041103E+02 0.  0.
         -6    2    1    2    0  502  0.15332204919E+03  0.45985980924E+02 -0.39376295902E+02  0.23940178771E+03  0.17360979832E+03 0.  0.
        -24    2    5    5    0    0  0.78286698313E+02  0.59376900143E+02  0.37254856909E+02  0.13121655684E+03  0.78583948878E+02 0.  0.
          5    1    3    3  501    0 -0.76534707951E+02 -0.58631198484E+02 -0.95305082359E+03  0.95792648011E+03  0.47000000000E+01 0. -1.
        -13    1    4    4    0    0 -0.55768540677E+02 -0.27022759932E+02 -0.19564731567E+03  0.20522726869E+03  0.00000000000E+00 0.  1.
         14    1    4    4    0    0 -0.21018800561E+02  0.39667977492E+02 -0.41704591919E+03  0.41945516701E+03  0.00000000000E+00 0. -1.
         -5    1    5    5    0  502  0.75035350876E+02 -0.13390919219E+02 -0.76631152811E+02  0.10818523088E+03  0.47000000000E+01 0.  1.
         13    1    6    6    0    0  0.57091988263E+02 -0.31907534901E+00  0.36692775091E+02  0.67867198828E+02  0.00000000000E+00 0. -1.
        -14    1    6    6    0    0  0.21194710050E+02  0.59695975492E+02  0.56208181820E+00  0.63349358008E+02  0.00000000000E+00 0.  1.
</event>
<event>
12    1  0.8407180E-002  0.1864890E+03  0.7818608E-02  0.1161817E+00
         21   -1    0    0  501  502  0.00000000000E+00  0.00000000000E+00  0.34622640182E+03  0.34622640182E+03  0.00000000000E+00 0. -1.
         21   -1    0    0  502  503 -0.00000000000E+00 -0.00000000000E+00 -0.10035364538E+03  0.10035364538E+03  0.00000000000E+00 0. -1.
         -6    2    1    2    0  503  0.63022864026E+02 -0.26669929190E+02  0.13395179221E+03  0.22908420938E+03  0.17278115012E+03 0.  0.
        -24    2    3    3    0    0  0.10677818211E+03 -0.12931900983E+01  0.89182059003E+02  0.16137212951E+03  0.81757397340E+02 0.  0.
          6    2    1    2  501    0 -0.63022864026E+02  0.26669929190E+02  0.11192096422E+03  0.21749583783E+03  0.17347902100E+03 0.  0.
         24    2    5    5    0    0  0.38384387232E+02  0.62315377670E+01  0.54922564358E+02  0.99292343636E+02  0.73008822637E+02 0.  0.
          5    1    5    5  501    0 -0.10140725126E+03  0.20438391423E+02  0.56998399865E+02  0.11820349419E+03  0.47000000000E+01 0. -1.
        -11    1    6    6    0    0  0.71846130005E+01 -0.46206065080E+01  0.64370287118E+02  0.64934601964E+02  0.00000000000E+00 0.  1.
         12    1    6    6    0    0  0.31199774231E+02  0.10852144275E+02 -0.94477227599E+01  0.34357741672E+02  0.00000000000E+00 0. -1.
         -5    1    3    3    0  503 -0.43755318087E+02 -0.25376739092E+02  0.44769733211E+02  0.67712079865E+02  0.47000000000E+01 0.  1.
         13    1    4    4    0    0  0.57233690094E+02 -0.24080909758E+02  0.66470959575E+01  0.62448133529E+02  0.00000000000E+00 0. -1.
        -14    1    4    4    0    0  0.49544492019E+02  0.22787719660E+02  0.82534963046E+02  0.98923995985E+02  0.00000000000E+00 0.  1.
</event>
<event>
12    1  0.8407180E-002  0.1771387E+03  0.7818608E-02  0.1170753E+00
         21   -1    0    0  501  502  0.00000000000E+00  0.00000000000E+00  0.12624860652E+03  0.12624860652E+03  0.00000000000E+00 0.  1.
         21   -1    0    0  502  503 -0.00000000000E+00 -0.00000000000E+00 -0.62293649444E+03  0.62293649444E+03  0.00000000000E+00 0.  1.
         -6    2    1    2    0  503 -0.11935961349E+02  0.37147177083E+02 -0.53890898818E+03  0.56708421797E+03  0.17216048556E+03 0.  0.
        -24    2    3    3    0    0 -0.54893358457E+02  0.36611740838E+02 -0.19064520128E+03  0.21614920985E+03  0.77596312911E+02 0.  0.
          6    2    1    2  501    0  0.11935961349E+02 -0.37147177083E+02  0.42221100260E+02  0.18210088300E+03  0.17278810822E+03 0.  0.
         24    2    5    5    0    0  0.44830550656E+02 -0.28190097878E+02  0.83936813983E+02  0.12802155197E+03  0.80868220802E+02 0.  0.
          5    1    5    5  501    0 -0.32894589307E+02 -0.89570792052E+01 -0.41715713722E+02  0.54079331032E+02  0.47000000000E+01 0. -1.
        -11    1    6    6    0    0 -0.34077165956E+01 -0.89495652320E+01  0.74652603729E+02  0.75264324177E+02  0.00000000000E+00 0.  1.
         12    1    6    6    0    0  0.48238267252E+02 -0.19240532646E+02  0.92842102535E+01  0.52757227789E+02  0.00000000000E+00 0. -1.
         -5    1    3    3    0  503  0.42957397108E+02  0.53543624598E+00 -0.34826378690E+03  0.35093500812E+03  0.47000000000E+01 0.  1.
         13    1    4    4    0    0 -0.24536909265E+02 -0.20237281636E+02 -0.99949587080E+02  0.10488816636E+03  0.00000000000E+00 0. -1.
        -14    1    4    4    0    0 -0.30356449192E+02  0.56849022474E+02 -0.90695614198E+02  0.11126104349E+03  0.00000000000E+00 0.  1.
</event>
<event>
12    1  0.8407180E-002  0.1810416E+03  0.7818608E-02  0.1167765E+00
         21   -1    0    0  501  502  0.00000000000E+00  0.00000000000E+00  0.20036498274E+03  0.20036498274E+03  0.00000000000E+00 0. -1.
         21   -1    0    0  502  503 -0.00000000000E+00 -0.00000000000E+00 -0.24049352840E+03  0.24049352840E+03  0.00000000000E+00 0. -1.
         -6    2    1    2    0  503  0.84057784578E+01  0.39304195834E+02 -0.14743049971E+03  0.23040713583E+03  0.17244192957E+03 0.  0.
        -24    2    3    3    0    0  0.19452549146E+02  0.90026687809E+02 -0.82352049526E+02  0.14702789972E+03  0.79700295162E+02 0.  0.
          6    2    1    2  501    0 -0.84057784578E+01 -0.39304195834E+02  0.10730195406E+03  0.21045137531E+03  0.17652363894E+03 0.  0.
         24    2    5    5    0    0 -0.13588673572E+02 -0.94910779319E+02  0.86772295383E+02  0.15076459776E+03  0.77510158126E+02 0.  0.
          5    1    5    5  501    0  0.51828951144E+01  0.55606583485E+02  0.20529658678E+02  0.59686777548E+02  0.47000000000E+01 0. -1.
        -11    1    6    6    0    0 -0.25682431941E+01  0.12420197350E+02  0.62785491670E+00  0.12698479323E+02  0.00000000000E+00 0.  1.
         12    1    6    6    0    0 -0.11020430378E+02 -0.10733097667E+03  0.86144440466E+02  0.13806611844E+03  0.00000000000E+00 0. -1.
         -5    1    3    3    0  503 -0.11046770688E+02 -0.50722491975E+02 -0.65078450188E+02  0.83379236106E+02  0.47000000000E+01 0.  1.
         11    1    4    4    0    0  0.35353867067E+02  0.65555183846E+01 -0.32761094869E+02  0.48643191455E+02  0.00000000000E+00 0. -1.
        -12    1    4    4    0    0 -0.15901317921E+02  0.83471169425E+02 -0.49590954657E+02  0.98384708266E+02  0.00000000000E+00 0.  1.
</event>
<event>
12    1  0.8407180E-002  0.1910830E+03  0.7818608E-02  0.1159965E+00
         21   -1    0    0  503  502  0.00000000000E+00  0.00000000000E+00  0.89560853708E+02  0.89560853708E+02  0.00000000000E+00 0. -1.
         21   -1    0    0  501  503 -0.00000000000E+00 -0.00000000000E+00 -0.50671828160E+03  0.50671828160E+03  0.00000000000E+00 0. -1.
          6    2    1    2  501    0 -0.52016934673E+02 -0.33883030944E+02 -0.35000564629E+03  0.39374004461E+03  0.16933236259E+03 0.  0.
         24    2    3    3    0    0 -0.96920367203E+02 -0.45587883288E+02 -0.22399498032E+03  0.25937449933E+03  0.75030440582E+02 0.  0.
         -6    2    1    2    0  502  0.52016934673E+02  0.33883030944E+02 -0.67151781606E+02  0.20253909070E+03  0.18071773629E+03 0.  0.
        -24    2    5    5    0    0  0.78426853768E+02 -0.26922850743E+02 -0.10181429770E+02  0.11500309774E+03  0.79034420941E+02 0.  0.
          5    1    3    3  501    0  0.44903432530E+02  0.11704852344E+02 -0.12601066597E+03  0.13436554528E+03  0.47000000000E+01 0. -1.
        -13    1    4    4    0    0  0.44497978977E+01 -0.13116541205E+02 -0.74969415569E+02  0.76238163838E+02  0.00000000000E+00 0.  1.
         14    1    4    4    0    0 -0.10137016510E+03 -0.32471342083E+02 -0.14902556475E+03  0.18313633549E+03  0.00000000000E+00 0. -1.
         -5    1    5    5    0  502 -0.26409919095E+02  0.60805881688E+02 -0.56970351836E+02  0.87535992956E+02  0.47000000000E+01 0.  1.
         11    1    6    6    0    0  0.33284523648E+02 -0.43326655915E+02 -0.30816901232E+02  0.62727506157E+02  0.00000000000E+00 0. -1.
        -12    1    6    6    0    0  0.45142330120E+02  0.16403805171E+02  0.20635471462E+02  0.52275591582E+02  0.00000000000E+00 0.  1.
</event>
<event>
12    1  0.8407180E-002  0.3298932E+03  0.7818608E-02  0.1072260E+00
         21   -1    0    0  501  502  0.00000000000E+00  0.00000000000E+00  0.70418722868E+02  0.70418722868E+02  0.00000000000E+00 0. -1.
         21   -1    0    0  502  503 -0.00000000000E+00 -0.00000000000E+00 -0.28720091719E+04  0.28720091719E+04  0.00000000000E+00 0.  1.
         -6    2    1    2    0  503 -0.22547973940E+03 -0.14794481748E+03 -0.24064701167E+04  0.24276953236E+04  0.17285074368E+03 0.  0.
        -24    2    3    3    0    0 -0.12943450354E+03 -0.76738131572E+02 -0.86856853235E+03  0.88514598802E+03  0.80187861752E+02 0.  0.
          6    2    1    2  501    0  0.22547973940E+03  0.14794481748E+03 -0.39512033228E+03  0.51473257115E+03  0.19000200243E+03 0.  0.
         24    2    5    5    0    0  0.24953982449E+03  0.13651966211E+03 -0.38631732567E+03  0.48628956155E+03  0.79553248905E+02 0.  0.
          5    1    5    5  501    0 -0.24060085095E+02  0.11425155368E+02 -0.88030066156E+01  0.28443009606E+02  0.47000000000E+01 0. -1.
        -11    1    6    6    0    0  0.98312896685E+02  0.63031887900E+02 -0.22385232506E+03  0.25248427274E+03  0.00000000000E+00 0.  1.
         12    1    6    6    0    0  0.15122692781E+03  0.73487774209E+02 -0.16246500060E+03  0.23380528880E+03  0.00000000000E+00 0. -1.
         -5    1    3    3    0  503 -0.96045235860E+02 -0.71206685905E+02 -0.15379015844E+04  0.15425493356E+04  0.47000000000E+01 0.  1.
         13    1    4    4    0    0 -0.22681973560E+01  0.27522498734E+00 -0.20971206546E+03  0.20972451184E+03  0.00000000000E+00 0. -1.
        -14    1    4    4    0    0 -0.12716630618E+03 -0.77013356559E+02 -0.65885646690E+03  0.67542147618E+03  0.00000000000E+00 0.  1.
</event>
<event>
12    1  0.8407180E-002  0.1964772E+03  0.7818608E-02  0.1152760E+00
         21   -1    0    0  501  502  0.00000000000E+00  0.00000000000E+00  0.93587723878E+03  0.93587723878E+03  0.00000000000E+00 0. -1.
         21   -1    0    0  502  503 -0.00000000000E+00 -0.00000000000E+00 -0.50897876090E+02  0.50897876090E+02  0.00000000000E+00 0. -1.
         -6    2    1    2    0  503  0.89829865425E+02  0.31086890457E+02  0.22744292226E+03  0.30051171865E+03  0.17187556743E+03 0.  0.
        -24    2    3    3    0    0  0.55215503311E+02  0.16454356217E+02  0.24098485043E+03  0.26029059309E+03  0.79737049537E+02 0.  0.
          6    2    1    2  501    0 -0.89829865425E+02 -0.31086890457E+02  0.65753644043E+03  0.68626339622E+03  0.17195196719E+03 0.  0.
         24    2    5    5    0    0 -0.84376356522E+02 -0.10618650093E+01  0.63815226516E+03  0.64980685822E+03  0.88826473277E+02 0.  0.
          5    1    5    5  501    0 -0.54535089025E+01 -0.30025025448E+02  0.19384175263E+02  0.36456538002E+02  0.47000000000E+01 0. -1.
        -11    1    6    6    0    0 -0.21200745476E+02  0.17746200418E+02  0.43702555320E+02  0.51713756192E+02  0.00000000000E+00 0.  1.
         12    1    6    6    0    0 -0.63175611046E+02 -0.18808065427E+02  0.59444970984E+03  0.59809310203E+03  0.00000000000E+00 0. -1.
         -5    1    3    3    0  503  0.34614362113E+02  0.14632534240E+02 -0.13541928169E+02  0.40221125560E+02  0.47000000000E+01 0.  1.
         13    1    4    4    0    0  0.33292037455E+02  0.46527030965E+02  0.10826592684E+03  0.12245258382E+03  0.00000000000E+00 0. -1.
        -14    1    4    4    0    0  0.21923465856E+02 -0.30072674748E+02  0.13271892359E+03  0.13783800927E+03  0.00000000000E+00 0.  1.
</event>
<event>
12    1  0.8407180E-002  0.1956807E+03  0.7818608E-02  0.1153738E+00
         21   -1    0    0  503  502  0.00000000000E+00  0.00000000000E+00  0.25486409469E+03  0.25486409469E+03  0.00000000000E+00 0. -1.
         21   -1    0    0  501  503 -0.00000000000E+00 -0.00000000000E+00 -0.15259084437E+03  0.15259084437E+03  0.00000000000E+00 0.  1.
          6    2    1    2  501    0  0.40838902565E+02  0.84105892291E+02  0.81802510573E+02  0.21209101870E+03  0.17189919254E+03 0.  0.
         24    2    3    3    0    0 -0.15904271900E+02  0.78502551625E+02  0.46913597020E+01  0.11607328667E+03  0.83877306499E+02 0.  0.
         -6    2    1    2    0  502 -0.40838902565E+02 -0.84105892291E+02  0.20470739751E+02  0.19536392037E+03  0.17031263346E+03 0.  0.
        -24    2    5    5    0    0 -0.78592874468E+02 -0.18557583691E+02 -0.11793174876E+02  0.11299284934E+03  0.78147816345E+02 0.  0.
          5    1    3    3  501    0  0.56743174466E+02  0.56033406661E+01  0.77111150871E+02  0.96017732028E+02  0.47000000000E+01 0. -1.
        -11    1    4    4    0    0 -0.21092316104E+02  0.29742999974E+02 -0.36825544872E+02  0.51823282424E+02  0.00000000000E+00 0.  1.
         12    1    4    4    0    0  0.51880442038E+01  0.48759551651E+02  0.41516904574E+02  0.64250004243E+02  0.00000000000E+00 0. -1.
         -5    1    5    5    0  502  0.37753971903E+02 -0.65548308601E+02  0.32263914627E+02  0.82371071026E+02  0.47000000000E+01 0.  1.
         13    1    6    6    0    0  0.13795810207E+02 -0.87753592240E+01  0.76874470422E+01  0.18067322735E+02  0.00000000000E+00 0. -1.
        -14    1    6    6    0    0 -0.92388684676E+02 -0.97822244667E+01 -0.19480621918E+02  0.94925526609E+02  0.00000000000E+00 0.  1.
</event>
<event>
12    1  0.8407180E-002  0.2628519E+03  0.7818608E-02  0.1105595E+00
         21   -1    0    0  503  502  0.00000000000E+00  0.00000000000E+00  0.38810050011E+03  0.38810050011E+03  0.00000000000E+00 0. -1.
         21   -1    0    0  501  503 -0.00000000000E+00 -0.00000000000E+00 -0.18639829156E+03  0.18639829156E+03  0.00000000000E+00 0.  1.
          6    2    1    2  501    0  0.19107488886E+03 -0.54208891687E+02  0.37659581978E+02  0.26553599305E+03  0.17217114276E+03 0.  0.
         24    2    3    3    0    0  0.14693701857E+03 -0.96058311801E+02 -0.22777288758E+01  0.19262094415E+03  0.79246156905E+02 0.  0.
         -6    2    1    2    0  502 -0.19107488886E+03  0.54208891687E+02  0.16404262658E+03  0.30896279862E+03  0.17058666568E+03 0.  0.
        -24    2    5    5    0    0 -0.18263522668E+03  0.76994695740E+02  0.18014889767E+03  0.27943446084E+03  0.79662936026E+02 0.  0.
          5    1    3    3  501    0  0.44137870290E+02  0.41849420114E+02  0.39937310853E+02  0.72915048898E+02  0.47000000000E+01 0. -1.
        -13    1    4    4    0    0  0.11343178505E+02 -0.42105791378E+02  0.13959894255E+02  0.45786941520E+02  0.00000000000E+00 0.  1.
         14    1    4    4    0    0  0.13559384006E+03 -0.53952520423E+02 -0.16237623131E+02  0.14683400263E+03  0.00000000000E+00 0. -1.
         -5    1    5    5    0  502 -0.84396621777E+01 -0.22785804054E+02 -0.16106271088E+02  0.29528337786E+02  0.47000000000E+01 0.  1.
         13    1    6    6    0    0 -0.76874195688E+02  0.56429371860E+02  0.12831954221E+03  0.15987439095E+03  0.00000000000E+00 0. -1.
        -14    1    6    6    0    0 -0.10576103099E+03  0.20565323881E+02  0.51829355460E+02  0.11956006988E+03  0.00000000000E+00 0.  1.
</event>
<event>
12    1  0.8407180E-002  0.1907045E+03  0.7818608E-02  0.1160864E+00
         21   -1    0    0  503  502  0.00000000000E+00  0.00000000000E+00  0.68863751680E+03  0.68863751680E+03  0.00000000000E+00 0. -1.
         21   -1    0    0  501  503 -0.00000000000E+00 -0.00000000000E+00 -0.16451699838E+03  0.16451699838E+03  0.00000000000E+00 0. -1.
          6    2    1    2  501    0 -0.28382533088E+02  0.31751816744E+02 -0.92136648033E+02  0.21179558909E+03  0.18588830947E+03 0.  0.
         24    2    3    3    0    0 -0.12411704486E+02  0.63473690212E+02  0.10813579598E+02  0.10279015807E+03  0.79157585454E+02 0.  0.
         -6    2    1    2    0  502  0.28382533088E+02 -0.31751816744E+02  0.61625716645E+03  0.64135892610E+03  0.17249530670E+03 0.  0.
        -24    2    5    5    0    0 -0.44425755710E+02 -0.39089141256E+02  0.42988972147E+03  0.44108461971E+03  0.79049733639E+02 0.  0.
          5    1    3    3  501    0 -0.15970828601E+02 -0.31721873468E+02 -0.10295022763E+03  0.10900543102E+03  0.47000000000E+01 0. -1.
        -11    1    4    4    0    0  0.10878505941E+02 -0.14821551017E+02  0.10359445637E+02  0.21103041959E+02  0.00000000000E+00 0.  1.
         12    1    4    4    0    0 -0.23290210427E+02  0.78295241228E+02  0.45413396102E+00  0.81687116110E+02  0.00000000000E+00 0. -1.
         -5    1    5    5    0  502  0.72808288797E+02  0.73373245118E+01  0.18636744498E+03  0.20027430638E+03  0.47000000000E+01 0.  1.
         13    1    6    6    0    0 -0.14080218923E+02 -0.67220751415E+01  0.34452859426E+03  0.34488170599E+03  0.00000000000E+00 0. -1.
        -14    1    6    6    0    0 -0.30345536787E+02 -0.32367066114E+02  0.85361127207E+02  0.96202913728E+02  0.00000000000E+00 0.  1.
</event>
<event>
12    1  0.8407180E-002  0.3448027E+03  0.7818608E-02  0.1064842E+00
         21   -1    0    0  503  502  0.00000000000E+00  0.00000000000E+00  0.28283243261E+03  0.28283243261E+03  0.00000000000E+00 0. -1.
         21   -1    0    0  501  503 -0.00000000000E+00 -0.00000000000E+00 -0.45319989002E+03  0.45319989002E+03  0.00000000000E+00 0. -1.
          6    2    1    2  501    0 -0.11859231029E+03  0.27469586017E+03  0.15252398001E+02  0.34444113951E+03  0.16995620403E+03 0.  0.
         24    2    3    3    0    0 -0.11087066070E+03  0.10300790862E+03  0.22611728718E+02  0.17235794357E+03  0.79328669418E+02 0.  0.
         -6    2    1    2    0  502  0.11859231029E+03 -0.27469586017E+03 -0.18561985542E+03  0.39159118312E+03  0.17136794427E+03 0.  0.
        -24    2    5    5    0    0  0.11822441530E+03 -0.11631953135E+03 -0.12159860463E+03  0.22069938277E+03  0.80092141694E+02 0.  0.
          5    1    3    3  501    0 -0.77216495900E+01  0.17168795154E+03 -0.73593307175E+01  0.17208319594E+03  0.47000000000E+01 0. -1.
        -11    1    4    4    0    0 -0.49594719160E+02  0.97887049473E+01  0.32922928557E+02  0.60327225511E+02  0.00000000000E+00 0.  1.
         12    1    4    4    0    0 -0.61275941540E+02  0.93219203678E+02 -0.10311199839E+02  0.11203071806E+03  0.00000000000E+00 0. -1.
         -5    1    5    5    0  502  0.36789498875E+00 -0.15837632881E+03 -0.64021250793E+02  0.17089180035E+03  0.47000000000E+01 0.  1.
         11    1    6    6    0    0  0.49404714538E+02 -0.10201445400E+03 -0.83184936131E+02  0.14059697096E+03  0.00000000000E+00 0. -1.
        -12    1    6    6    0    0  0.68819700763E+02 -0.14305077355E+02 -0.38413668495E+02  0.80102411814E+02  0.00000000000E+00 0.  1.
</event>
<event>
12    1  0.8407180E-002  0.1962662E+03  0.7818608E-02  0.1152948E+00
         21   -1    0    0  501  502  0.00000000000E+00  0.00000000000E+00  0.76470007441E+03  0.76470007441E+03  0.00000000000E+00 0.  1.
         21   -1    0    0  502  503 -0.00000000000E+00 -0.00000000000E+00 -0.53561603803E+02  0.53561603803E+02  0.00000000000E+00 0.  1.
         -6    2    1    2    0  503  0.18111849803E+02  0.93360713993E+02  0.25546033142E+03  0.32214963580E+03  0.17168618143E+03 0.  0.
        -24    2    3    3    0    0 -0.49194489931E+02  0.22054892821E+02  0.17479827009E+03  0.19509405096E+03  0.67828735469E+02 0.  0.
          6    2    1    2  501    0 -0.18111849803E+02 -0.93360713993E+02  0.45567813919E+03  0.49611204242E+03  0.17158184658E+03 0.  0.
         24    2    5    5    0    0 -0.34475967166E+02 -0.13007186315E+03  0.34311779496E+03  0.37649843992E+03  0.76902354616E+02 0.  0.
          5    1    5    5  501    0  0.16364117363E+02  0.36711149161E+02  0.11256034423E+03  0.11961360250E+03  0.47000000000E+01 0. -1.
        -13    1    6    6    0    0 -0.37792905037E+02 -0.77499305478E+02  0.28637406418E+03  0.29907281832E+03  0.00000000000E+00 0.  1.
         14    1    6    6    0    0  0.33169378708E+01 -0.52572557676E+02  0.56743730779E+02  0.77425621600E+02  0.00000000000E+00 0. -1.
         -5    1    3    3    0  503  0.67306339734E+02  0.71305821172E+02  0.80662061326E+02  0.12705558484E+03  0.47000000000E+01 0.  1.
         11    1    4    4    0    0 -0.71918034115E+01 -0.19468604401E+02  0.85843709481E+02  0.88316991859E+02  0.00000000000E+00 0. -1.
        -12    1    4    4    0    0 -0.42002686519E+02  0.41523497222E+02  0.88954560613E+02  0.10677705910E+03  0.00000000000E+00 0.  1.
</event>
<event>
12    1  0.8407180E-002  0.1811744E+03  0.7818608E-02  0.1166793E+00
         21   -1    0    0  503  502  0.00000000000E+00  0.00000000000E+00  0.54838841414E+03  0.54838841414E+03  0.00000000000E+00 0.  1.
         21   -1    0    0  501  503 -0.00000000000E+00 -0.00000000000E+00 -0.79330438108E+02  0.79330438108E+02  0.00000000000E+00 0.  1.
          6    2    1    2  501    0 -0.23847749405E+02  0.49710986095E+02  0.78601889745E+02  0.19749025921E+03  0.17258113490E+03 0.  0.
         24    2    3    3    0    0  0.33807621360E+02  0.17938007436E+02 -0.79223819897E+01  0.88668370102E+02  0.79590127198E+02 0.  0.
         -6    2    1    2    0  502  0.23847749405E+02 -0.49710986095E+02  0.39045608629E+03  0.43022859303E+03  0.17204880021E+03 0.  0.
        -24    2    5    5    0    0  0.81649609674E+02 -0.40454111045E+02  0.24704891757E+03  0.27526262637E+03  0.80206931994E+02 0.  0.
          5    1    3    3  501    0 -0.57655370764E+02  0.31772978659E+02  0.86524271735E+02  0.10882188911E+03  0.47000000000E+01 0. -1.
        -13    1    4    4    0    0 -0.21721177631E+02  0.20584979386E+02  0.77434560851E+01  0.30911357883E+02  0.00000000000E+00 0.  1.
         14    1    4    4    0    0  0.55528798991E+02 -0.26469719499E+01 -0.15665838075E+02  0.57757012219E+02  0.00000000000E+00 0. -1.
         -5    1    5    5    0  502 -0.57801860269E+02 -0.92568750499E+01  0.14340716871E+03  0.15496596667E+03  0.47000000000E+01 0.  1.
         13    1    6    6    0    0  0.20550120206E+02 -0.32976133550E+02  0.28436806114E+02  0.48149608164E+02  0.00000000000E+00 0. -1.
        -14    1    6    6    0    0  0.61099489468E+02 -0.74779774951E+01  0.21861211146E+03  0.22711301820E+03  0.00000000000E+00 0.  1.
</event>
<event>
12    1  0.8407180E-002  0.2049834E+03  0.7818608E-02  0.1149654E+00
         21   -1    0    0  501  502  0.00000000000E+00  0.00000000000E+00  0.22256490878E+04  0.22256490878E+04  0.00000000000E+00 0.  1.
         21   -1    0    0  502  503 -0.00000000000E+00 -0.00000000000E+00 -0.24518987987E+02  0.24518987987E+02  0.00000000000E+00 0.  1.
         -6    2    1    2    0  503 -0.16966055261E+02 -0.67632883795E+02  0.52283556619E+03  0.56158279220E+03  0.19275930383E+03 0.  0.
        -24    2    3    3    0    0 -0.10595775589E+02 -0.77682657693E+02  0.53323930859E+03  0.54509321142E+03  0.81459088756E+02 0.  0.
          6    2    1    2  501    0  0.16966055261E+02  0.67632883795E+02  0.16782945336E+04  0.16885852836E+04  0.17258523799E+03 0.  0.
         24    2    5    5    0    0  0.36235108531E+02 -0.25362368986E+02  0.87188810125E+03  0.87659215700E+03  0.79175221937E+02 0.  0.
          5    1    5    5  501    0 -0.19269053271E+02  0.92995252781E+02  0.80640643238E+03  0.81199312659E+03  0.47000000000E+01 0. -1.
        -13    1    6    6    0    0  0.48232785336E+02 -0.21344911413E+02  0.30252956538E+03  0.30709305552E+03  0.00000000000E+00 0.  1.
         14    1    6    6    0    0 -0.11997676805E+02 -0.40174575737E+01  0.56935853587E+03  0.56949910148E+03  0.00000000000E+00 0. -1.
         -5    1    3    3    0  503 -0.63702796714E+01  0.10049773898E+02 -0.10403742396E+02  0.16489580781E+02  0.47000000000E+01 0.  1.
         13    1    4    4    0    0  0.29786209552E+02 -0.69924373505E+01  0.11476248125E+03  0.11877095421E+03  0.00000000000E+00 0. -1.
        -14    1    4    4    0    0 -0.40381985141E+02 -0.70690220342E+02  0.41847682733E+03  0.42632225721E+03  0.00000000000E+00 0.  1.
</event>
<event>
12    1  0.8407180E-002  0.2167219E+03  0.7818608E-02  0.1136501E+00
         21   -1    0    0  501  502  0.00000000000E+00  0.00000000000E+00  0.56386150678E+03  0.56386150678E+03  0.00000000000E+00 0. -1.
         21   -1    0    0  502  503 -0.00000000000E+00 -0.00000000000E+00 -0.86574908815E+02  0.86574908815E+02  0.00000000000E+00 0.  1.
         -6    2    1    2    0  503 -0.12648020141E+03 -0.33204062150E+02  0.30436625405E+03  0.37318234899E+03  0.17183276143E+03 0.  0.
        -24    2    3    3    0    0 -0.66622724172E+02 -0.30104493338E+02  0.29204241605E+03  0.31181059741E+03  0.81192413374E+02 0.  0.
          6    2    1    2  501    0  0.12648020141E+03  0.33204062150E+02  0.17292034392E+03  0.27725406661E+03  0.17282540617E+03 0.  0.
         24    2    5    5    0    0  0.81017708501E+02  0.88765575813E+02  0.11644616719E+03  0.18579181921E+03  0.80719846952E+02 0.  0.
          5    1    5    5  501    0  0.45462492912E+02 -0.55561513663E+02  0.56474176731E+02  0.91462247402E+02  0.47000000000E+01 0. -1.
        -13    1    6    6    0    0  0.36385228419E+02 -0.72293612902E+01  0.43805743438E+02  0.57402889038E+02  0.00000000000E+00 0.  1.
         14    1    6    6    0    0  0.44632480082E+02  0.95994937104E+02  0.72640423750E+02  0.12838893017E+03  0.00000000000E+00 0. -1.
         -5    1    3    3    0  503 -0.59857477241E+02 -0.30995688125E+01  0.12323837996E+02  0.61371751576E+02  0.47000000000E+01 0.  1.
         11    1    4    4    0    0 -0.45527532035E+02  0.22198393460E+02  0.16964688153E+03  0.17704685611E+03  0.00000000000E+00 0. -1.
        -12    1    4    4    0    0 -0.21095192137E+02 -0.52302886798E+02  0.12239553452E+03  0.13476374130E+03  0.00000000000E+00 0.  1.
</event>
<event>
12    1  0.8407180E-002  0.2336748E+03  0.7818608E-02  0.1124796E+00
         21   -1    0    0  503  502  0.00000000000E+00  0.00000000000E+00  0.37647749826E+03  0.37647749826E+03  0.00000000000E+00 0. -1.
         21   -1    0    0  501  503 -0.00000000000E+00 -0.00000000000E+00 -0.20796195960E+03  0.20796195960E+03  0.00000000000E+00 0.  1.
          6    2    1    2  501    0  0.14083607490E+03  0.60101490053E+02 -0.80208811736E+02  0.24316578998E+03  0.17102385458E+03 0.  0.
         24    2    3    3    0    0  0.34722331437E+02  0.81142624032E+02 -0.27873691879E+02  0.12289979045E+03  0.80855736090E+02 0.  0.
         -6    2    1    2    0  502 -0.14083607490E+03 -0.60101490053E+02  0.24872435040E+03  0.34127366788E+03  0.17651324258E+03 0.  0.
        -24    2    5    5    0    0 -0.57950778897E+02  0.92400537228E+01  0.19780609703E+03  0.22172041400E+03  0.81172770032E+02 0.  0.
          5    1    3    3  501    0  0.10611374346E+03 -0.21041133979E+02 -0.52335119857E+02  0.12026599952E+03  0.47000000000E+01 0. -1.
        -11    1    4    4    0    0  0.15594372693E+01  0.83695089670E+01 -0.40984213385E+02  0.41859124116E+02  0.00000000000E+00 0.  1.
         12    1    4    4    0    0  0.33162894168E+02  0.72773115065E+02  0.13110521506E+02  0.81040666335E+02  0.00000000000E+00 0. -1.
         -5    1    5    5    0  502 -0.82885296004E+02 -0.69341543776E+02  0.50918253364E+02  0.11955325388E+03  0.47000000000E+01 0.  1.
         11    1    6    6    0    0 -0.28296783414E+02  0.77036192448E+01  0.18825908500E+03  0.19052962181E+03  0.00000000000E+00 0. -1.
        -12    1    6    6    0    0 -0.29653995483E+02  0.15364344780E+01  0.95470120329E+01  0.31190792196E+02  0.00000000000E+00 0.  1.
</event>
<event>
12    1  0.8407180E-002  0.7259367E+03  0.7818608E-02  0.9673900E-01
         21   -1    0    0  501  502  0.00000000000E+00  0.00000000000E+00  0.38954003743E+03  0.38954003743E+03  0.00000000000E+00 0. -1.
         21   -1    0    0  502  503 -0.00000000000E+00 -0.00000000000E+00 -0.14106224165E+04  0.14106224165E+04  0.00000000000E+00 0.  1.
         -6    2    1    2    0  503 -0.69469101292E+03 -0.12058935963E+03 -0.69285978727E+03  0.10034729513E+04  0.17252791698E+03 0.  0.
        -24    2    3    3    0    0 -0.53147386796E+03 -0.70320590491E+02 -0.43944249452E+03  0.69784376453E+03  0.80416142178E+02 0.  0.
          6    2    1    2  501    0  0.69469101292E+03  0.12058935963E+03 -0.32822259175E+03  0.79668950255E+03  0.17276196529E+03 0.  0.
         24    2    5    5    0    0  0.15966562647E+03  0.48362941717E+02 -0.10319301270E+03  0.21177137064E+03  0.79788652982E+02 0.  0.
          5    1    5    5  501    0  0.53502538645E+03  0.72226417915E+02 -0.22502957906E+03  0.58491813192E+03  0.47000000000E+01 0. -1.
        -11    1    6    6    0    0  0.35404862038E+02 -0.19052786612E+02 -0.70837217848E+01  0.40825139901E+02  0.00000000000E+00 0.  1.
         12    1    6    6    0    0  0.12426076443E+03  0.67415728329E+02 -0.96109290914E+02  0.17094623073E+03  0.00000000000E+00 0. -1.
         -5    1    3    3    0  503 -0.16321714496E+03 -0.50268769141E+02 -0.25341729275E+03  0.30562918680E+03  0.47000000000E+01 0.  1.
         13    1    4    4    0    0 -0.20422575647E+03 -0.33565006181E+02 -0.12094169993E+03  0.23971162681E+03  0.00000000000E+00 0. -1.
        -14    1    4    4    0    0 -0.32724811150E+03 -0.36755584310E+02 -0.31850079460E+03  0.45813213772E+03  0.00000000000E+00 0.  1.
</event>
<event>
12    1  0.8407180E-002  0.2363248E+03  0.7818608E-02  0.1122271E+00
         21   -1    0    0  501  502  0.00000000000E+00  0.00000000000E+00  0.19554663397E+03  0.19554663397E+03  0.00000000000E+00 0. -1.
         21   -1    0    0  502  503 -0.00000000000E+00 -0.00000000000E+00 -0.34179101070E+03  0.34179101070E+03  0.00000000000E+00 0. -1.
         -6    2    1    2    0  503  0.16103767869E+03 -0.19247167726E+02 -0.18208552767E+03  0.29831047255E+03  0.17184414807E+03 0.  0.
        -24    2    3    3    0    0  0.17444714733E+03 -0.49530607501E+02 -0.17731962662E+03  0.26452135616E+03  0.75127954765E+02 0.  0.
          6    2    1    2  501    0 -0.16103767869E+03  0.19247167726E+02  0.35841150936E+02  0.23902717212E+03  0.17188895685E+03 0.  0.
         24    2    5    5    0    0 -0.13849979308E+03 -0.42908655791E+02  0.49595058429E+02  0.17133254414E+03  0.76627837224E+02 0.  0.
          5    1    5    5  501    0 -0.22537885607E+02  0.62155823517E+02 -0.13753907494E+02  0.67694627970E+02  0.47000000000E+01 0. -1.
        -11    1    6    6    0    0 -0.37668579491E+02 -0.27085069515E+02 -0.17057324357E+02  0.49431520164E+02  0.00000000000E+00 0.  1.
         12    1    6    6    0    0 -0.10083121359E+03 -0.15823586276E+02  0.66652382786E+02  0.12190102398E+03  0.00000000000E+00 0. -1.
         -5    1    3    3    0  503 -0.13409468645E+02  0.30283439775E+02 -0.47659010454E+01  0.33789116394E+02  0.47000000000E+01 0.  1.
         11    1    4    4    0    0  0.66999545313E+02 -0.48322842397E+02 -0.45010157632E+02  0.94074175306E+02  0.00000000000E+00 0. -1.
        -12    1    4    4    0    0  0.10744760202E+03 -0.12077651034E+01 -0.13230946899E+03  0.17044718085E+03  0.00000000000E+00 0.  1.
</event>
<event>
12    1  0.8407180E-002  0.1913973E+03  0.7818608E-02  0.1157652E+00
         21   -1    0    0  503  502  0.00000000000E+00  0.00000000000E+00  0.53036395025E+02  0.53036395025E+02  0.00000000000E+00 0. -1.
         21   -1    0    0  501  503 -0.00000000000E+00 -0.00000000000E+00 -0.83837375864E+03  0.83837375864E+03  0.00000000000E+00 0. -1.
          6    2    1    2  501    0  0.38695952560E+02 -0.70480141784E+02 -0.19948809584E+03  0.27508858080E+03  0.17150335208E+03 0.  0.
         24    2    3    3    0    0 -0.25042209887E+02 -0.22445533554E+02 -0.16531068072E+03  0.18813996009E+03  0.83295313009E+02 0.  0.
         -6    2    1    2    0  502 -0.38695952560E+02  0.70480141784E+02 -0.58584926777E+03  0.61632157286E+03  0.17368963554E+03 0.  0.
        -24    2    5    5    0    0  0.29003741768E+02  0.64076577909E+02 -0.46906164132E+03  0.48109696735E+03  0.80550876874E+02 0.  0.
          5    1    3    3  501    0  0.63738162447E+02 -0.48034608231E+02 -0.34177415122E+02  0.86948620716E+02  0.47000000000E+01 0. -1.
        -11    1    4    4    0    0 -0.25843072922E+02  0.25343329457E+02 -0.39600156265E+02  0.53649987346E+02  0.00000000000E+00 0.  1.
         12    1    4    4    0    0  0.80086303563E+00 -0.47788863010E+02 -0.12571052445E+03  0.13448997274E+03  0.00000000000E+00 0. -1.
         -5    1    5    5    0  502 -0.67699694328E+02  0.64035638760E+01 -0.11678762645E+03  0.13522460551E+03  0.47000000000E+01 0.  1.
         13    1    6    6    0    0 -0.71780144311E+01  0.25207529413E+02 -0.34621543839E+02  0.43423435240E+02  0.00000000000E+00 0. -1.
        -14    1    6    6    0    0  0.36181756199E+02  0.38869048496E+02 -0.43444009748E+03  0.43767353211E+03  0.00000000000E+00 0.  1.
</event>
<event>
12    1  0.8407180E-002  0.1929841E+03  0.7818608E-02  0.1156025E+00
         21   -1    0    0  503  502  0.00000000000E+00  0.00000000000E+00  0.11427312318E+03  0.11427312318E+03  0.00000000000E+00 0.  1.
         21   -1    0    0  501  503 -0.00000000000E+00 -0.00000000000E+00 -0.32425297668E+03  0.32425297668E+03  0.00000000000E+00 0.  1.
          6    2    1    2  501    0 -0.34977149257E+02  0.78225764580E+02 -0.10865377668E+03  0.22146900395E+03  0.17291675833E+03 0.  0.
         24    2    3    3    0    0 -0.20309017821E+02  0.12159747201E+03 -0.79203439701E+02  0.16682770608E+03  0.79748963956E+02 0.  0.
         -6    2    1    2    0  502  0.34977149257E+02 -0.78225764580E+02 -0.10132607682E+03  0.21705709591E+03  0.17176768564E+03 0.  0.
        -24    2    5    5    0    0 -0.48703070181E+01 -0.54957244959E+02  0.77294906590E+01  0.98547811150E+02  0.81289036116E+02 0.  0.
          5    1    3    3  501    0 -0.14668131436E+02 -0.43371707426E+02 -0.29450336981E+02  0.54641297872E+02  0.47000000000E+01 0. -1.
        -13    1    4    4    0    0  0.22006585760E+02  0.76825194259E+02 -0.66412946815E+02  0.10390899766E+03  0.00000000000E+00 0.  1.
         14    1    4    4    0    0 -0.42315603581E+02  0.44772277747E+02 -0.12790492886E+02  0.62918708421E+02  0.00000000000E+00 0. -1.
         -5    1    5    5    0  502  0.39847456275E+02 -0.23268519621E+02 -0.10905556748E+03  0.11850928476E+03  0.47000000000E+01 0.  1.
         11    1    6    6    0    0  0.17393824516E+02 -0.50584540158E+01 -0.27937818118E+02  0.33296467824E+02  0.00000000000E+00 0. -1.
        -12    1    6    6    0    0 -0.22264131534E+02 -0.49898790943E+02  0.35667308777E+02  0.65251343326E+02  0.00000000000E+00 0.  1.
</event>
<event>
12    1  0.8407180E-002  0.1952515E+03  0.7818608E-02  0.1154889E+00
         21   -1    0    0  501  502  0.00000000000E+00  0.00000000000E+00  0.17743672106E+04  0.17743672106E+04  0.00000000000E+00 0.  1.
         21   -1    0    0  502  503 -0.00000000000E+00 -0.00000000000E+00 -0.39349084231E+02  0.39349084231E+02  0.00000000000E+00 0.  1.
         -6    2    1    2    0  503  0.85745776273E+02  0.35081101472E+02  0.24155117477E+03  0.30754011030E+03  0.16628568063E+03 0.  0.
        -24    2    3    3    0    0  0.78208830398E+02 -0.15046786496E+02  0.80156774499E+02  0.13830697778E+03  0.79753900642E+02 0.  0.
          6    2    1    2  501    0 -0.85745776273E+02 -0.35081101472E+02  0.14934669516E+04  0.15061761845E+04  0.17187245707E+03 0.  0.
         24    2    5    5    0    0 -0.11727259857E+03  0.54466307199E+01  0.11655069745E+04  0.11741878200E+04  0.80796044954E+02 0.  0.
          5    1    5    5  501    0  0.31526822299E+02 -0.40527732192E+02  0.32795997710E+03  0.33198836453E+03  0.47000000000E+01 0. -1.
        -11    1    6    6    0    0 -0.11209397603E+03 -0.22218864842E+02  0.95170885292E+03  0.95854497972E+03  0.00000000000E+00 0.  1.
         12    1    6    6    0    0 -0.51786225416E+01  0.27665495562E+02  0.21379812158E+03  0.21564284029E+03  0.00000000000E+00 0. -1.
         -5    1    3    3    0  503  0.75369458751E+01  0.50127887968E+02  0.16139440027E+03  0.16923313252E+03  0.47000000000E+01 0.  1.
         13    1    4    4    0    0  0.36536016231E+02  0.30611377990E+02  0.51495266706E+02  0.70169077502E+02  0.00000000000E+00 0. -1.
        -14    1    4    4    0    0  0.41672814167E+02 -0.45658164486E+02  0.28661507794E+02  0.68137900274E+02  0.00000000000E+00 0.  1.
</event>
<event>
12    1  0.8407180E-002  0.1773137E+03  0.7818608E-02  0.1170917E+00
         21   -1    0    0  501  502  0.00000000000E+00  0.00000000000E+00  0.36292420546E+03  0.36292420546E+03  0.00000000000E+00 0. -1.
         21   -1    0    0  502  503 -0.00000000000E+00 -0.00000000000E+00 -0.95867448514E+02  0.95867448514E+02  0.00000000000E+00 0. -1.
         -6    2    1    2    0  503 -0.19905843290E+02 -0.25151658089E+02  0.58052804541E+02  0.18470623389E+03  0.17238740158E+03 0.  0.
        -24    2    3    3    0    0 -0.47086120124E+02 -0.14251215621E+02 -0.25939295325E+02  0.95631265834E+02  0.77796478764E+02 0.  0.
          6    2    1    2  501    0  0.19905843290E+02  0.25151658089E+02  0.20900395240E+03  0.27408542008E+03  0.17438840810E+03 0.  0.
         24    2    5    5    0    0 -0.29103312805E+02 -0.38423303954E+02  0.95822454540E+02  0.13524805249E+03  0.82381671542E+02 0.  0.
          5    1    5    5  501    0  0.49009156095E+02  0.63574962043E+02  0.11318149786E+03  0.13883736759E+03  0.47000000000E+01 0. -1.
        -11    1    6    6    0    0 -0.54730087927E+02 -0.13838136948E+02  0.75695653974E+02  0.94428325143E+02  0.00000000000E+00 0.  1.
         12    1    6    6    0    0  0.25626775122E+02 -0.24585167006E+02  0.20126800565E+02  0.40819727349E+02  0.00000000000E+00 0. -1.
         -5    1    3    3    0  503  0.27180276834E+02 -0.10900442468E+02  0.83992099866E+02  0.89074968058E+02  0.47000000000E+01 0.  1.
         11    1    4    4    0    0 -0.76419952514E+01 -0.29150242865E+02  0.17700937496E+02  0.34949391107E+02  0.00000000000E+00 0. -1.
        -12    1    4    4    0    0 -0.39444124873E+02  0.14899027244E+02 -0.43640232821E+02  0.60681874727E+02  0.00000000000E+00 0.  1.
</event>
<event>
12    1  0.8407180E-002  0.1763893E+03  0.7818608E-02  0.1171625E+00
         21   -1    0    0  503  502  0.00000000000E+00  0.00000000000E+00  0.81592410411E+02  0.81592410411E+02  0.00000000000E+00 0. -1.
         21   -1    0    0  501  503 -0.00000000000E+00 -0.00000000000E+00 -0.38342217827E+03  0.38342217827E+03  0.00000000000E+00 0. -1.
          6    2    1    2  501    0 -0.34141021236E+02  0.11975297094E+02 -0.17571875538E+03  0.24818018629E+03  0.17148558774E+03 0.  0.
         24    2    3    3    0    0 -0.78976824184E+02 -0.23159400443E+01 -0.71696122317E+02  0.13391170037E+03  0.80927790065E+02 0.  0.
         -6    2    1    2    0  502  0.34141021236E+02 -0.11975297094E+02 -0.12611101248E+03  0.21683440239E+03  0.17263879494E+03 0.  0.
        -24    2    5    5    0    0 -0.47337485254E+02 -0.15981292923E+02 -0.28891822906E+02  0.89836544754E+02  0.68844957032E+02 0.  0.
          5    1    3    3  501    0  0.44835802948E+02  0.14291237139E+02 -0.10402263306E+03  0.11426848592E+03  0.47000000000E+01 0. -1.
        -11    1    4    4    0    0 -0.83120718076E+01 -0.26297719705E+02  0.37040350013E+01  0.27827692587E+02  0.00000000000E+00 0.  1.
         12    1    4    4    0    0 -0.70664752377E+02  0.23981779661E+02 -0.75400157318E+02  0.10608400779E+03  0.00000000000E+00 0. -1.
         -5    1    5    5    0  502  0.81478506491E+02  0.40059958287E+01 -0.97219189570E+02  0.12699785763E+03  0.47000000000E+01 0.  1.
         13    1    6    6    0    0  0.66768622206E+01 -0.25380380116E+02  0.29914369354E+01  0.26413876635E+02  0.00000000000E+00 0. -1.
        -14    1    6    6    0    0 -0.54014347475E+02  0.93990871931E+01 -0.31883259841E+02  0.63422668119E+02  0.00000000000E+00 0.  1.
</event>
<event>
12    1  0.8407180E-002  0.1983946E+03  0.7818608E-02  0.1151909E+00
         21   -1    0    0  503  502  0.00000000000E+00  0.00000000000E+00  0.12310057671E+03  0.12310057671E+03  0.00000000000E+00 0.  1.
         21   -1    0    0  501  503 -0.00000000000E+00 -0.00000000000E+00 -0.32186090821E+03  0.32186090821E+03  0.00000000000E+00 0.  1.
          6    2    1    2  501    0 -0.90533351376E+02 -0.21213131856E+02 -0.13568557981E+03  0.24035600338E+03  0.17525452096E+03 0.  0.
         24    2    3    3    0    0 -0.24312588088E+02  0.59460138604E+01  0.31031919730E+01  0.84127894964E+02  0.80258431896E+02 0.  0.
         -6    2    1    2    0  502  0.90533351376E+02  0.21213131856E+02 -0.63074751701E+02  0.20460548155E+03  0.17099325747E+03 0.  0.
        -24    2    5    5    0    0  0.59135888067E+02 -0.53519141365E+02 -0.34538665734E+02  0.11854090367E+03  0.80608155057E+02 0.  0.
          5    1    3    3  501    0 -0.66220763288E+02 -0.27159145717E+02 -0.13878877178E+03  0.15622810841E+03  0.47000000000E+01 0. -1.
        -13    1    4    4    0    0 -0.49554822974E+02 -0.59735947041E+01 -0.13424044432E+02  0.51687225526E+02  0.00000000000E+00 0.  1.
         14    1    4    4    0    0  0.25242234887E+02  0.11919608564E+02  0.16527236405E+02  0.32440669438E+02  0.00000000000E+00 0. -1.
         -5    1    5    5    0  502  0.31397463309E+02  0.74732273221E+02 -0.28536085967E+02  0.86064577878E+02  0.47000000000E+01 0.  1.
         11    1    6    6    0    0  0.78926449915E+02 -0.49601377299E+02 -0.28799757337E+02  0.97565911817E+02  0.00000000000E+00 0. -1.
        -12    1    6    6    0    0 -0.19790561848E+02 -0.39177640662E+01 -0.57389083969E+01  0.20974991850E+02  0.00000000000E+00 0.  1.
</event>
<event>
12    1  0.8407180E-002  0.2392396E+03  0.7818608E-02  0.1120602E+00
         21   -1    0    0  501  502  0.00000000000E+00  0.00000000000E+00  0.18401991178E+03  0.18401991178E+03  0.00000000000E+00 0.  1.
         21   -1    0    0  502  503 -0.00000000000E+00 -0.00000000000E+00 -0.31137821018E+03  0.31137821018E+03  0.00000000000E+00 0. -1.
         -6    2    1    2    0  503 -0.14381590619E+03  0.82188123334E+02 -0.40474789389E+02  0.24087048535E+03  0.17012489426E+03 0.  0.
        -24    2    3    3    0    0 -0.56117079666E+02  0.32727233496E+02 -0.81657553956E+02  0.13198718133E+03  0.80823644284E+02 0.  0.
          6    2    1    2  501    0  0.14381590619E+03 -0.82188123334E+02 -0.86883509016E+02  0.25452763661E+03  0.17262001960E+03 0.  0.
         24    2    5    5    0    0  0.89557752809E+02 -0.37731984869E+02  0.26880049938E+02  0.12079457113E+03  0.66516896800E+02 0.  0.
          5    1    5    5  501    0  0.54258153377E+02 -0.44456138465E+02 -0.11376355895E+03  0.13373306547E+03  0.47000000000E+01 0. -1.
        -11    1    6    6    0    0  0.75880044612E+02 -0.99450206262E+01 -0.45566614552E+01  0.76664514407E+02  0.00000000000E+00 0.  1.
         12    1    6    6    0    0  0.13677708197E+02 -0.27786964242E+02  0.31436711393E+02  0.44130056725E+02  0.00000000000E+00 0. -1.
         -5    1    3    3    0  503 -0.87698826519E+02  0.49460889838E+02  0.41182764567E+02  0.10888330402E+03  0.47000000000E+01 0.  1.
         13    1    4    4    0    0 -0.61098883524E+01  0.18854152224E+02  0.13234083292E+02  0.23831717361E+02  0.00000000000E+00 0. -1.
        -14    1    4    4    0    0 -0.50007191314E+02  0.13873081271E+02 -0.94891637249E+02  0.10815546397E+03  0.00000000000E+00 0.  1.
</event>
<event>
12    1  0.8407180E-002  0.2930609E+03  0.7818608E-02  0.1088809E+00
         21   -1    0    0  503  502  0.00000000000E+00  0.00000000000E+00  0.57183090611E+03  0.57183090611E+03  0.00000000000E+00 0. -1.
         21   -1    0    0  501  503 -0.00000000000E+00 -0.00000000000E+00 -0.15093180843E+03  0.15093180843E+03  0.00000000000E+00 0.  1.
          6    2    1    2  501    0 -0.22679764467E+03 -0.69252899098E+02  0.18228236841E+03  0.34512542803E+03  0.17219629374E+03 0.  0.
         24    2    3    3    0    0 -0.90175268225E+02 -0.75915843478E+02  0.40340854171E+02  0.14794644325E+03  0.79787036952E+02 0.  0.
         -6    2    1    2    0  502  0.22679764467E+03  0.69252899098E+02  0.23861672927E+03  0.37763728652E+03  0.17157750733E+03 0.  0.
        -24    2    5    5    0    0  0.62768527998E+02  0.73546868414E+02  0.87857692205E+02  0.15475981672E+03  0.82961417718E+02 0.  0.
          5    1    3    3  501    0 -0.13662237645E+03  0.66629443795E+01  0.14194151424E+03  0.19717898478E+03  0.47000000000E+01 0. -1.
        -11    1    4    4    0    0 -0.65128866551E+02 -0.18295357704E+02  0.50343526805E+02  0.84326508661E+02  0.00000000000E+00 0.  1.
         12    1    4    4    0    0 -0.25046401673E+02 -0.57620485774E+02 -0.10002672635E+02  0.63619934592E+02  0.00000000000E+00 0. -1.
         -5    1    5    5    0  502  0.16402911667E+03 -0.42939693155E+01  0.15075903706E+03  0.22287746980E+03  0.47000000000E+01 0.  1.
         13    1    6    6    0    0 -0.17494980183E+02  0.30408517214E+02  0.15274042042E+02  0.38262888170E+02  0.00000000000E+00 0. -1.
        -14    1    6    6    0    0  0.80263508181E+02  0.43138351200E+02  0.72583650163E+02  0.11649692855E+03  0.00000000000E+00 0.  1.
</event>
<event>
12    1  0.8407180E-002  0.1777145E+03  0.7818608E-02  0.1170110E+00
         21   -1    0    0  503  502  0.00000000000E+00  0.00000000000E+00  0.17261032959E+04  0.17261032959E+04  0.00000000000E+00 0.  1.
         21   -1    0    0  501  503 -0.00000000000E+00 -0.00000000000E+00 -0.19845673031E+02  0.19845673031E+02  0.00000000000E+00 0.  1.
          6    2    1    2  501    0 -0.65911815133E+01 -0.42626721315E+02  0.60607525172E+03  0.63150574253E+03  0.17208082708E+03 0.  0.
         24    2    3    3    0    0 -0.44279039740E+02 -0.21094662267E+02  0.56165260602E+03  0.56922038569E+03  0.78438380302E+02 0.  0.
         -6    2    1    2    0  502  0.65911815133E+01  0.42626721315E+02  0.11001823711E+04  0.11144432264E+04  0.17240062081E+03 0.  0.
        -24    2    5    5    0    0 -0.61066512450E+02  0.43295628230E+02  0.65342283317E+03  0.66256471866E+03  0.80168429812E+02 0.  0.
          5    1    3    3  501    0  0.37687858227E+02 -0.21532059048E+02  0.44422645707E+02  0.62285356836E+02  0.47000000000E+01 0. -1.
        -11    1    4    4    0    0 -0.15840380784E+02  0.12627874653E+01  0.16640621615E+02  0.23009184760E+02  0.00000000000E+00 0.  1.
         12    1    4    4    0    0 -0.28438658956E+02 -0.22357449732E+02  0.54501198440E+03  0.54621120093E+03  0.00000000000E+00 0. -1.
         -5    1    5    5    0  502  0.67657693964E+02 -0.66890691496E+00  0.44675953793E+03  0.45187850770E+03  0.47000000000E+01 0.  1.
         13    1    6    6    0    0 -0.38633845861E+02 -0.97573199365E+01  0.42978051149E+03  0.43162375675E+03  0.00000000000E+00 0. -1.
        -14    1    6    6    0    0 -0.22432666589E+02  0.53052948166E+02  0.22364232168E+03  0.23094096191E+03  0.00000000000E+00 0.  1.
</event>
<event>
12    1  0.8407180E-002  0.1738082E+03  0.7818608E-02  0.1174727E+00
         21   -1    0    0  501  502  0.00000000000E+00  0.00000000000E+00  0.65286401353E+02  0.65286401353E+02  0.00000000000E+00 0. -1.
         21   -1    0    0  502  503 -0.00000000000E+00 -0.00000000000E+00 -0.53037242203E+03  0.53037242203E+03  0.00000000000E+00 0. -1.
         -6    2    1    2    0  503  0.90020422145E+01  0.61215048036E+01 -0.34697799450E+03  0.38807603491E+03  0.17346691505E+03 0.  0.
        -24    2    3    3    0    0  0.23858496571E+02 -0.61535181158E+02 -0.20203369319E+03  0.22736174844E+03  0.80746176947E+02 0.  0.
          6    2    1    2  501    0 -0.90020422145E+01 -0.61215048036E+01 -0.11810802617E+03  0.20758278847E+03  0.17036020263E+03 0.  0.
         24    2    5    5    0    0 -0.11999305113E+02  0.13294751097E+01  0.71525691118E+01  0.81977026594E+02  0.80767089938E+02 0.  0.
          5    1    5    5  501    0  0.29972628988E+01 -0.74509799133E+01 -0.12526059528E+03  0.12560576188E+03  0.47000000000E+01 0. -1.
        -13    1    6    6    0    0 -0.26895120287E+02  0.14868295991E+02 -0.27931816548E+02  0.41528304764E+02  0.00000000000E+00 0.  1.
         14    1    6    6    0    0  0.14895815174E+02 -0.13538820881E+02  0.35084385660E+02  0.40448721830E+02  0.00000000000E+00 0. -1.
         -5    1    3    3    0  503 -0.14856454356E+02  0.67656685962E+02 -0.14494430131E+03  0.16071428647E+03  0.47000000000E+01 0.  1.
         11    1    4    4    0    0  0.20133137019E+01 -0.74211356436E+02 -0.17635480397E+03  0.19134365874E+03  0.00000000000E+00 0. -1.
        -12    1    4    4    0    0  0.21845182869E+02  0.12676175278E+02 -0.25678889219E+02  0.36018089702E+02  0.00000000000E+00 0.  1.
</event>
<event>
12    1  0.8407180E-002  0.2349788E+03  0.7818608E-02  0.1123204E+00
         21   -1    0    0  503  502  0.00000000000E+00  0.00000000000E+00  0.47885095506E+03  0.47885095506E+03  0.00000000000E+00 0. -1.
         21   -1    0    0  501  503 -0.00000000000E+00 -0.00000000000E+00 -0.13951768975E+03  0.13951768975E+03  0.00000000000E+00 0. -1.
          6    2    1    2  501    0  0.11379233892E+03 -0.11496641718E+03  0.40748641649E+02  0.23848581571E+03  0.17043784504E+03 0.  0.
         24    2    3    3    0    0  0.12084752904E+03 -0.65068595035E+02  0.76937551369E+02  0.17626607969E+03  0.79449963531E+02 0.  0.
         -6    2    1    2    0  502 -0.11379233892E+03  0.11496641718E+03  0.29858462366E+03  0.37988282910E+03  0.17027099836E+03 0.  0.
        -24    2    5    5    0    0 -0.21050635414E+02  0.73595313475E+02  0.69734816590E+02  0.12946933908E+03  0.77717216234E+02 0.  0.
          5    1    3    3  501    0 -0.70551901248E+01 -0.49897822150E+02 -0.36188909720E+02  0.62219736014E+02  0.47000000000E+01 0. -1.
        -13    1    4    4    0    0  0.66218728173E+01 -0.16750440713E+01  0.39898555881E+02  0.40479003615E+02  0.00000000000E+00 0.  1.
         14    1    4    4    0    0  0.11422565622E+03 -0.63393550964E+02  0.37038995488E+02  0.13578707608E+03  0.00000000000E+00 0. -1.
         -5    1    5    5    0  502 -0.92741703501E+02  0.41371103710E+02  0.22884980707E+03  0.25041349003E+03  0.47000000000E+01 0.  1.
         13    1    6    6    0    0 -0.23050986084E+02  0.56170768856E+02  0.86183923142E+02  0.10542377266E+03  0.00000000000E+00 0. -1.
        -14    1    6    6    0    0  0.20003506701E+01  0.17424544618E+02 -0.16449106552E+02  0.24045566417E+02  0.00000000000E+00 0.  1.
</event>
<event>
12    1  0.8407180E-002  0.2602227E+03  0.7818608E-02  0.1107123E+00
         21   -1    0    0  501  502  0.00000000000E+00  0.00000000000E+00  0.13728042831E+04  0.13728042831E+04  0.00000000000E+00 0. -1.
         21   -1    0    0  502  503 -0.00000000000E+00 -0.00000000000E+00 -0.84330879064E+02  0.84330879064E+02  0.00000000000E+00 0.  1.
         -6    2    1    2    0  503 -0.74003289534E+02 -0.18025977335E+03  0.17443117983E+03  0.31327636671E+03  0.17246962832E+03 0.  0.
        -24    2    3    3    0    0  0.97587896407E+01 -0.13901230471E+03  0.14000758580E+03  0.21365451468E+03  0.81403149350E+02 0.  0.
          6    2    1    2  501    0  0.74003289534E+02  0.18025977335E+03  0.11140422242E+04  0.11438587954E+04  0.17132657081E+03 0.  0.
         24    2    5    5    0    0 -0.80407955306E+01  0.26363046527E+02  0.38824320644E+03  0.39738593016E+03  0.80144404230E+02 0.  0.
          5    1    5    5  501    0  0.82044085064E+02  0.15389672682E+03  0.72579901776E+03  0.74647286528E+03  0.47000000000E+01 0. -1.
        -13    1    6    6    0    0 -0.10849164521E+02  0.18372082490E+02  0.20642154414E+02  0.29687309151E+02  0.00000000000E+00 0.  1.
         14    1    6    6    0    0  0.28083689901E+01  0.79909640372E+01  0.36760105202E+03  0.36769862101E+03  0.00000000000E+00 0. -1.
         -5    1    3    3    0  503 -0.83762079174E+02 -0.41247468639E+02  0.34423594025E+02  0.99621852032E+02  0.47000000000E+01 0.  1.
         13    1    4    4    0    0  0.24255051324E+02 -0.63677720097E+01  0.38721875383E+02  0.46132848040E+02  0.00000000000E+00 0. -1.
        -14    1    4    4    0    0 -0.14496261683E+02 -0.13264453270E+03  0.10128571042E+03  0.16752166664E+03  0.00000000000E+00 0.  1.
</event>
<event>
12    1  0.8407180E-002  0.3210114E+03  0.7818608E-02  0.1075220E+00
         21   -1    0    0  501  502  0.00000000000E+00  0.00000000000E+00  0.29183135542E+03  0.29183135542E+03  0.00000000000E+00 0.  1.
         21   -1    0    0  502  503 -0.00000000000E+00 -0.00000000000E+00 -0.38514207990E+03  0.38514207990E+03  0.00000000000E+00 0.  1.
         -6    2    1    2    0  503 -0.84390171609E+02 -0.25383276783E+03 -0.14480996899E+03  0.35216227649E+03  0.17746990387E+03 0.  0.
        -24    2    3    3    0    0  0.27732508953E+02 -0.11823618750E+03 -0.58277542457E+02  0.15602997693E+03  0.78741308454E+02 0.  0.
          6    2    1    2  501    0  0.84390171609E+02  0.25383276783E+03  0.51499244515E+02  0.32481115883E+03  0.17691054696E+03 0.  0.
         24    2    5    5    0    0  0.93439086168E+02  0.25997736620E+03  0.16543367412E+02  0.28788363132E+03  0.79272999275E+02 0.  0.
          5    1    5    5  501    0 -0.90489145582E+01 -0.61445983757E+01  0.34955877103E+02  0.36927527509E+02  0.47000000000E+01 0. -1.
        -13    1    6    6    0    0 -0.48038623386E+01  0.80154161455E+02 -0.11305523733E+02  0.81089959667E+02  0.00000000000E+00 0.  1.
         14    1    6    6    0    0  0.98242948506E+02  0.17982320475E+03  0.27848891145E+02  0.20679367165E+03  0.00000000000E+00 0. -1.
         -5    1    3    3    0  503 -0.11212268056E+03 -0.13559658032E+03 -0.86532426533E+02  0.19613229957E+03  0.47000000000E+01 0.  1.
         11    1    4    4    0    0 -0.24733853205E+02 -0.15658207648E+02 -0.15534588084E+02  0.33140102415E+02  0.00000000000E+00 0. -1.
        -12    1    4    4    0    0  0.52466362158E+02 -0.10257797985E+03 -0.42742954373E+02  0.12288987451E+03  0.00000000000E+00 0.  1.
</event>
<event>
12    1  0.8407180E-002  0.2326590E+03  0.7818608E-02  0.1125217E+00
         21   -1    0    0  503  502  0.00000000000E+00  0.00000000000E+00  0.31315788475E+03  0.31315788475E+03  0.00000000000E+00 0. -1.
         21   -1    0    0  501  503 -0.00000000000E+00 -0.00000000000E+00 -0.17237206825E+03  0.17237206825E+03  0.00000000000E+00 0. -1.
          6    2    1    2  501    0 -0.13285256620E+03 -0.75223025509E+02  0.49161509819E+02  0.23779621793E+03  0.17556161112E+03 0.  0.
         24    2    3    3    0    0  0.10646455371E+01 -0.29586360535E+02 -0.16729430194E+00  0.87889761411E+02  0.82753223343E+02 0.  0.
         -6    2    1    2    0  502  0.13285256620E+03  0.75223025509E+02  0.91624306688E+02  0.24773373507E+03  0.17224599271E+03 0.  0.
        -24    2    5    5    0    0  0.74024684957E+02  0.77909729734E+02 -0.62478446733E+01  0.13341406921E+03  0.78807983916E+02 0.  0.
          5    1    3    3  501    0 -0.13391721174E+03 -0.45636664974E+02  0.49328804121E+02  0.14990645652E+03  0.47000000000E+01 0. -1.
        -11    1    4    4    0    0 -0.15643911044E+02  0.19123649037E+02 -0.20915195406E+02  0.32371149255E+02  0.00000000000E+00 0.  1.
         12    1    4    4    0    0  0.16708556581E+02 -0.48710009572E+02  0.20747901104E+02  0.55518612156E+02  0.00000000000E+00 0. -1.
         -5    1    5    5    0  502  0.58827881244E+02 -0.26867042249E+01  0.97872151361E+02  0.11431966586E+03  0.47000000000E+01 0.  1.
         11    1    6    6    0    0  0.38420559376E+01  0.11329108059E+02  0.28272879459E+02  0.30699605798E+02  0.00000000000E+00 0. -1.
        -12    1    6    6    0    0  0.70182629019E+02  0.66580621675E+02 -0.34520724132E+02  0.10271446341E+03  0.00000000000E+00 0.  1.
</event>
<event>
12    1  0.8407180E-002  0.2383855E+03  0.7818608E-02  0.1123181E+00
         21   -1    0    0  501  502  0.00000000000E+00  0.00000000000E+00  0.36413043918E+02  0.36413043918E+02  0.00000000000E+00 0. -1.
         21   -1    0    0  502  503 -0.00000000000E+00 -0.00000000000E+00 -0.16102883978E+04  0.16102883978E+04  0.00000000000E+00 0.  1.
         -6    2    1    2    0  503 -0.16432706609E+03 -0.16250320214E+02 -0.52736204627E+03  0.57338055158E+03  0.15292832156E+03 0.  0.
        -24    2    3    3    0    0 -0.18269808442E+03 -0.11937826456E+02 -0.50792958413E+03  0.54588868912E+03  0.80504016860E+02 0.  0.
          6    2    1    2  501    0  0.16432706609E+03  0.16250320214E+02 -0.10465133076E+04  0.10733208901E+04  0.17193072042E+03 0.  0.
         24    2    5    5    0    0  0.15578446549E+03 -0.13040121678E+02 -0.58404678709E+03  0.60982517428E+03  0.79606841470E+02 0.  0.
          5    1    5    5  501    0  0.85426005955E+01  0.29290441893E+02 -0.46246652052E+03  0.46349571586E+03  0.47000000000E+01 0. -1.
        -11    1    6    6    0    0  0.74416371715E+02 -0.10251477884E+02 -0.42024034629E+03  0.42690143807E+03  0.00000000000E+00 0.  1.
         12    1    6    6    0    0  0.81368093780E+02 -0.27886437944E+01 -0.16380644080E+03  0.18292373621E+03  0.00000000000E+00 0. -1.
         -5    1    3    3    0  503  0.18371018327E+02 -0.43124937588E+01 -0.19432462141E+02  0.27491862462E+02  0.47000000000E+01 0.  1.
         11    1    4    4    0    0 -0.10839488306E+03 -0.17146874919E+02 -0.19061409644E+03  0.21994817516E+03  0.00000000000E+00 0. -1.
        -12    1    4    4    0    0 -0.74303201352E+02  0.52090484632E+01 -0.31731548768E+03  0.32594051396E+03  0.00000000000E+00 0.  1.
</event>
<event>
12    1  0.8407180E-002  0.1800843E+03  0.7818608E-02  0.1167856E+00
         21   -1    0    0  503  502  0.00000000000E+00  0.00000000000E+00  0.27656682783E+04  0.27656682783E+04  0.00000000000E+00 0.  1.
         21   -1    0    0  501  503 -0.00000000000E+00 -0.00000000000E+00 -0.27423476518E+02  0.27423476518E+02  0.00000000000E+00 0.  1.
          6    2    1    2  501    0  0.15268421196E+02 -0.48627599121E+02  0.31221414718E+03  0.36042757823E+03  0.17272115496E+03 0.  0.
         24    2    3    3    0    0  0.18002100108E+02 -0.10873288152E+02  0.50746276887E+02  0.96192080632E+02  0.78964724750E+02 0.  0.
         -6    2    1    2    0  502 -0.15268421196E+02  0.48627599121E+02  0.24260306546E+04  0.24326641766E+04  0.17214090416E+03 0.  0.
        -24    2    5    5    0    0 -0.47209489470E+02 -0.17598306100E+02  0.94337463647E+03  0.94817872348E+03  0.80924351449E+02 0.  0.
          5    1    3    3  501    0 -0.27336789116E+01 -0.37754310969E+02  0.26146787029E+03  0.26423549760E+03  0.47000000000E+01 0. -1.
        -11    1    4    4    0    0 -0.14229135514E+01 -0.26889127663E+02 -0.11323471094E+02  0.29210800521E+02  0.00000000000E+00 0.  1.
         12    1    4    4    0    0  0.19425013659E+02  0.16015839510E+02  0.62069747981E+02  0.66981280111E+02  0.00000000000E+00 0. -1.
         -5    1    5    5    0  502  0.31941068274E+02  0.66225905221E+02  0.14826560181E+04  0.14844854531E+04  0.47000000000E+01 0.  1.
         11    1    6    6    0    0 -0.28556572768E+02 -0.26112917950E+02  0.89234612178E+03  0.89318473083E+03  0.00000000000E+00 0. -1.
        -12    1    6    6    0    0 -0.18652916702E+02  0.85146118498E+01  0.51028514690E+02  0.54993992653E+02  0.00000000000E+00 0.  1.
</event>
<event>
12    1  0.8407180E-002  0.2940874E+03  0.7818608E-02  0.1088393E+00
         21   -1    0    0  503  502  0.00000000000E+00  0.00000000000E+00  0.11687818313E+03  0.11687818313E+03  0.00000000000E+00 0.  1.
         21   -1    0    0  501  503 -0.00000000000E+00 -0.00000000000E+00 -0.75666152644E+03  0.75666152644E+03  0.00000000000E+00 0. -1.
          6    2    1    2  501    0  0.64197863738E+02 -0.22762239717E+03 -0.39120101813E+03  0.48941357178E+03  0.17479727189E+03 0.  0.
         24    2    3    3    0    0 -0.26656948871E+02 -0.16228962469E+03 -0.24507557665E+03  0.30530028388E+03  0.78087834285E+02 0.  0.
         -6    2    1    2    0  502 -0.64197863738E+02  0.22762239717E+03 -0.24858232518E+03  0.38412613778E+03  0.17270320186E+03 0.  0.
        -24    2    5    5    0    0 -0.16791665901E+02  0.36161670375E+02 -0.53195021557E+02  0.10645214563E+03  0.83142784070E+02 0.  0.
          5    1    3    3  501    0  0.90854812609E+02 -0.65332772477E+02 -0.14612544148E+03  0.18411328790E+03  0.47000000000E+01 0. -1.
        -13    1    4    4    0    0  0.13212292027E+02 -0.52577830401E+02 -0.33697239243E+02  0.63831785522E+02  0.00000000000E+00 0.  1.
         14    1    4    4    0    0 -0.39869240899E+02 -0.10971179429E+03 -0.21137833740E+03  0.24146849836E+03  0.00000000000E+00 0. -1.
         -5    1    5    5    0  502 -0.47406197837E+02  0.19146072679E+03 -0.19538730362E+03  0.27767399215E+03  0.47000000000E+01 0.  1.
         13    1    6    6    0    0  0.18776878094E+01  0.44262895100E+02 -0.68088823820E+02  0.81233106080E+02  0.00000000000E+00 0. -1.
        -14    1    6    6    0    0 -0.18669353710E+02 -0.81012247252E+01  0.14893802264E+02  0.25219039551E+02  0.00000000000E+00 0.  1.
</event>
<event>
12    1  0.8407180E-002  0.2134801E+03  0.7818608E-02  0.1139011E+00
         21   -1    0    0  501  502  0.00000000000E+00  0.00000000000E+00  0.23289985701E+03  0.23289985701E+03  0.00000000000E+00 0.  1.
         21   -1    0    0  502  503 -0.00000000000E+00 -0.00000000000E+00 -0.25019343094E+03  0.25019343094E+03  0.00000000000E+00 0. -1.
         -6    2    1    2    0  503 -0.60673503304E+02 -0.11059019276E+03 -0.12221803329E+03  0.24522173284E+03  0.17112856529E+03 0.  0.
        -24    2    3    3    0    0 -0.51517092794E+02  0.42654026486E+01 -0.38495446694E+02  0.10271836742E+03  0.79980991992E+02 0.  0.
          6    2    1    2  501    0  0.60673503304E+02  0.11059019276E+03  0.10492445937E+03  0.23787155511E+03  0.17222737825E+03 0.  0.
         24    2    5    5    0    0  0.77100301777E+02  0.13028547549E+03  0.11857206756E+03  0.20844212971E+03  0.80436462954E+02 0.  0.
          5    1    5    5  501    0 -0.16426798474E+02 -0.19695282733E+02 -0.13647608192E+02  0.29429425401E+02  0.47000000000E+01 0. -1.
        -13    1    6    6    0    0  0.70936641680E+02  0.51485341815E+02  0.86487762735E+02  0.12313764923E+03  0.00000000000E+00 0.  1.
         14    1    6    6    0    0  0.61636600971E+01  0.78800133678E+02  0.32084304824E+02  0.85304480477E+02  0.00000000000E+00 0. -1.
         -5    1    3    3    0  503 -0.91564105093E+01 -0.11485559541E+03 -0.83722586594E+02  0.14250336542E+03  0.47000000000E+01 0.  1.
         13    1    4    4    0    0 -0.24239256886E+02 -0.25018506429E+02 -0.50126559243E+02  0.61042109890E+02  0.00000000000E+00 0. -1.
        -14    1    4    4    0    0 -0.27277835909E+02  0.29283909078E+02  0.11631112550E+02  0.41676257532E+02  0.00000000000E+00 0.  1.
</event>
<event>
12    1  0.8407180E-002  0.2490138E+03  0.7818608E-02  0.1113938E+00
         21   -1    0    0  501  502  0.00000000000E+00  0.00000000000E+00  0.11720774449E+03  0.11720774449E+03  0.00000000000E+00 0.  1.
         21   -1    0    0  502  503 -0.00000000000E+00 -0.00000000000E+00 -0.53674674456E+03  0.53674674456E+03  0.00000000000E+00 0. -1.
         -6    2    1    2    0  503 -0.17736978709E+03 -0.35924108785E+02 -0.24925910831E+03  0.35233217731E+03  0.17104758732E+03 0.  0.
        -24    2    3    3    0    0 -0.11269255733E+03  0.18712654983E+02 -0.22498213756E+03  0.26412910870E+03  0.78086156944E+02 0.  0.
          6    2    1    2  501    0  0.17736978709E+03  0.35924108785E+02 -0.17027989176E+03  0.30162231174E+03  0.17096840186E+03 0.  0.
         24    2    5    5    0    0  0.12308515531E+03  0.88672807136E+02 -0.13635758210E+03  0.21854367719E+03  0.78454614029E+02 0.  0.
          5    1    5    5  501    0  0.54284631784E+02 -0.52748698351E+02 -0.33922309669E+02  0.83078634551E+02  0.47000000000E+01 0. -1.
        -13    1    6    6    0    0  0.34821221419E+02  0.27678974438E+02  0.70007236370E+00  0.44487449785E+02  0.00000000000E+00 0.  1.
         14    1    6    6    0    0  0.88263933886E+02  0.60993832698E+02 -0.13705765446E+03  0.17405622740E+03  0.00000000000E+00 0. -1.
         -5    1    3    3    0  503 -0.64677229755E+02 -0.54636763768E+02 -0.24276970756E+02  0.88203068613E+02  0.47000000000E+01 0.  1.
         11    1    4    4    0    0 -0.28038614301E+01 -0.25101213035E+01 -0.84183289387E+02  0.84267363551E+02  0.00000000000E+00 0. -1.
        -12    1    4    4    0    0 -0.10988869590E+03  0.21222776286E+02 -0.14079884817E+03  0.17986174514E+03  0.00000000000E+00 0.  1.
</event>
<event>
12    1  0.8407180E-002  0.1815508E+03  0.7818608E-02  0.1166393E+00
         21   -1    0    0  503  502  0.00000000000E+00  0.00000000000E+00  0.51549226230E+02  0.51549226230E+02  0.00000000000E+00 0.  1.
         21   -1    0    0  501  503 -0.00000000000E+00 -0.00000000000E+00 -0.70152000270E+03  0.70152000270E+03  0.00000000000E+00 0.  1.
          6    2    1    2  501    0  0.37010503369E+02  0.42433903831E+02 -0.43840495687E+03  0.47450986116E+03  0.17259863435E+03 0.  0.
         24    2    3    3    0    0 -0.16362361773E+02  0.12102468182E+02 -0.14235037995E+03  0.17212093736E+03  0.94592757584E+02 0.  0.
         -6    2    1    2    0  502 -0.37010503369E+02 -0.42433903831E+02 -0.21156581960E+03  0.27855936777E+03  0.17223475780E+03 0.  0.
        -24    2    5    5    0    0 -0.59620761210E+02 -0.15769567134E+02 -0.22047696861E+03  0.24217655331E+03  0.78968822139E+02 0.  0.
          5    1    3    3  501    0  0.53372865142E+02  0.30331435649E+02 -0.29605457692E+03  0.30238892380E+03  0.47000000000E+01 0. -1.
        -11    1    4    4    0    0  0.37654743449E+01  0.19769293137E+01 -0.14866164660E+03  0.14872246709E+03  0.00000000000E+00 0.  1.
         12    1    4    4    0    0 -0.20127836118E+02  0.10125538868E+02  0.63112666548E+01  0.23398470270E+02  0.00000000000E+00 0. -1.
         -5    1    5    5    0  502  0.22610257841E+02 -0.26664336697E+02  0.89111490116E+01  0.36382814458E+02  0.47000000000E+01 0.  1.
         13    1    6    6    0    0  0.86361837949E+01 -0.29350366252E+02 -0.65986835705E+02  0.72734380839E+02  0.00000000000E+00 0. -1.
        -14    1    6    6    0    0 -0.68256945005E+02  0.13580799119E+02 -0.15449013291E+03  0.16944217247E+03  0.00000000000E+00 0.  1.
</event>
<event>
12    1  0.8407180E-002  0.2124902E+03  0.7818608E-02  0.1139709E+00
         21   -1    0    0  501  502  0.00000000000E+00  0.00000000000E+00  0.58262794403E+03  0.58262794403E+03  0.00000000000E+00 0. -1.
         21   -1    0    0  502  503 -0.00000000000E+00 -0.00000000000E+00 -0.78957786835E+02  0.78957786835E+02  0.00000000000E+00 0. -1.
         -6    2    1    2    0  503 -0.82373295769E+02 -0.92937956363E+02  0.20377412653E+03  0.29404018619E+03  0.17179322705E+03 0.  0.
        -24    2    3    3    0    0 -0.99649269760E+02 -0.12298703626E+03  0.16471242573E+03  0.24160629495E+03  0.78661493242E+02 0.  0.
          6    2    1    2  501    0  0.82373295769E+02  0.92937956363E+02  0.29989603066E+03  0.36754554468E+03  0.17242179275E+03 0.  0.
         24    2    5    5    0    0  0.19930275065E+02  0.35829170445E+02  0.43434772579E+02  0.97443691368E+02  0.76991870996E+02 0.  0.
          5    1    5    5  501    0  0.62443020704E+02  0.57108785918E+02  0.25646125808E+03  0.27010185331E+03  0.47000000000E+01 0. -1.
        -11    1    6    6    0    0  0.23350546958E+02  0.11671351921E+02 -0.17753806261E+02  0.31570019570E+02  0.00000000000E+00 0.  1.
         12    1    6    6    0    0 -0.34202718929E+01  0.24157818524E+02  0.61188578840E+02  0.65873671798E+02  0.00000000000E+00 0. -1.
         -5    1    3    3    0  503  0.17275973991E+02  0.30049079900E+02  0.39061700804E+02  0.52433891234E+02  0.47000000000E+01 0.  1.
         13    1    4    4    0    0 -0.43446587571E+02 -0.10983520649E+03  0.12192474325E+03  0.16975577036E+03  0.00000000000E+00 0. -1.
        -14    1    4    4    0    0 -0.56202682189E+02 -0.13151829775E+02  0.42787682483E+02  0.71850524591E+02  0.00000000000E+00 0.  1.
</event>
<event>
12    1  0.8407180E-002  0.2138708E+03  0.7818608E-02  0.1138845E+00
         21   -1    0    0  501  502  0.00000000000E+00  0.00000000000E+00  0.41051374022E+03  0.41051374022E+03  0.00000000000E+00 0. -1.
         21   -1    0    0  502  503 -0.00000000000E+00 -0.00000000000E+00 -0.12825440398E+03  0.12825440398E+03  0.00000000000E+00 0.  1.
         -6    2    1    2    0  503  0.11076515783E+03 -0.60322072341E+02  0.40725351766E+02  0.21615479918E+03  0.17075324399E+03 0.  0.
        -24    2    3    3    0    0  0.79560664720E+02  0.23267516320E+02  0.40655907775E+02  0.12680697019E+03  0.86924266841E+02 0.  0.
          6    2    1    2  501    0 -0.11076515783E+03  0.60322072341E+02  0.24153398447E+03  0.32261334502E+03  0.17272241351E+03 0.  0.
         24    2    5    5    0    0  0.72696085970E+01  0.55064925251E+01  0.95137522249E+02  0.12667721250E+03  0.83143246011E+02 0.  0.
          5    1    5    5  501    0 -0.11803476643E+03  0.54815579815E+02  0.14639646222E+03  0.19593613252E+03  0.47000000000E+01 0. -1.
        -11    1    6    6    0    0 -0.13032197483E+02 -0.11184058734E+02 -0.89202049301E+01  0.19351780203E+02  0.00000000000E+00 0.  1.
         12    1    6    6    0    0  0.20301806080E+02  0.16690551259E+02  0.10405772718E+03  0.10732543229E+03  0.00000000000E+00 0. -1.
         -5    1    3    3    0  503  0.31204493111E+02 -0.83589588661E+02  0.69443990637E-01  0.89347828990E+02  0.47000000000E+01 0.  1.
         11    1    4    4    0    0 -0.91898694420E+01  0.27727973175E+02  0.30659106616E+00  0.29212808746E+02  0.00000000000E+00 0. -1.
        -12    1    4    4    0    0  0.88750534162E+02 -0.44604568553E+01  0.40349316709E+02  0.97594161446E+02  0.00000000000E+00 0.  1.
</event>
<event>
12    1  0.8407180E-002  0.2817929E+03  0.7818608E-02  0.1094895E+00
         21   -1    0    0  503  502  0.00000000000E+00  0.00000000000E+00  0.94708655339E+03  0.94708655339E+03  0.00000000000E+00 0.  1.
         21   -1    0    0  501  503 -0.00000000000E+00 -0.00000000000E+00 -0.94528990858E+02  0.94528990858E+02  0.00000000000E+00 0. -1.
          6    2    1    2  501    0 -0.47255269213E+02 -0.21664564185E+03  0.60549694667E+03  0.66785762963E+03  0.17389326159E+03 0.  0.
         24    2    3    3    0    0 -0.75997932256E+01 -0.52364769098E+02  0.33971152852E+03  0.35285804165E+03  0.79404338953E+02 0.  0.
         -6    2    1    2    0  502  0.47255269213E+02  0.21664564185E+03  0.24706061586E+03  0.37375791462E+03  0.17171964427E+03 0.  0.
        -24    2    5    5    0    0 -0.19876753482E+02  0.13581997617E+03  0.20776685332E+03  0.26148331161E+03  0.79776598454E+02 0.  0.
          5    1    3    3  501    0 -0.39655475988E+02 -0.16428087276E+03  0.26578541815E+03  0.31499958798E+03  0.47000000000E+01 0. -1.
        -11    1    4    4    0    0  0.28085999500E+02 -0.23974893182E+02  0.24469221176E+03  0.24746292119E+03  0.00000000000E+00 0.  1.
         12    1    4    4    0    0 -0.35685792726E+02 -0.28389875916E+02  0.95019316766E+02  0.10539512046E+03  0.00000000000E+00 0. -1.
         -5    1    5    5    0  502  0.67132022695E+02  0.80825665686E+02  0.39293762545E+02  0.11227460300E+03  0.47000000000E+01 0.  1.
         13    1    6    6    0    0 -0.10549047549E+02  0.13966300644E+02 -0.30873581275E+01  0.17772780820E+02  0.00000000000E+00 0. -1.
        -14    1    6    6    0    0 -0.93277059327E+01  0.12185367552E+03  0.21085421144E+03  0.24371053079E+03  0.00000000000E+00 0.  1.
</event>
<event>
12    1  0.8407180E-002  0.2043576E+03  0.7818608E-02  0.1146331E+00
         21   -1    0    0  503  502  0.00000000000E+00  0.00000000000E+00  0.63772911115E+03  0.63772911115E+03  0.00000000000E+00 0.  1.
         21   -1    0    0  501  503 -0.00000000000E+00 -0.00000000000E+00 -0.86895694303E+02  0.86895694303E+02  0.00000000000E+00 0.  1.
          6    2    1    2  501    0  0.27587399062E+02  0.10627365747E+03  0.94696448652E+02  0.22523201615E+03  0.17235686482E+03 0.  0.
         24    2    3    3    0    0  0.76927086379E+02  0.96978061373E+02  0.43838284087E+02  0.15361179725E+03  0.79701117292E+02 0.  0.
         -6    2    1    2    0  502 -0.27587399062E+02 -0.10627365747E+03  0.45613696820E+03  0.49939278931E+03  0.17110543357E+03 0.  0.
        -24    2    5    5    0    0  0.41924130216E+02 -0.41556349307E+02  0.30496486975E+03  0.32080030339E+03  0.80154226391E+02 0.  0.
          5    1    3    3  501    0 -0.49339687317E+02  0.92955960996E+01  0.50858164565E+02  0.71620218893E+02  0.47000000000E+01 0. -1.
        -13    1    4    4    0    0 -0.34968152960E+01  0.18620855522E+02  0.36455206272E+02  0.41084620504E+02  0.00000000000E+00 0.  1.
         14    1    4    4    0    0  0.80423901675E+02  0.78357205851E+02  0.73830778143E+01  0.11252717675E+03  0.00000000000E+00 0. -1.
         -5    1    5    5    0  502 -0.69511529279E+02 -0.64717308165E+02  0.15117209845E+03  0.17859248592E+03  0.47000000000E+01 0.  1.
         13    1    6    6    0    0  0.22680729273E+01  0.20182504604E+02  0.30110422430E+02  0.36319625354E+02  0.00000000000E+00 0. -1.
        -14    1    6    6    0    0  0.39656057289E+02 -0.61738853911E+02  0.27485444732E+03  0.28448067803E+03  0.00000000000E+00 0.  1.
</event>
<event>
12    1  0.8407180E-002  0.1839504E+03  0.7818608E-02  0.1164188E+00
         21   -1    0    0  501  502  0.00000000000E+00  0.00000000000E+00  0.20399247002E+04  0.20399247002E+04  0.00000000000E+00 0.  1.
         21   -1    0    0  502  503 -0.00000000000E+00 -0.00000000000E+00 -0.30116347816E+02  0.30116347816E+02  0.00000000000E+00 0.  1.
         -6    2    1    2    0  503 -0.38259709998E+02  0.52491809399E+02  0.31067422787E+03  0.36104876105E+03  0.17210036760E+03 0.  0.
        -24    2    3    3    0    0  0.27249546176E+02 -0.19503839209E+02  0.14894238562E+03  0.17222578877E+03  0.79717943850E+02 0.  0.
          6    2    1    2  501    0  0.38259709998E+02 -0.52491809399E+02  0.16991341246E+04  0.17089922870E+04  0.17140206640E+03 0.  0.
         24    2    5    5    0    0  0.60694266351E+02 -0.56601200670E+02  0.16565169809E+04  0.16604278211E+04  0.78003533220E+02 0.  0.
          5    1    5    5  501    0 -0.22434556353E+02  0.41093912705E+01  0.42617143644E+02  0.48564465895E+02  0.47000000000E+01 0. -1.
        -11    1    6    6    0    0  0.17758885646E+01 -0.42093548508E+02  0.10590123291E+04  0.10598500525E+04  0.00000000000E+00 0.  1.
         12    1    6    6    0    0  0.58918377786E+02 -0.14507652161E+02  0.59750465184E+03  0.60057776863E+03  0.00000000000E+00 0. -1.
         -5    1    3    3    0  503 -0.65509256174E+02  0.71995648608E+02  0.16173184225E+03  0.18882297228E+03  0.47000000000E+01 0.  1.
         13    1    4    4    0    0 -0.15960385668E+02 -0.29238796602E+02  0.10366734806E+03  0.10888783308E+03  0.00000000000E+00 0. -1.
        -14    1    4    4    0    0  0.43209931844E+02  0.97349573936E+01  0.45275037558E+02  0.63337955692E+02  0.00000000000E+00 0.  1.
</event>
<event>
12    1  0.8407180E-002  0.2155432E+03  0.7818608E-02  0.1137274E+00
         21   -1    0    0  503  502  0.00000000000E+00  0.00000000000E+00  0.27621823033E+03  0.27621823033E+03  0.00000000000E+00 0. -1.
         21   -1    0    0  501  503 -0.00000000000E+00 -0.00000000000E+00 -0.18089001565E+03  0.18089001565E+03  0.00000000000E+00 0.  1.
          6    2    1    2  501    0 -0.12903283660E+03 -0.18863995637E+02 -0.13102768177E+02  0.21594109069E+03  0.17162036261E+03 0.  0.
         24    2    3    3    0    0 -0.78058301146E+02  0.49152511803E+02  0.23420527556E+02  0.12330907851E+03  0.78406249358E+02 0.  0.
         -6    2    1    2    0  502  0.12903283660E+03  0.18863995637E+02  0.10843098286E+03  0.24116715529E+03  0.17146135278E+03 0.  0.
        -24    2    5    5    0    0  0.10084339026E+03 -0.31884317744E+02  0.12296064950E+03  0.18114018295E+03  0.80662540722E+02 0.  0.
          5    1    3    3  501    0 -0.50974535459E+02 -0.68016507440E+02 -0.36523295733E+02  0.92632012181E+02  0.47000000000E+01 0. -1.
        -11    1    4    4    0    0 -0.79061163858E+02  0.94811213350E+01  0.56499073904E+01  0.79827819373E+02  0.00000000000E+00 0.  1.
         12    1    4    4    0    0  0.10028627126E+01  0.39671390468E+02  0.17770620165E+02  0.43481259139E+02  0.00000000000E+00 0. -1.
         -5    1    5    5    0  502  0.28189446343E+02  0.50748313381E+02 -0.14529666644E+02  0.60026972345E+02  0.47000000000E+01 0.  1.
         11    1    6    6    0    0 -0.24772186248E+01  0.15264424129E+02  0.32337832625E+02  0.35845148555E+02  0.00000000000E+00 0. -1.
        -12    1    6    6    0    0  0.10332060889E+03 -0.47148741873E+02  0.90622816876E+02  0.14529503439E+03  0.00000000000E+00 0.  1.
</event>
<event>
12    1  0.8407180E-002  0.2172429E+03  0.7818608E-02  0.1136383E+00
         21   -1    0    0  501  502  0.00000000000E+00  0.00000000000E+00  0.36780427614E+02  0.36780427614E+02  0.00000000000E+00 0.  1.
         21   -1    0    0  502  503 -0.00000000000E+00 -0.00000000000E+00 -0.13236114301E+04  0.13236114301E+04  0.00000000000E+00 0.  1.
         -6    2    1    2    0  503 -0.89088778580E+02 -0.96647486622E+02 -0.50321151548E+03  0.54721662616E+03  0.17013717848E+03 0.  0.
        -24    2    3    3    0    0 -0.20326125920E+02  0.93428861009E+01 -0.16684997232E+03  0.18787912572E+03  0.83421889825E+02 0.  0.
          6    2    1    2  501    0  0.89088778580E+02  0.96647486622E+02 -0.78361948701E+03  0.81317523155E+03  0.17296505326E+03 0.  0.
         24    2    5    5    0    0  0.12766172367E+03  0.82903662772E+02 -0.68583101577E+03  0.70705529990E+03  0.79952998273E+02 0.  0.
          5    1    5    5  501    0 -0.38572945085E+02  0.13743823850E+02 -0.97788471233E+02  0.10611993165E+03  0.47000000000E+01 0. -1.
        -13    1    6    6    0    0  0.40975074555E+02  0.74099465462E+02 -0.35188474856E+03  0.36192894853E+03  0.00000000000E+00 0.  1.
         14    1    6    6    0    0  0.86686649110E+02  0.88041973099E+01 -0.33394626722E+03  0.34512635138E+03  0.00000000000E+00 0. -1.
         -5    1    3    3    0  503 -0.68762652660E+02 -0.10599037272E+03 -0.33636154315E+03  0.35933750044E+03  0.47000000000E+01 0.  1.
         13    1    4    4    0    0  0.20494289679E+02  0.12634565812E+01 -0.13203936130E+03  0.13362636403E+03  0.00000000000E+00 0. -1.
        -14    1    4    4    0    0 -0.40820415599E+02  0.80794295198E+01 -0.34810611022E+02  0.54252761688E+02  0.00000000000E+00 0.  1.
</event>
<event>
12    1  0.8407180E-002  0.2015459E+03  0.7818608E-02  0.1149718E+00
         21   -1    0    0  501  502  0.00000000000E+00  0.00000000000E+00  0.54489806534E+02  0.54489806534E+02  0.00000000000E+00 0. -1.
         21   -1    0    0  502  503 -0.00000000000E+00 -0.00000000000E+00 -0.75423065211E+03  0.75423065211E+03  0.00000000000E+00 0. -1.
         -6    2    1    2    0  503  0.99810440976E+02 -0.10438934493E+02 -0.43670356547E+03  0.48096854073E+03  0.17478454622E+03 0.  0.
        -24    2    3    3    0    0  0.13517099471E+03  0.11274521772E+02 -0.37253000342E+03  0.40440367274E+03  0.79783547374E+02 0.  0.
          6    2    1    2  501    0 -0.99810440976E+02  0.10438934493E+02 -0.26303728011E+03  0.32775191791E+03  0.16781422314E+03 0.  0.
         24    2    5    5    0    0 -0.14703841787E+02 -0.13016249181E+02 -0.33977177464E+02  0.82224120119E+02  0.72254630543E+02 0.  0.
          5    1    5    5  501    0 -0.85106599189E+02  0.23455183675E+02 -0.22906010264E+03  0.24552779779E+03  0.47000000000E+01 0. -1.
        -13    1    6    6    0    0  0.64149286791E+01  0.22694683188E+02 -0.33205855079E+02  0.40728721640E+02  0.00000000000E+00 0.  1.
         14    1    6    6    0    0 -0.21118770466E+02 -0.35710932369E+02 -0.77132238476E+00  0.41495398478E+02  0.00000000000E+00 0. -1.
         -5    1    3    3    0  503 -0.35360553732E+02 -0.21713456265E+02 -0.64173562055E+02  0.76564867988E+02  0.47000000000E+01 0.  1.
         13    1    4    4    0    0  0.14121679391E+03 -0.36224432607E+01 -0.33224944516E+03  0.36103323779E+03  0.00000000000E+00 0. -1.
        -14    1    4    4    0    0 -0.60457991966E+01  0.14896965033E+02 -0.40280558253E+02  0.43370434956E+02  0.00000000000E+00 0.  1.
</event>
<event>
12    1  0.8407180E-002  0.2605494E+03  0.7818608E-02  0.1106889E+00
         21   -1    0    0  501  502  0.00000000000E+00  0.00000000000E+00  0.37483702962E+03  0.37483702962E+03  0.00000000000E+00 0.  1.
         21   -1    0    0  502  503 -0.00000000000E+00 -0.00000000000E+00 -0.78112883692E+03  0.78112883692E+03  0.00000000000E+00 0.  1.
         -6    2    1    2    0  503 -0.80684902998E+02 -0.17813096886E+03 -0.70981459031E+03  0.75595080488E+03  0.17141811793E+03 0.  0.
        -24    2    3    3    0    0  0.50328711614E+01 -0.63835874190E+02 -0.42383733359E+03  0.43623845475E+03  0.81028115044E+02 0.  0.
          6    2    1    2  501    0  0.80684902998E+02  0.17813096886E+03  0.30352278301E+03  0.40001506166E+03  0.17217803029E+03 0.  0.
         24    2    5    5    0    0  0.27106245778E+02  0.18878010945E+02  0.13304368442E+03  0.16060455611E+03  0.83678393994E+02 0.  0.
          5    1    5    5  501    0  0.53578657220E+02  0.15925295791E+03  0.17047909859E+03  0.23941050555E+03  0.47000000000E+01 0. -1.
        -11    1    6    6    0    0  0.45710341514E+02  0.40757139749E+02  0.90261727040E+02  0.10907684965E+03  0.00000000000E+00 0.  1.
         12    1    6    6    0    0 -0.18604095736E+02 -0.21879128804E+02  0.42781957381E+02  0.51527706457E+02  0.00000000000E+00 0. -1.
         -5    1    3    3    0  503 -0.85717774160E+02 -0.11429509467E+03 -0.28597725671E+03  0.31971235014E+03  0.47000000000E+01 0.  1.
         11    1    4    4    0    0  0.12451991942E+02  0.17551987288E+02 -0.84128967101E+02  0.86837822788E+02  0.00000000000E+00 0. -1.
        -12    1    4    4    0    0 -0.74191207804E+01 -0.81387861478E+02 -0.33970836649E+03  0.34940063196E+03  0.00000000000E+00 0.  1.
</event>
<event>
12    1  0.8407180E-002  0.1954289E+03  0.7818608E-02  0.1157053E+00
         21   -1    0    0  501  502  0.00000000000E+00  0.00000000000E+00  0.31093750757E+03  0.31093750757E+03  0.00000000000E+00 0. -1.
         21   -1    0    0  502  503 -0.00000000000E+00 -0.00000000000E+00 -0.56309172155E+03  0.56309172155E+03  0.00000000000E+00 0. -1.
         -6    2    1    2    0  503  0.34008397752E+02  0.89463339897E+02 -0.51545569488E+03  0.54612659087E+03  0.15296868817E+03 0.  0.
        -24    2    3    3    0    0 -0.10773712919E+02  0.88351133176E+02 -0.27899560190E+03  0.30541485452E+03  0.86704624208E+02 0.  0.
          6    2    1    2  501    0 -0.34008397752E+02 -0.89463339897E+02  0.26330148091E+03  0.32790263826E+03  0.17038840930E+03 0.  0.
         24    2    5    5    0    0  0.66618240216E+01 -0.22895085986E+02  0.44946313902E+02  0.95983539589E+02  0.81388597955E+02 0.  0.
          5    1    5    5  501    0 -0.40670221774E+02 -0.66568253912E+02  0.21835516701E+03  0.23191909867E+03  0.47000000000E+01 0. -1.
        -11    1    6    6    0    0 -0.46608981244E+00 -0.23378657132E+02 -0.19924351052E+02  0.30720654515E+02  0.00000000000E+00 0.  1.
         12    1    6    6    0    0  0.71279138340E+01  0.48357114609E+00  0.64870664953E+02  0.65262885074E+02  0.00000000000E+00 0. -1.
         -5    1    3    3    0  503  0.44782110672E+02  0.11122067217E+01 -0.23646009299E+03  0.24071173635E+03  0.47000000000E+01 0.  1.
         13    1    4    4    0    0  0.22865796582E+02 -0.17921777001E+01 -0.95596115303E+02  0.98309072904E+02  0.00000000000E+00 0. -1.
        -14    1    4    4    0    0 -0.33639509501E+02  0.90143310876E+02 -0.18339948659E+03  0.20710578161E+03  0.00000000000E+00 0.  1.
</event>
<event>
12    1  0.8407180E-002  0.1885025E+03  0.7818608E-02  0.1160370E+00
         21   -1    0    0  503  502  0.00000000000E+00  0.00000000000E+00  0.13889341930E+04  0.13889341930E+04  0.00000000000E+00 0.  1.
         21   -1    0    0  501  503 -0.00000000000E+00 -0.00000000000E+00 -0.28359955935E+02  0.28359955935E+02  0.00000000000E+00 0.  1.
          6    2    1    2  501    0  0.74100165683E+02 -0.11034455070E+02  0.44980861666E+03  0.48770993488E+03  0.17297570699E+03 0.  0.
         24    2    3    3    0    0  0.95624848551E+02 -0.58488476771E+02  0.28959500431E+03  0.31917006502E+03  0.73751273302E+02 0.  0.
         -6    2    1    2    0  502 -0.74100165683E+02  0.11034455070E+02  0.91076562040E+03  0.92958421404E+03  0.17035316830E+03 0.  0.
        -24    2    5    5    0    0 -0.93790791529E+02  0.48055398458E+02  0.80256327179E+03  0.81344589461E+03  0.80500834431E+02 0.  0.
          5    1    3    3  501    0 -0.21524682869E+02  0.47454021701E+02  0.16021361236E+03  0.16853986986E+03  0.47000000000E+01 0. -1.
        -13    1    4    4    0    0  0.10131748173E+03 -0.31140604453E+02  0.22094623620E+03  0.24505552155E+03  0.00000000000E+00 0.  1.
         14    1    4    4    0    0 -0.56926331743E+01 -0.27347872318E+02  0.68648768101E+02  0.74114543476E+02  0.00000000000E+00 0. -1.
         -5    1    5    5    0  502  0.19690625847E+02 -0.37020943388E+02  0.10820234861E+03  0.11613831943E+03  0.47000000000E+01 0.  1.
         13    1    6    6    0    0 -0.46551697887E+02 -0.18262771797E+02  0.25435218960E+03  0.25922119081E+03  0.00000000000E+00 0. -1.
        -14    1    6    6    0    0 -0.47239093642E+02  0.66318170255E+02  0.54821108219E+03  0.55422470380E+03  0.00000000000E+00 0.  1.
</event>
<event>
12    1  0.8407180E-002  0.2116694E+03  0.7818608E-02  0.1140348E+00
         21   -1    0    0  501  502  0.00000000000E+00  0.00000000000E+00  0.48873135506E+03  0.48873135506E+03  0.00000000000E+00 0. -1.
         21   -1    0    0  502  503 -0.00000000000E+00 -0.00000000000E+00 -0.95681135934E+02  0.95681135934E+02  0.00000000000E+00 0. -1.
         -6    2    1    2    0  503 -0.11899233657E+03  0.30581001278E+02  0.13493190619E+03  0.25060268627E+03  0.17175771674E+03 0.  0.
        -24    2    3    3    0    0 -0.42015448958E+02  0.36200859605E+02  0.11314497227E+02  0.10479329758E+03  0.88191933774E+02 0.  0.
          6    2    1    2  501    0  0.11899233657E+03 -0.30581001278E+02  0.25811831294E+03  0.33380980472E+03  0.17236458004E+03 0.  0.
         24    2    5    5    0    0  0.15107195664E+03 -0.23194121803E+02  0.18009490925E+03  0.24899583455E+03  0.78765766156E+02 0.  0.
          5    1    5    5  501    0 -0.32079620071E+02 -0.73868794754E+01  0.78023403691E+02  0.84813970169E+02  0.47000000000E+01 0. -1.
        -11    1    6    6    0    0  0.16176745390E+01 -0.11375902053E+02 -0.34567752992E+01  0.11999054708E+02  0.00000000000E+00 0.  1.
         12    1    6    6    0    0  0.14945428210E+03 -0.11818219750E+02  0.18355168455E+03  0.23699677984E+03  0.00000000000E+00 0. -1.
         -5    1    3    3    0  503 -0.76976887608E+02 -0.56198583264E+01  0.12361740896E+03  0.14580938869E+03  0.47000000000E+01 0.  1.
         13    1    4    4    0    0 -0.62195939087E+02  0.13375828036E+02  0.28614795534E+02  0.69757108154E+02  0.00000000000E+00 0. -1.
        -14    1    4    4    0    0  0.20180490129E+02  0.22825031569E+02 -0.17300298306E+02  0.35036189425E+02  0.00000000000E+00 0.  1.
</event>
<event>
12    1  0.8407180E-002  0.2024251E+03  0.7818608E-02  0.1148130E+00
         21   -1    0    0  501  502  0.00000000000E+00  0.00000000000E+00  0.13739873474E+03  0.13739873474E+03  0.00000000000E+00 0.  1.
         21   -1    0    0  502  503 -0.00000000000E+00 -0.00000000000E+00 -0.31434728257E+03  0.31434728257E+03  0.00000000000E+00 0. -1.
         -6    2    1    2    0  503  0.38714022756E+02 -0.96643383917E+02 -0.14371460058E+03  0.24661092994E+03  0.17124352581E+03 0.  0.
        -24    2    3    3    0    0  0.62706881156E+02 -0.12781134330E+03 -0.10813593620E+03  0.19336592731E+03  0.73682485887E+02 0.  0.
          6    2    1    2  501    0 -0.38714022756E+02  0.96643383917E+02 -0.33233947242E+02  0.20513508737E+03  0.17360066131E+03 0.  0.
         24    2    5    5    0    0 -0.38187048423E+02  0.98766866064E+02  0.35066036971E+02  0.13663862963E+03  0.78913520132E+02 0.  0.
          5    1    5    5  501    0 -0.52697433315E+00 -0.21234821465E+01 -0.68299984213E+02  0.68496457733E+02  0.47000000000E+01 0. -1.
        -13    1    6    6    0    0 -0.31905287428E+02  0.10914997965E+03  0.17155852430E+02  0.11500429860E+03  0.00000000000E+00 0.  1.
         14    1    6    6    0    0 -0.62817609954E+01 -0.10383113587E+02  0.17910184541E+02  0.21634331034E+02  0.00000000000E+00 0. -1.
         -5    1    3    3    0  503 -0.23992858400E+02  0.31167959380E+02 -0.35578664380E+02  0.53245002631E+02  0.47000000000E+01 0.  1.
         13    1    4    4    0    0 -0.10123131212E+02  0.28656304687E+01 -0.94893665594E+01  0.14168193294E+02  0.00000000000E+00 0. -1.
        -14    1    4    4    0    0  0.72830012368E+02 -0.13067697377E+03 -0.98646569642E+02  0.17919773402E+03  0.00000000000E+00 0.  1.
</event>
<event>
12    1  0.8407180E-002  0.2791068E+03  0.7818608E-02  0.1096179E+00
         21   -1    0    0  501  502  0.00000000000E+00  0.00000000000E+00  0.11288547773E+04  0.11288547773E+04  0.00000000000E+00 0. -1.
         21   -1    0    0  502  503 -0.00000000000E+00 -0.00000000000E+00 -0.69289843393E+02  0.69289843393E+02  0.00000000000E+00 0.  1.
         -6    2    1    2    0  503 -0.21858320969E+03  0.30838559221E+02  0.56811701228E+03  0.63297060347E+03  0.17077824486E+03 0.  0.
        -24    2    3    3    0    0 -0.16462908913E+03  0.45511070673E+02  0.26907214812E+03  0.32870714773E+03  0.80464734707E+02 0.  0.
          6    2    1    2  501    0  0.21858320969E+03 -0.30838559221E+02  0.49144792167E+03  0.56517401727E+03  0.17079512227E+03 0.  0.
         24    2    5    5    0    0  0.44180058757E+02  0.26151317792E+02  0.14886799776E+03  0.17652584809E+03  0.79774214345E+02 0.  0.
          5    1    5    5  501    0  0.17440315093E+03 -0.56989877012E+02  0.34257992391E+03  0.38864816917E+03  0.47000000000E+01 0. -1.
        -11    1    6    6    0    0  0.64739336465E+02  0.43273429486E+01  0.10193290936E+03  0.12083139324E+03  0.00000000000E+00 0.  1.
         12    1    6    6    0    0 -0.20559277709E+02  0.21823974843E+02  0.46935088403E+02  0.55694454852E+02  0.00000000000E+00 0. -1.
         -5    1    3    3    0  503 -0.53954120562E+02 -0.14672511453E+02  0.29904486416E+03  0.30426345574E+03  0.47000000000E+01 0.  1.
         13    1    4    4    0    0 -0.39391836459E+02  0.36235688472E+02  0.13390797520E+03  0.14420848699E+03  0.00000000000E+00 0. -1.
        -14    1    4    4    0    0 -0.12523725267E+03  0.92753822011E+01  0.13516417292E+03  0.18449866073E+03  0.00000000000E+00 0.  1.
</event>
<event>
12    1  0.8407180E-002  0.2828073E+03  0.7818608E-02  0.1094250E+00
         21   -1    0    0  503  502  0.00000000000E+00  0.00000000000E+00  0.34810812570E+03  0.34810812570E+03  0.00000000000E+00 0.  1.
         21   -1    0    0  501  503 -0.00000000000E+00 -0.00000000000E+00 -0.23626829645E+03  0.23626829645E+03  0.00000000000E+00 0.  1.
          6    2    1    2  501    0  0.11571782836E+03  0.19123751406E+03  0.54914096169E+01  0.28223414160E+03  0.17223110207E+03 0.  0.
         24    2    3    3    0    0  0.32454263881E+02  0.62746838682E+02 -0.51683108236E+02  0.11872973701E+03  0.80219460012E+02 0.  0.
         -6    2    1    2    0  502 -0.11571782836E+03 -0.19123751406E+03  0.10634841963E+03  0.30214228054E+03  0.17325578993E+03 0.  0.
        -24    2    5    5    0    0  0.18154352202E+01 -0.11728685802E+03  0.72314550583E+02  0.15909277225E+03  0.79508572423E+02 0.  0.
          5    1    3    3  501    0  0.83263564483E+02  0.12849067538E+03  0.57174517853E+02  0.16350440459E+03  0.47000000000E+01 0. -1.
        -13    1    4    4    0    0  0.22239523107E+02  0.77626547996E+02 -0.21501118229E+02  0.83563002740E+02  0.00000000000E+00 0.  1.
         14    1    4    4    0    0  0.10214740775E+02 -0.14879709314E+02 -0.30181990007E+02  0.35166734269E+02  0.00000000000E+00 0. -1.
         -5    1    5    5    0  502 -0.11753326358E+03 -0.73950656045E+02  0.34033869049E+02  0.14304950829E+03  0.47000000000E+01 0.  1.
         13    1    6    6    0    0  0.22746723916E+02 -0.25911238822E+02  0.53239981374E+02  0.63429499154E+02  0.00000000000E+00 0. -1.
        -14    1    6    6    0    0 -0.20931288696E+02 -0.91375619195E+02  0.19074569209E+02  0.95663273100E+02  0.00000000000E+00 0.  1.
</event>
<event>
12    1  0.8407180E-002  0.1957019E+03  0.7818608E-02  0.1157516E+00
         21   -1    0    0  501  502  0.00000000000E+00  0.00000000000E+00  0.19137999520E+04  0.19137999520E+04  0.00000000000E+00 0.  1.
         21   -1    0    0  502  503 -0.00000000000E+00 -0.00000000000E+00 -0.50654082752E+02  0.50654082752E+02  0.00000000000E+00 0.  1.
         -6    2    1    2    0  503 -0.18389315581E+02  0.39580882301E+02  0.16202030189E+03  0.25406655057E+03  0.19077321805E+03 0.  0.
        -24    2    3    3    0    0  0.25087956070E+02  0.71767947238E+02  0.16677204529E+03  0.19956013476E+03  0.78938510908E+02 0.  0.
          6    2    1    2  501    0  0.18389315581E+02 -0.39580882301E+02  0.17011255673E+04  0.17103874841E+04  0.17231464522E+03 0.  0.
         24    2    5    5    0    0  0.36367359848E+02 -0.58201425129E+02  0.16460835134E+04  0.16493821369E+04  0.78488914708E+02 0.  0.
          5    1    5    5  501    0 -0.17978044266E+02  0.18620542828E+02  0.55042053903E+02  0.61005347214E+02  0.47000000000E+01 0. -1.
        -11    1    6    6    0    0  0.53704651666E+02 -0.13694282476E+02  0.10006138316E+04  0.10021475754E+04  0.00000000000E+00 0.  1.
         12    1    6    6    0    0 -0.17337291818E+02 -0.44507142653E+02  0.64546968182E+03  0.64723456149E+03  0.00000000000E+00 0. -1.
         -5    1    3    3    0  503 -0.43477271651E+02 -0.32187064936E+02 -0.47517433987E+01  0.54506415813E+02  0.47000000000E+01 0.  1.
         11    1    4    4    0    0 -0.12826795814E+02  0.69370206837E+02  0.12113319351E+03  0.14017846788E+03  0.00000000000E+00 0. -1.
        -12    1    4    4    0    0  0.37914751884E+02  0.23977404008E+01  0.45638851780E+02  0.59381666878E+02  0.00000000000E+00 0.  1.
</event>
<event>
12    1  0.8407180E-002  0.1980958E+03  0.7818608E-02  0.1153569E+00
         21   -1    0    0  503  502  0.00000000000E+00  0.00000000000E+00  0.15381296162E+03  0.15381296162E+03  0.00000000000E+00 0.  1.
         21   -1    0    0  501  503 -0.00000000000E+00 -0.00000000000E+00 -0.24283842767E+03  0.24283842767E+03  0.00000000000E+00 0.  1.
          6    2    1    2  501    0  0.54707940456E+02 -0.49111983473E+02 -0.52584484878E+02  0.19523169898E+03  0.17304722641E+03 0.  0.
         24    2    3    3    0    0  0.21801211445E+02 -0.86511325047E+02 -0.74696778646E+02  0.14052697249E+03  0.78795425476E+02 0.  0.
         -6    2    1    2    0  502 -0.54707940456E+02  0.49111983473E+02 -0.36440981177E+02  0.20141969031E+03  0.18394836468E+03 0.  0.
        -24    2    5    5    0    0  0.75052386681E+01  0.24696077498E+02  0.45496785582E+02  0.95577809461E+02  0.79993345422E+02 0.  0.
          5    1    3    3  501    0  0.32906729012E+02  0.37399341574E+02  0.22112293768E+02  0.54704726488E+02  0.47000000000E+01 0. -1.
        -11    1    4    4    0    0 -0.13150012104E+02 -0.61934996089E+02 -0.74538172914E+02  0.97799825053E+02  0.00000000000E+00 0.  1.
         12    1    4    4    0    0  0.34951223549E+02 -0.24576328957E+02 -0.15860573183E+00  0.42727147440E+02  0.00000000000E+00 0. -1.
         -5    1    5    5    0  502 -0.62213179125E+02  0.24415905975E+02 -0.81937766758E+02  0.10584188085E+03  0.47000000000E+01 0.  1.
         13    1    6    6    0    0 -0.28556023860E+02  0.51960486755E+01  0.46217373110E+02  0.54575553114E+02  0.00000000000E+00 0. -1.
        -14    1    6    6    0    0  0.36061262528E+02  0.19500028823E+02 -0.72058752813E+00  0.41002256347E+02  0.00000000000E+00 0.  1.
</event>
<event>
12    1  0.8407180E-002  0.2034161E+03  0.7818608E-02  0.1150596E+00
         21   -1    0    0  503  502  0.00000000000E+00  0.00000000000E+00  0.15063867254E+03  0.15063867254E+03  0.00000000000E+00 0.  1.
         21   -1    0    0  501  503 -0.00000000000E+00 -0.00000000000E+00 -0.27697121888E+03  0.27697121888E+03  0.00000000000E+00 0.  1.
          6    2    1    2  501    0  0.15332667134E+02 -0.68842916841E+02 -0.12475340762E+03  0.22418764052E+03  0.17240141406E+03 0.  0.
         24    2    3    3    0    0  0.58678795862E+02 -0.34881144759E+02 -0.21938408299E+02  0.10746016765E+03  0.80040605495E+02 0.  0.
         -6    2    1    2    0  502 -0.15332667134E+02  0.68842916841E+02 -0.15791387179E+01  0.20342225090E+03  0.19079748584E+03 0.  0.
        -24    2    5    5    0    0 -0.70147846338E+02 -0.12532362322E+02 -0.11899354139E+02  0.10465364872E+03  0.75716650151E+02 0.  0.
          5    1    3    3  501    0 -0.43346128729E+02 -0.33961772081E+02 -0.10281499932E+03  0.11672747288E+03  0.47000000000E+01 0. -1.
        -11    1    4    4    0    0  0.16562397972E+02 -0.53527519984E+02  0.92347717341E+00  0.56038926045E+02  0.00000000000E+00 0.  1.
         12    1    4    4    0    0  0.42116397890E+02  0.18646375225E+02 -0.22861885473E+02  0.51421241600E+02  0.00000000000E+00 0. -1.
         -5    1    5    5    0  502  0.54815179205E+02  0.81375279163E+02  0.10320215421E+02  0.98768602179E+02  0.47000000000E+01 0.  1.
         11    1    6    6    0    0 -0.52127433009E+02  0.72360707614E+01 -0.39814612951E+02  0.65991161504E+02  0.00000000000E+00 0. -1.
        -12    1    6    6    0    0 -0.18020413329E+02 -0.19768433084E+02  0.27915258812E+02  0.38662487216E+02  0.00000000000E+00 0.  1.
</event>
<event>
12    1  0.8407180E-002  0.2658293E+03  0.7818608E-02  0.1103838E+00
         21   -1    0    0  501  502  0.00000000000E+00  0.00000000000E+00  0.26381604854E+03  0.26381604854E+03  0.00000000000E+00 0. -1.
         21   -1    0    0  502  503 -0.00000000000E+00 -0.00000000000E+00 -0.30523825081E+03  0.30523825081E+03  0.00000000000E+00 0.  1.
         -6    2    1    2    0  503 -0.19958494131E+03  0.36640219720E+02 -0.12165703346E+03  0.29234511797E+03  0.17172239141E+03 0.  0.
        -24    2    3    3    0    0 -0.56523168447E+02  0.14887374771E+01 -0.10014279217E+03  0.14339126559E+03  0.85646899031E+02 0.  0.
          6    2    1    2  501    0  0.19958494131E+03 -0.36640219720E+02  0.80234831187E+02  0.27670918138E+03  0.17015783386E+03 0.  0.
         24    2    5    5    0    0  0.96509415206E+02 -0.15579453932E+02  0.11037410688E+03  0.16717112462E+03  0.78784229585E+02 0.  0.
          5    1    5    5  501    0  0.10307552611E+03 -0.21060765787E+02 -0.30139275690E+02  0.10953805675E+03  0.47000000000E+01 0. -1.
        -11    1    6    6    0    0  0.21281012092E+02  0.28681032050E+02  0.17679575136E+02  0.39850350715E+02  0.00000000000E+00 0.  1.
         12    1    6    6    0    0  0.75228403113E+02 -0.44260485982E+02  0.92694531740E+02  0.12732077391E+03  0.00000000000E+00 0. -1.
         -5    1    3    3    0  503 -0.14306177287E+03  0.35151482242E+02 -0.21514241287E+02  0.14895385238E+03  0.47000000000E+01 0.  1.
         11    1    4    4    0    0 -0.65861978111E+02 -0.11679660947E+02 -0.10672754041E+03  0.12595627227E+03  0.00000000000E+00 0. -1.
        -12    1    4    4    0    0  0.93388096634E+01  0.13168398424E+02  0.65847482391E+01  0.17434993328E+02  0.00000000000E+00 0.  1.
</event>
<event>
12    1  0.8407180E-002  0.2801238E+03  0.7818608E-02  0.1097303E+00
         21   -1    0    0  501  502  0.00000000000E+00  0.00000000000E+00  0.82794518504E+03  0.82794518504E+03  0.00000000000E+00 0.  1.
         21   -1    0    0  502  503 -0.00000000000E+00 -0.00000000000E+00 -0.99396479057E+02  0.99396479057E+02  0.00000000000E+00 0. -1.
         -6    2    1    2    0  503 -0.22346246001E+02 -0.20381927027E+03  0.49371389018E+03  0.56180541396E+03  0.17271441213E+03 0.  0.
        -24    2    3    3    0    0  0.12747982145E+02 -0.10784527207E+03  0.14490746824E+03  0.19830765170E+03  0.80837099261E+02 0.  0.
          6    2    1    2  501    0  0.22346246001E+02  0.20381927027E+03  0.23483481581E+03  0.36553625014E+03  0.19086044589E+03 0.  0.
         24    2    5    5    0    0  0.53178676350E+02  0.13842580455E+03  0.73796406586E+02  0.18895085050E+03  0.90922160641E+02 0.  0.
          5    1    5    5  501    0 -0.30832430350E+02  0.65393465723E+02  0.16103840922E+03  0.17658539964E+03  0.47000000000E+01 0. -1.
        -11    1    6    6    0    0  0.44791191354E+02  0.10842217662E+02  0.19693970513E+02  0.50116434244E+02  0.00000000000E+00 0.  1.
         12    1    6    6    0    0  0.83874849962E+01  0.12758358689E+03  0.54102436073E+02  0.13883441626E+03  0.00000000000E+00 0. -1.
         -5    1    3    3    0  503 -0.35094228145E+02 -0.95973998206E+02  0.34880642194E+03  0.36349776226E+03  0.47000000000E+01 0.  1.
         11    1    4    4    0    0  0.35713169542E+02 -0.15135282911E+02  0.53687502845E+02  0.66233339259E+02  0.00000000000E+00 0. -1.
        -12    1    4    4    0    0 -0.22965187397E+02 -0.92709989156E+02  0.91219965390E+02  0.13207431244E+03  0.00000000000E+00 0.  1.
</event>
<event>
12    1  0.8407180E-002  0.1806922E+03  0.7818608E-02  0.1167630E+00
         21   -1    0    0  501  502  0.00000000000E+00  0.00000000000E+00  0.98293287205E+03  0.98293287205E+03  0.00000000000E+00 0. -1.
         21   -1    0    0  502  503 -0.00000000000E+00 -0.00000000000E+00 -0.37491215877E+02  0.37491215877E+02  0.00000000000E+00 0. -1.
         -6    2    1    2    0  503  0.34744398823E+02  0.34991875929E+02  0.65004005566E+03  0.67414129495E+03  0.17170558222E+03 0.  0.
        -24    2    3    3    0    0 -0.14643885306E+02  0.67789555684E+02  0.49045070179E+03  0.50383057223E+03  0.92160118196E+02 0.  0.
          6    2    1    2  501    0 -0.34744398823E+02 -0.34991875929E+02  0.29540160052E+03  0.34628279298E+03  0.17383343319E+03 0.  0.
         24    2    5    5    0    0 -0.81218546346E+02 -0.26424045068E+01  0.24337022485E+03  0.26923937182E+03  0.81592514526E+02 0.  0.
          5    1    5    5  501    0  0.46474147523E+02 -0.32349471422E+02  0.52031375674E+02  0.77043421159E+02  0.47000000000E+01 0. -1.
        -13    1    6    6    0    0 -0.32125219164E+02 -0.29461912968E+02  0.17771970026E+03  0.18298722874E+03  0.00000000000E+00 0.  1.
         14    1    6    6    0    0 -0.49093327182E+02  0.26819508461E+02  0.65650524585E+02  0.86252143082E+02  0.00000000000E+00 0. -1.
         -5    1    3    3    0  503  0.49388284129E+02 -0.32797679756E+02  0.15958935386E+03  0.17031072272E+03  0.47000000000E+01 0.  1.
         13    1    4    4    0    0  0.96121516307E+01  0.89887030686E-02  0.30114826786E+03  0.30130163088E+03  0.00000000000E+00 0. -1.
        -14    1    4    4    0    0 -0.24256036937E+02  0.67780566981E+02  0.18930243394E+03  0.20252894135E+03  0.00000000000E+00 0.  1.
</event>
<event>
12    1  0.8407180E-002  0.2014624E+03  0.7818608E-02  0.1149213E+00
         21   -1    0    0  501  502  0.00000000000E+00  0.00000000000E+00  0.35558458947E+02  0.35558458947E+02  0.00000000000E+00 0.  1.
         21   -1    0    0  502  503 -0.00000000000E+00 -0.00000000000E+00 -0.16923364875E+04  0.16923364875E+04  0.00000000000E+00 0.  1.
         -6    2    1    2    0  503  0.48232073249E+02 -0.92679601624E+02 -0.13342279427E+04  0.13493521747E+04  0.17225343730E+03 0.  0.
        -24    2    3    3    0    0  0.25890540973E+02  0.13403115239E+02 -0.40070311922E+03  0.40954188903E+03  0.79445613499E+02 0.  0.
          6    2    1    2  501    0 -0.48232073249E+02  0.92679601624E+02 -0.32255008579E+03  0.37854277175E+03  0.16834556945E+03 0.  0.
         24    2    5    5    0    0 -0.29605658191E+02  0.12905208343E+03 -0.22909467383E+03  0.27643545177E+03  0.80007838239E+02 0.  0.
          5    1    5    5  501    0 -0.18626415057E+02 -0.36372481804E+02 -0.93455411955E+02  0.10210731998E+03  0.47000000000E+01 0. -1.
        -11    1    6    6    0    0 -0.49772474459E+02  0.93960797129E+02 -0.12137069267E+03  0.16135915112E+03  0.00000000000E+00 0.  1.
         12    1    6    6    0    0  0.20166816267E+02  0.35091286299E+02 -0.10772398117E+03  0.11507630065E+03  0.00000000000E+00 0. -1.
         -5    1    3    3    0  503  0.22341532275E+02 -0.10608271686E+03 -0.93352482351E+03  0.93981028563E+03  0.47000000000E+01 0.  1.
         11    1    4    4    0    0  0.47810799691E+02  0.61274240841E+01 -0.35576935063E+03  0.35901984449E+03  0.00000000000E+00 0. -1.
        -12    1    4    4    0    0 -0.21920258717E+02  0.72756911550E+01 -0.44933768595E+02  0.50522044536E+02  0.00000000000E+00 0.  1.
</event>
<event>
12    1  0.8407180E-002  0.1890000E+03  0.7818608E-02  0.1159462E+00
         21   -1    0    0  503  502  0.00000000000E+00  0.00000000000E+00  0.30314759004E+03  0.30314759004E+03  0.00000000000E+00 0.  1.
         21   -1    0    0  501  503 -0.00000000000E+00 -0.00000000000E+00 -0.17990141441E+03  0.17990141441E+03  0.00000000000E+00 0. -1.
          6    2    1    2  501    0 -0.75828900986E+02 -0.20969345860E+01 -0.80585192825E+02  0.20507736493E+03  0.17265089905E+03 0.  0.
         24    2    3    3    0    0 -0.56350158004E+02  0.58996991710E+02 -0.17522362547E+02  0.11501683072E+03  0.79157140061E+02 0.  0.
         -6    2    1    2    0  502  0.75828900986E+02  0.20969345860E+01  0.20383136846E+03  0.27797163952E+03  0.17310859670E+03 0.  0.
        -24    2    5    5    0    0  0.38687278626E+02 -0.33584792146E+02  0.20519470376E+03  0.22623543926E+03  0.80330341315E+02 0.  0.
          5    1    3    3  501    0 -0.19478742982E+02 -0.61093926296E+02 -0.63062830278E+02  0.90060534204E+02  0.47000000000E+01 0. -1.
        -11    1    4    4    0    0 -0.12589656069E+02 -0.83340071446E+01  0.21071106028E+02  0.25921933266E+02  0.00000000000E+00 0.  1.
         12    1    4    4    0    0 -0.43760501935E+02  0.67330998855E+02 -0.38593468575E+02  0.89094897458E+02  0.00000000000E+00 0. -1.
         -5    1    5    5    0  502  0.37141622360E+02  0.35681726732E+02 -0.13633353007E+01  0.51736200259E+02  0.47000000000E+01 0.  1.
         11    1    6    6    0    0 -0.96206001657E+00  0.12146847062E+01 -0.72114347130E+01  0.73760293540E+01  0.00000000000E+00 0. -1.
        -12    1    6    6    0    0  0.39649338642E+02 -0.34799476852E+02  0.21240613847E+03  0.21885940991E+03  0.00000000000E+00 0.  1.
</event>
<event>
12    1  0.8407180E-002  0.2161890E+03  0.7818608E-02  0.1137248E+00
         21   -1    0    0  501  502  0.00000000000E+00  0.00000000000E+00  0.23545998919E+03  0.23545998919E+03  0.00000000000E+00 0.  1.
         21   -1    0    0  502  503 -0.00000000000E+00 -0.00000000000E+00 -0.35778862316E+03  0.35778862316E+03  0.00000000000E+00 0. -1.
         -6    2    1    2    0  503  0.87217762317E+02  0.91825666012E+02 -0.26033597522E+03  0.33676529772E+03  0.17203823632E+03 0.  0.
        -24    2    3    3    0    0  0.43437787461E+00  0.58378450587E+00 -0.60234674784E+02  0.10029319114E+03  0.80187147686E+02 0.  0.
          6    2    1    2  501    0 -0.87217762317E+02 -0.91825666012E+02  0.13800734125E+03  0.25648331463E+03  0.17521065448E+03 0.  0.
         24    2    5    5    0    0 -0.80814077684E+02 -0.13219649274E+03  0.12501161748E+03  0.21333485389E+03  0.76661773623E+02 0.  0.
          5    1    5    5  501    0 -0.64036846325E+01  0.40370826730E+02  0.12995723775E+02  0.43148460739E+02  0.47000000000E+01 0. -1.
        -13    1    6    6    0    0 -0.74787686837E+02 -0.90344745044E+02  0.12450783562E+03  0.17104844983E+03  0.00000000000E+00 0.  1.
         14    1    6    6    0    0 -0.60263908469E+01 -0.41851747698E+02  0.50378185817E+00  0.42286404058E+02  0.00000000000E+00 0. -1.
         -5    1    3    3    0  503  0.86783384442E+02  0.91241881506E+02 -0.20010130043E+03  0.23647210658E+03  0.47000000000E+01 0.  1.
         13    1    4    4    0    0 -0.13297777831E+02  0.31430897566E+01 -0.77152887801E+02  0.78353544939E+02  0.00000000000E+00 0. -1.
        -14    1    4    4    0    0  0.13732155706E+02 -0.25593052507E+01  0.16918213017E+02  0.21939646200E+02  0.00000000000E+00 0.  1.
</event>
<event>
12    1  0.8407180E-002  0.4863142E+03  0.7818608E-02  0.1017464E+00
         21   -1    0    0  503  502  0.00000000000E+00  0.00000000000E+00  0.38494207165E+03  0.38494207165E+03  0.00000000000E+00 0.  1.
         21   -1    0    0  501  503 -0.00000000000E+00 -0.00000000000E+00 -0.89412207871E+03  0.89412207871E+03  0.00000000000E+00 0. -1.
          6    2    1    2  501    0 -0.37911305921E+03 -0.25073613551E+03 -0.61303793160E+03  0.78250689179E+03  0.17293411697E+03 0.  0.
         24    2    3    3    0    0 -0.26366628955E+03 -0.24840069659E+03 -0.46330932785E+03  0.59336632058E+03  0.78773338197E+02 0.  0.
         -6    2    1    2    0  502  0.37911305921E+03  0.25073613551E+03  0.10385792455E+03  0.49655725856E+03  0.17084297243E+03 0.  0.
        -24    2    5    5    0    0  0.16199473975E+03  0.44872554733E+02  0.42027663571E+02  0.19099998127E+03  0.80366824406E+02 0.  0.
          5    1    3    3  501    0 -0.11544676965E+03 -0.23354389198E+01 -0.14972860375E+03  0.18914057121E+03  0.47000000000E+01 0. -1.
        -11    1    4    4    0    0 -0.17764807729E+03 -0.20458399675E+03 -0.30521893575E+03  0.40813239253E+03  0.00000000000E+00 0.  1.
         12    1    4    4    0    0 -0.86018212263E+02 -0.43816699836E+02 -0.15809039210E+03  0.18523392805E+03  0.00000000000E+00 0. -1.
         -5    1    5    5    0  502  0.21711831945E+03  0.20586358078E+03  0.61830260980E+02  0.30555727729E+03  0.47000000000E+01 0.  1.
         13    1    6    6    0    0  0.94909773397E+02  0.29011960458E+02 -0.16455096234E+02  0.10059984656E+03  0.00000000000E+00 0. -1.
        -14    1    6    6    0    0  0.67084966357E+02  0.15860594275E+02  0.58482759805E+02  0.90400134714E+02  0.00000000000E+00 0.  1.
</event>
<event>
12    1  0.8407180E-002  0.1934611E+03  0.7818608E-02  0.1157171E+00
         21   -1    0    0  503  502  0.00000000000E+00  0.00000000000E+00  0.36725347650E+03  0.36725347650E+03  0.00000000000E+00 0. -1.
         21   -1    0    0  501  503 -0.00000000000E+00 -0.00000000000E+00 -0.10255908082E+03  0.10255908082E+03  0.00000000000E+00 0.  1.
          6    2    1    2  501    0 -0.31619532702E+02 -0.74736628899E+02  0.78876907793E+02  0.20156766193E+03  0.16680107076E+03 0.  0.
         24    2    3    3    0    0 -0.40669600922E+01  0.10987762681E+02  0.75608430976E+02  0.11134245199E+03  0.80890269418E+02 0.  0.
         -6    2    1    2    0  502  0.31619532702E+02  0.74736628899E+02  0.18581748789E+03  0.26824489539E+03  0.17561841175E+03 0.  0.
        -24    2    5    5    0    0 -0.50932553707E+02  0.43665942021E+02  0.92730734484E+02  0.13991926189E+03  0.80483359826E+02 0.  0.
          5    1    3    3  501    0 -0.27552572610E+02 -0.85724391580E+02  0.32684768170E+01  0.90225209947E+02  0.47000000000E+01 0. -1.
        -11    1    4    4    0    0 -0.12950228044E-01 -0.28098376946E+02  0.64734845115E+02  0.70569959096E+02  0.00000000000E+00 0.  1.
         12    1    4    4    0    0 -0.40540098642E+01  0.39086139628E+02  0.10873585860E+02  0.40772492890E+02  0.00000000000E+00 0. -1.
         -5    1    5    5    0  502  0.82552086409E+02  0.31070686878E+02  0.93086753409E+02  0.12832563350E+03  0.47000000000E+01 0.  1.
         11    1    6    6    0    0 -0.57018001205E+01 -0.52909080028E+01  0.68589654745E+02  0.69029305155E+02  0.00000000000E+00 0. -1.
        -12    1    6    6    0    0 -0.45230753587E+02  0.48956850024E+02  0.24141079739E+02  0.70889956730E+02  0.00000000000E+00 0.  1.
</event>
<event>
12    1  0.8407180E-002  0.2192996E+03  0.7818608E-02  0.1134526E+00
         21   -1    0    0  501  502  0.00000000000E+00  0.00000000000E+00  0.31265950398E+03  0.31265950398E+03  0.00000000000E+00 0. -1.
         21   -1    0    0  502  503 -0.00000000000E+00 -0.00000000000E+00 -0.18259325795E+03  0.18259325795E+03  0.00000000000E+00 0. -1.
         -6    2    1    2    0  503  0.94749461184E+02 -0.97945167366E+02 -0.34114979081E+02  0.22130424407E+03  0.17100005977E+03 0.  0.
        -24    2    3    3    0    0  0.10633036224E+03 -0.51653145378E+02  0.24255940778E+02  0.14576403719E+03  0.81759467428E+02 0.  0.
          6    2    1    2  501    0 -0.94749461184E+02  0.97945167366E+02  0.16418122511E+03  0.27394851786E+03  0.17181850760E+03 0.  0.
         24    2    5    5    0    0 -0.12328117266E+03  0.94675129323E+02  0.96673620086E+02  0.20043580845E+03  0.81652292338E+02 0.  0.
          5    1    5    5  501    0  0.28531711472E+02  0.32700380428E+01  0.67507605026E+02  0.73512709409E+02  0.47000000000E+01 0. -1.
        -11    1    6    6    0    0 -0.14852245245E+02  0.13220757806E+02 -0.14879266901E+02  0.24834858753E+02  0.00000000000E+00 0.  1.
         12    1    6    6    0    0 -0.10842892741E+03  0.81454371517E+02  0.11155288699E+03  0.17560094970E+03  0.00000000000E+00 0. -1.
         -5    1    3    3    0  503 -0.11580901059E+02 -0.46292021988E+02 -0.58370919860E+02  0.75540206873E+02  0.47000000000E+01 0.  1.
         13    1    4    4    0    0  0.35561402758E+02  0.21751201298E+02  0.48008065797E+01  0.41961599920E+02  0.00000000000E+00 0. -1.
        -14    1    4    4    0    0  0.70768959485E+02 -0.73404346676E+02  0.19455134199E+02  0.10380243727E+03  0.00000000000E+00 0.  1.
</event>
<event>
12    1  0.8407180E-002  0.2018975E+03  0.7818608E-02  0.1148320E+00
         21   -1    0    0  501  502  0.00000000000E+00  0.00000000000E+00  0.83914254142E+03  0.83914254142E+03  0.00000000000E+00 0.  1.
         21   -1    0    0  502  503 -0.00000000000E+00 -0.00000000000E+00 -0.53827189675E+02  0.53827189675E+02  0.00000000000E+00 0.  1.
         -6    2    1    2    0  503  0.11173828387E+02  0.10354549861E+03  0.25132942963E+03  0.32238031358E+03  0.17296259614E+03 0.  0.
        -24    2    3    3    0    0 -0.13237011800E+02  0.53818989931E+02  0.41867581439E+02  0.10566628397E+03  0.79628933397E+02 0.  0.
          6    2    1    2  501    0 -0.11173828387E+02 -0.10354549861E+03  0.53398592212E+03  0.57058941752E+03  0.17200230707E+03 0.  0.
         24    2    5    5    0    0 -0.26838520128E+02 -0.31068948058E+02  0.44859799148E+03  0.45740186676E+03  0.79314084893E+02 0.  0.
          5    1    5    5  501    0  0.15664691741E+02 -0.72476550548E+02  0.85387930638E+02  0.11318755075E+03  0.47000000000E+01 0. -1.
        -11    1    6    6    0    0 -0.26666649355E+02 -0.53780199927E+02  0.38934216318E+03  0.39394255942E+03  0.00000000000E+00 0.  1.
         12    1    6    6    0    0 -0.17187077336E+00  0.22711251870E+02  0.59255828303E+02  0.63459307346E+02  0.00000000000E+00 0. -1.
         -5    1    3    3    0  503  0.24410840188E+02  0.49726508674E+02  0.20946184819E+03  0.21671402961E+03  0.47000000000E+01 0.  1.
         13    1    4    4    0    0 -0.20995225837E+02 -0.14696765037E+02  0.22347349268E+02  0.34002917960E+02  0.00000000000E+00 0. -1.
        -14    1    4    4    0    0  0.77582140371E+01  0.68515754968E+02  0.19520232172E+02  0.71663366010E+02  0.00000000000E+00 0.  1.
</event>
<event>
12    1  0.8407180E-002  0.2168870E+03  0.7818608E-02  0.1136358E+00
         21   -1    0    0  501  502  0.00000000000E+00  0.00000000000E+00  0.48899448180E+03  0.48899448180E+03  0.00000000000E+00 0. -1.
         21   -1    0    0  502  503 -0.00000000000E+00 -0.00000000000E+00 -0.10959909565E+03  0.10959909565E+03  0.00000000000E+00 0. -1.
         -6    2    1    2    0  503 -0.10995321714E+03  0.72245875853E+02  0.84107628731E+02  0.23262433801E+03  0.17242625347E+03 0.  0.
        -24    2    3    3    0    0  0.13744601030E+02  0.43535841373E+02  0.40040690195E+02  0.98127492792E+02  0.77080895356E+02 0.  0.
          6    2    1    2  501    0  0.10995321714E+03 -0.72245875853E+02  0.29528775742E+03  0.36596923945E+03  0.17155013263E+03 0.  0.
         24    2    5    5    0    0  0.87179311004E+02  0.32034733384E+01  0.98841035666E+02  0.15425088979E+03  0.80083032921E+02 0.  0.
          5    1    5    5  501    0  0.22773906137E+02 -0.75449349192E+02  0.19644672175E+03  0.21171834965E+03  0.47000000000E+01 0. -1.
        -11    1    6    6    0    0 -0.78720388162E+01 -0.17035489936E+02  0.56285627193E+01  0.19592284981E+02  0.00000000000E+00 0.  1.
         12    1    6    6    0    0  0.95051349820E+02  0.20238963274E+02  0.93212472947E+02  0.13465860481E+03  0.00000000000E+00 0. -1.
         -5    1    3    3    0  503 -0.12369781817E+03  0.28710034480E+02  0.44066938536E+02  0.13449684521E+03  0.47000000000E+01 0.  1.
         13    1    4    4    0    0  0.89046106406E+00 -0.19254240762E+02  0.26252927651E+02  0.32568925657E+02  0.00000000000E+00 0. -1.
        -14    1    4    4    0    0  0.12854139966E+02  0.62790082135E+02  0.13787762544E+02  0.65558567135E+02  0.00000000000E+00 0.  1.
</event>
<event>
12    1  0.8407180E-002  0.2482479E+03  0.7818608E-02  0.1114813E+00
         21   -1    0    0  503  502  0.00000000000E+00  0.00000000000E+00  0.51433256241E+02  0.51433256241E+02  0.00000000000E+00 0.  1.
         21   -1    0    0  501  503 -0.00000000000E+00 -0.00000000000E+00 -0.11994959807E+04  0.11994959807E+04  0.00000000000E+00 0. -1.
          6    2    1    2  501    0  0.82385468137E+02 -0.15520280752E+03 -0.50557811355E+03  0.56215242734E+03  0.17184541263E+03 0.  0.
         24    2    3    3    0    0  0.58841835123E+02 -0.33514046146E+02 -0.13600125938E+03  0.17231707949E+03  0.81309780955E+02 0.  0.
         -6    2    1    2    0  502 -0.82385468137E+02  0.15520280752E+03 -0.64248461090E+03  0.68877680960E+03  0.17536174431E+03 0.  0.
        -24    2    5    5    0    0 -0.10295593460E+03  0.17318093261E+03 -0.60077055910E+03  0.63869178998E+03  0.80064836306E+02 0.  0.
          5    1    3    3  501    0  0.23543633013E+02 -0.12168876137E+03 -0.36957685417E+03  0.38983534785E+03  0.47000000000E+01 0. -1.
        -13    1    4    4    0    0  0.27097709957E+02  0.17770753831E+02 -0.12237246213E+02  0.34638645636E+02  0.00000000000E+00 0.  1.
         14    1    4    4    0    0  0.31744125167E+02 -0.51284799978E+02 -0.12376401317E+03  0.13767843385E+03  0.00000000000E+00 0. -1.
         -5    1    5    5    0  502  0.20570466467E+02 -0.17978125089E+02 -0.41714051799E+02  0.50085019615E+02  0.47000000000E+01 0.  1.
         11    1    6    6    0    0 -0.45435606053E+02  0.27909976623E+02 -0.23453025502E+03  0.24051569931E+03  0.00000000000E+00 0. -1.
        -12    1    6    6    0    0 -0.57520328551E+02  0.14527095599E+03 -0.36624030408E+03  0.39817609067E+03  0.00000000000E+00 0.  1.
</event>
<event>
12    1  0.8407180E-002  0.1880410E+03  0.7818608E-02  0.1160260E+00
         21   -1    0    0  503  502  0.00000000000E+00  0.00000000000E+00  0.47483207678E+02  0.47483207678E+02  0.00000000000E+00 0. -1.
         21   -1    0    0  501  503 -0.00000000000E+00 -0.00000000000E+00 -0.89539191338E+03  0.89539191338E+03  0.00000000000E+00 0.  1.
          6    2    1    2  501    0  0.75248114826E+02 -0.13070084994E+02 -0.23022958099E+03  0.29720731975E+03  0.17173649886E+03 0.  0.
         24    2    3    3    0    0  0.19617621445E+02  0.56234154454E+02 -0.10163401138E+03  0.14082081163E+03  0.77161502828E+02 0.  0.
         -6    2    1    2    0  502 -0.75248114826E+02  0.13070084994E+02 -0.61767912471E+03  0.64566780131E+03  0.17183219327E+03 0.  0.
        -24    2    5    5    0    0 -0.10081043301E+03 -0.19463500715E+02 -0.55753191598E+03  0.57251287647E+03  0.79922369395E+02 0.  0.
          5    1    3    3  501    0  0.55630493380E+02 -0.69304239448E+02 -0.12859556961E+03  0.15638650812E+03  0.47000000000E+01 0. -1.
        -13    1    4    4    0    0 -0.25716321582E+02  0.27900144799E+01 -0.17072620492E+02  0.30993350044E+02  0.00000000000E+00 0.  1.
         14    1    4    4    0    0  0.45333943027E+02  0.53444139974E+02 -0.84561390893E+02  0.10982746158E+03  0.00000000000E+00 0. -1.
         -5    1    5    5    0  502  0.25562318183E+02  0.32533585709E+02 -0.60147208732E+02  0.73154924840E+02  0.47000000000E+01 0.  1.
         11    1    6    6    0    0 -0.93075576817E+02  0.10974856396E+02 -0.33826136066E+03  0.35100464183E+03  0.00000000000E+00 0. -1.
        -12    1    6    6    0    0 -0.77348561928E+01 -0.30438357112E+02 -0.21927055531E+03  0.22150823464E+03  0.00000000000E+00 0.  1.
</event>
<event>
12    1  0.8407180E-002  0.2128727E+03  0.7818608E-02  0.1139344E+00
         21   -1    0    0  503  502  0.00000000000E+00  0.00000000000E+00  0.49499308706E+02  0.49499308706E+02  0.00000000000E+00 0. -1.
         21   -1    0    0  501  503 -0.00000000000E+00 -0.00000000000E+00 -0.24093075865E+04  0.24093075865E+04  0.00000000000E+00 0. -1.
          6    2    1    2  501    0 -0.16089905144E+02 -0.12475061411E+03 -0.21480189484E+04  0.21585245131E+04  0.17152571293E+03 0.  0.
         24    2    3    3    0    0 -0.39763796037E+02 -0.29539586661E+02 -0.59591190976E+03  0.60331264899E+03  0.80133648280E+02 0.  0.
         -6    2    1    2    0  502  0.16089905144E+02  0.12475061411E+03 -0.21178932934E+03  0.30028238206E+03  0.17173580926E+03 0.  0.
        -24    2    5    5    0    0 -0.25752462180E+02  0.13330837812E+02 -0.48362388693E+02  0.98055763673E+02  0.80219147367E+02 0.  0.
          5    1    3    3  501    0  0.23673890893E+02 -0.95211027446E+02 -0.15521070387E+04  0.15552118641E+04  0.47000000000E+01 0. -1.
        -13    1    4    4    0    0  0.23921327194E+01  0.10965027381E+02 -0.36307954361E+03  0.36325295472E+03  0.00000000000E+00 0.  1.
         14    1    4    4    0    0 -0.42155928756E+02 -0.40504614042E+02 -0.23283236615E+03  0.24005969427E+03  0.00000000000E+00 0. -1.
         -5    1    5    5    0  502  0.41842367324E+02  0.11141977630E+03 -0.16342694065E+03  0.20222661838E+03  0.47000000000E+01 0.  1.
         13    1    6    6    0    0 -0.45914802008E+02  0.58827128513E+01 -0.12898120123E+01  0.46308087511E+02  0.00000000000E+00 0. -1.
        -14    1    6    6    0    0  0.20162339828E+02  0.74481249603E+01 -0.47072576681E+02  0.51747676162E+02  0.00000000000E+00 0.  1.
</event>
<event>
12    1  0.8407180E-002  0.2779442E+03  0.7818608E-02  0.1097328E+00
         21   -1    0    0  501  502  0.00000000000E+00  0.00000000000E+00  0.15863593032E+04  0.15863593032E+04  0.00000000000E+00 0.  1.
         21   -1    0    0  502  503 -0.00000000000E+00 -0.00000000000E+00 -0.96265144217E+02  0.96265144217E+02  0.00000000000E+00 0.  1.
         -6    2    1    2    0  503  0.11560550176E+03 -0.18003363182E+03  0.14720250624E+03  0.31127074984E+03  0.17159301046E+03 0.  0.
        -24    2    3    3    0    0  0.73516970937E+02 -0.53552826814E+02  0.11360521821E+02  0.12089225002E+03  0.78824008931E+02 0.  0.
          6    2    1    2  501    0 -0.11560550176E+03  0.18003363182E+03  0.13428916527E+04  0.13713536976E+04  0.17741542272E+03 0.  0.
         24    2    5    5    0    0 -0.50190845230E+02  0.18903838910E+03  0.10581901180E+04  0.10790572439E+04  0.79646571128E+02 0.  0.
          5    1    5    5  501    0 -0.65414656530E+02 -0.90047572752E+01  0.28470153471E+03  0.29229645364E+03  0.47000000000E+01 0. -1.
        -13    1    6    6    0    0 -0.65495346448E+02  0.12433021728E+03  0.61108390639E+03  0.62703363863E+03  0.00000000000E+00 0.  1.
         14    1    6    6    0    0  0.15304501218E+02  0.64708171823E+02  0.44710621164E+03  0.45202360530E+03  0.00000000000E+00 0. -1.
         -5    1    3    3    0  503  0.42088530822E+02 -0.12648080501E+03  0.13584198442E+03  0.19037849982E+03  0.47000000000E+01 0.  1.
         13    1    4    4    0    0  0.65314954135E+02 -0.67281807197E+02 -0.98964641999E+01  0.94291170408E+02  0.00000000000E+00 0. -1.
        -14    1    4    4    0    0  0.82020168016E+01  0.13728980382E+02  0.21256986020E+02  0.26601079614E+02  0.00000000000E+00 0.  1.
</event>
<event>
12    1  0.8407180E-002  0.1781900E+03  0.7818608E-02  0.1170441E+00
         21   -1    0    0  503  502  0.00000000000E+00  0.00000000000E+00  0.13231383995E+03  0.13231383995E+03  0.00000000000E+00 0.  1.
         21   -1    0    0  501  503 -0.00000000000E+00 -0.00000000000E+00 -0.44277582733E+03  0.44277582733E+03  0.00000000000E+00 0.  1.
          6    2    1    2  501    0  0.20169735079E+02 -0.40414087093E+02 -0.35126114836E+03  0.39228853813E+03  0.16871806706E+03 0.  0.
         24    2    3    3    0    0 -0.22553566453E+02 -0.59297918720E+02 -0.31982837273E+03  0.33579084814E+03  0.80252097571E+02 0.  0.
         -6    2    1    2    0  502 -0.20169735079E+02  0.40414087093E+02  0.40799160975E+02  0.18280112915E+03  0.17237042854E+03 0.  0.
        -24    2    5    5    0    0 -0.33623167238E+02 -0.29997667086E+02 -0.13832008950E+02  0.92548900974E+02  0.79646702344E+02 0.  0.
          5    1    3    3  501    0  0.42723301532E+02  0.18883831627E+02 -0.31432775626E+02  0.56497689991E+02  0.47000000000E+01 0. -1.
        -13    1    4    4    0    0  0.49601661696E+01 -0.34603650911E+02 -0.27706649198E+03  0.27926306036E+03  0.00000000000E+00 0.  1.
         14    1    4    4    0    0 -0.27513732623E+02 -0.24694267809E+02 -0.42761880756E+02  0.56527787780E+02  0.00000000000E+00 0. -1.
         -5    1    5    5    0  502  0.13453432159E+02  0.70411754179E+02  0.54631169925E+02  0.90252228177E+02  0.47000000000E+01 0.  1.
         11    1    6    6    0    0  0.17912886799E+02 -0.35316067109E+02 -0.81427154898E+01  0.40427712341E+02  0.00000000000E+00 0. -1.
        -12    1    6    6    0    0 -0.51536054037E+02  0.53184000232E+01 -0.56892934602E+01  0.52121188633E+02  0.00000000000E+00 0.  1.
</event>
<event>
12    1  0.8407180E-002  0.2440062E+03  0.7818608E-02  0.1117226E+00
         21   -1    0    0  501  502  0.00000000000E+00  0.00000000000E+00  0.14099485866E+03  0.14099485866E+03  0.00000000000E+00 0.  1.
         21   -1    0    0  502  503 -0.00000000000E+00 -0.00000000000E+00 -0.44805837797E+03  0.44805837797E+03  0.00000000000E+00 0. -1.
         -6    2    1    2    0  503 -0.12992037217E+02  0.17176657605E+03 -0.81955850243E+02  0.25740198291E+03  0.17281918220E+03 0.  0.
        -24    2    3    3    0    0 -0.27386230316E+02  0.13795179004E+03  0.74699825800E+01  0.16060476124E+03  0.77184109144E+02 0.  0.
          6    2    1    2  501    0  0.12992037217E+02 -0.17176657605E+03 -0.22510766907E+03  0.33165125373E+03  0.17218171142E+03 0.  0.
         24    2    5    5    0    0 -0.42095098855E+02 -0.68546579822E+02 -0.15929423453E+03  0.19732903536E+03  0.84222705310E+02 0.  0.
          5    1    5    5  501    0  0.55087136071E+02 -0.10321999623E+03 -0.65813434539E+02  0.13432221837E+03  0.47000000000E+01 0. -1.
        -13    1    6    6    0    0 -0.54106594298E+02 -0.80951506679E+02 -0.12092251693E+03  0.15525116773E+03  0.00000000000E+00 0.  1.
         14    1    6    6    0    0  0.12011495444E+02  0.12404926857E+02 -0.38371717599E+02  0.42077867634E+02  0.00000000000E+00 0. -1.
         -5    1    3    3    0  503  0.14394193099E+02  0.33814786005E+02 -0.89425832823E+02  0.96797221673E+02  0.47000000000E+01 0.  1.
         11    1    4    4    0    0 -0.29379933509E+02  0.10333387395E+03 -0.27982480228E+02  0.11101391444E+03  0.00000000000E+00 0. -1.
        -12    1    4    4    0    0  0.19937031929E+01  0.34617916093E+02  0.35452462808E+02  0.49590846799E+02  0.00000000000E+00 0.  1.
</event>
<event>
12    1  0.8407180E-002  0.1913187E+03  0.7818608E-02  0.1161693E+00
         21   -1    0    0  503  502  0.00000000000E+00  0.00000000000E+00  0.17949485282E+03  0.17949485282E+03  0.00000000000E+00 0.  1.
         21   -1    0    0  501  503 -0.00000000000E+00 -0.00000000000E+00 -0.27120591660E+03  0.27120591660E+03  0.00000000000E+00 0.  1.
          6    2    1    2  501    0  0.59403550980E+02  0.55505991954E+02 -0.17157841001E+03  0.24338064651E+03  0.15226717079E+03 0.  0.
         24    2    3    3    0    0  0.17714872066E+02  0.80019198466E+02 -0.15314376196E+03  0.19141171837E+03  0.80427267065E+02 0.  0.
         -6    2    1    2    0  502 -0.59403550980E+02 -0.55505991954E+02  0.79867346237E+02  0.20732012291E+03  0.17318528620E+03 0.  0.
        -24    2    5    5    0    0 -0.42667988893E+02  0.35912126824E+02  0.61342933703E+02  0.11243811545E+03  0.75954829752E+02 0.  0.
          5    1    3    3  501    0  0.41688678914E+02 -0.24513206512E+02 -0.18434648057E+02  0.51968928140E+02  0.47000000000E+01 0. -1.
        -11    1    4    4    0    0  0.46102230205E+01  0.55442794596E+02 -0.15379895234E+03  0.16355205706E+03  0.00000000000E+00 0.  1.
         12    1    4    4    0    0  0.13104649046E+02  0.24576403870E+02  0.65519038071E+00  0.27859661308E+02  0.00000000000E+00 0. -1.
         -5    1    5    5    0  502 -0.16735562087E+02 -0.91418118778E+02  0.18524412534E+02  0.94882007456E+02  0.47000000000E+01 0.  1.
         13    1    6    6    0    0 -0.62113501832E+02  0.15462047078E+02  0.52736436727E+02  0.82935479551E+02  0.00000000000E+00 0. -1.
        -14    1    6    6    0    0  0.19445512939E+02  0.20450079746E+02  0.86064969761E+01  0.29502635904E+02  0.00000000000E+00 0.  1.
</event>
<event>
12    1  0.8407180E-002  0.2090788E+03  0.7818608E-02  0.1144512E+00
         21   -1    0    0  501  502  0.00000000000E+00  0.00000000000E+00  0.33459190950E+03  0.33459190950E+03  0.00000000000E+00 0.  1.
         21   -1    0    0  502  503 -0.00000000000E+00 -0.00000000000E+00 -0.18119638380E+03  0.18119638380E+03  0.00000000000E+00 0.  1.
         -6    2    1    2    0  503 -0.69591869358E+02  0.68166225672E+02 -0.66792628721E+02  0.21948854273E+03  0.18499811496E+03 0.  0.
        -24    2    3    3    0    0 -0.54469639121E+02 -0.30391677594E+02 -0.63999866969E+02  0.11962748095E+03  0.79524559554E+02 0.  0.
          6    2    1    2  501    0  0.69591869358E+02 -0.68166225672E+02  0.22018815442E+03  0.29629975057E+03  0.17268774200E+03 0.  0.
         24    2    5    5    0    0  0.66033492933E+01 -0.33340472910E+02  0.27103197498E+02  0.90182605952E+02  0.79013465599E+02 0.  0.
          5    1    5    5  501    0  0.62988520064E+02 -0.34825752762E+02  0.19308495693E+03  0.20611714462E+03  0.47000000000E+01 0. -1.
        -13    1    6    6    0    0  0.28247002906E+02  0.15682627569E+02  0.79289345529E+01  0.33267190801E+02  0.00000000000E+00 0.  1.
         14    1    6    6    0    0 -0.21643653613E+02 -0.49023100479E+02  0.19174262945E+02  0.56915415151E+02  0.00000000000E+00 0. -1.
         -5    1    3    3    0  503 -0.15122230236E+02  0.98557903266E+02 -0.27927617516E+01  0.99861061790E+02  0.47000000000E+01 0.  1.
         13    1    4    4    0    0 -0.26772235069E+01 -0.46690550203E+02 -0.29063940467E+02  0.55062579303E+02  0.00000000000E+00 0. -1.
        -14    1    4    4    0    0 -0.51792415615E+02  0.16298872609E+02 -0.34935926503E+02  0.64564901643E+02  0.00000000000E+00 0.  1.
</event>
<event>
12    1  0.8407180E-002  0.3123866E+03  0.7818608E-02  0.1079371E+00
         21   -1    0    0  501  502  0.00000000000E+00  0.00000000000E+00  0.21274095824E+03  0.21274095824E+03  0.00000000000E+00 0.  1.
         21   -1    0    0  502  503 -0.00000000000E+00 -0.00000000000E+00 -0.47571274359E+03  0.47571274359E+03  0.00000000000E+00 0. -1.
         -6    2    1    2    0  503  0.17556302801E+03 -0.19277427958E+03 -0.20060846944E+03  0.37125350910E+03  0.17204973216E+03 0.  0.
        -24    2    3    3    0    0  0.86311695361E+02 -0.50095312808E+02 -0.29687524785E+02  0.13133863407E+03  0.80057720110E+02 0.  0.
          6    2    1    2  501    0 -0.17556302801E+03  0.19277427958E+03 -0.62363315907E+02  0.31720019273E+03  0.16953607117E+03 0.  0.
         24    2    5    5    0    0 -0.15614907021E+02  0.75985023958E+02 -0.20759894720E+02  0.11477473413E+03  0.82004372926E+02 0.  0.
          5    1    5    5  501    0 -0.15994812099E+03  0.11678925562E+03 -0.41603421187E+02  0.20242545860E+03  0.47000000000E+01 0. -1.
        -13    1    6    6    0    0 -0.18546215167E+02  0.48665631067E+02  0.27759205997E+02  0.59015923798E+02  0.00000000000E+00 0.  1.
         14    1    6    6    0    0  0.29313081457E+01  0.27319392891E+02 -0.48519100717E+02  0.55758810333E+02  0.00000000000E+00 0. -1.
         -5    1    3    3    0  503  0.89251332646E+02 -0.14267896677E+03 -0.17092094466E+03  0.23991487503E+03  0.47000000000E+01 0.  1.
         13    1    4    4    0    0  0.33787370204E+02 -0.30766150153E+02 -0.53635671784E+02  0.70462242856E+02  0.00000000000E+00 0. -1.
        -14    1    4    4    0    0  0.52524325157E+02 -0.19329162655E+02  0.23948146999E+02  0.60876391211E+02  0.00000000000E+00 0.  1.
</event>
<event>
12    1  0.8407180E-002  0.1906843E+03  0.7818608E-02  0.1158922E+00
         21   -1    0    0  503  502  0.00000000000E+00  0.00000000000E+00  0.11903920668E+04  0.11903920668E+04  0.00000000000E+00 0.  1.
         21   -1    0    0  501  503 -0.00000000000E+00 -0.00000000000E+00 -0.78376396406E+02  0.78376396406E+02  0.00000000000E+00 0.  1.
          6    2    1    2  501    0  0.43989935074E+02  0.68577331432E+02  0.10581152257E+04  0.10751596692E+04  0.17240220039E+03 0.  0.
         24    2    3    3    0    0 -0.24530936076E+02  0.58494939463E+02  0.83954585017E+03  0.84583146265E+03  0.81056794331E+02 0.  0.
         -6    2    1    2    0  502 -0.43989935074E+02 -0.68577331432E+02  0.53900444686E+02  0.19360879397E+03  0.16715604204E+03 0.  0.
        -24    2    5    5    0    0 -0.24031610048E+02  0.19331967095E+02 -0.40443734547E+01  0.86342436455E+02  0.80544497908E+02 0.  0.
          5    1    3    3  501    0  0.68520871150E+02  0.10082391969E+02  0.21856937550E+03  0.22932820655E+03  0.47000000000E+01 0. -1.
        -13    1    4    4    0    0  0.76914974589E+01  0.17537832253E+02  0.61576825248E+03  0.61606596681E+03  0.00000000000E+00 0.  1.
         14    1    4    4    0    0 -0.32222433535E+02  0.40957107210E+02  0.22377759769E+03  0.22976549584E+03  0.00000000000E+00 0. -1.
         -5    1    5    5    0  502 -0.19958325026E+02 -0.87909298526E+02  0.57944818141E+02  0.10726635752E+03  0.47000000000E+01 0.  1.
         13    1    6    6    0    0 -0.45566266490E+02  0.82757318190E+01  0.21579387062E+02  0.51092487951E+02  0.00000000000E+00 0. -1.
        -14    1    6    6    0    0  0.21534656443E+02  0.11056235276E+02 -0.25623760517E+02  0.35249948505E+02  0.00000000000E+00 0.  1.
</event>
<event>
12    1  0.8407180E-002  0.2400195E+03  0.7818608E-02  0.1120895E+00
         21   -1    0    0  503  502  0.00000000000E+00  0.00000000000E+00  0.36088943647E+03  0.36088943647E+03  0.00000000000E+00 0. -1.
         21   -1    0    0  501  503 -0.00000000000E+00 -0.00000000000E+00 -0.20175120371E+03  0.20175120371E+03  0.00000000000E+00 0.  1.
          6    2    1    2  501    0  0.16613777729E+03 -0.20238562926E+02 -0.54593764080E+02  0.24614999709E+03  0.17204063915E+03 0.  0.
         24    2    3    3    0    0  0.11565820354E+03  0.52758927003E+02 -0.22260216296E+02  0.15157532175E+03  0.79493625604E+02 0.  0.
         -6    2    1    2    0  502 -0.16613777729E+03  0.20238562926E+02  0.21373199683E+03  0.31649064309E+03  0.16270709949E+03 0.  0.
        -24    2    5    5    0    0 -0.17019201278E+03  0.21601005879E+02  0.23053890979E+03  0.29852246568E+03  0.80842741897E+02 0.  0.
          5    1    3    3  501    0  0.50479573751E+02 -0.72997489929E+02 -0.32333547784E+02  0.94574675333E+02  0.47000000000E+01 0. -1.
        -13    1    4    4    0    0  0.56738046819E+02  0.15043652793E+01 -0.42494236606E+02  0.70902956331E+02  0.00000000000E+00 0.  1.
         14    1    4    4    0    0  0.58920156718E+02  0.51254561723E+02  0.20234020310E+02  0.80672365424E+02  0.00000000000E+00 0. -1.
         -5    1    5    5    0  502  0.40542354901E+01 -0.13624429528E+01 -0.16806912963E+02  0.17968177414E+02  0.47000000000E+01 0.  1.
         11    1    6    6    0    0 -0.12858848562E+03 -0.20768964233E+02  0.16010097991E+03  0.20639445796E+03  0.00000000000E+00 0. -1.
        -12    1    6    6    0    0 -0.41603527153E+02  0.42369970112E+02  0.70437929886E+02  0.92128007715E+02  0.00000000000E+00 0.  1.
</event>
<event>
12    1  0.8407180E-002  0.2173525E+03  0.7818608E-02  0.1136211E+00
         21   -1    0    0  501  502  0.00000000000E+00  0.00000000000E+00  0.29518987219E+03  0.29518987219E+03  0.00000000000E+00 0.  1.
         21   -1    0    0  502  503 -0.00000000000E+00 -0.00000000000E+00 -0.18435007178E+03  0.18435007178E+03  0.00000000000E+00 0.  1.
         -6    2    1    2    0  503 -0.13069827135E+03 -0.68902211862E+01 -0.33767967676E+02  0.21995992246E+03  0.17352976277E+03 0.  0.
        -24    2    3    3    0    0 -0.45955889702E+02 -0.53617596061E+01  0.50568497408E+02  0.10030066964E+03  0.73228130768E+02 0.  0.
          6    2    1    2  501    0  0.13069827135E+03  0.68902211862E+01  0.14460776808E+03  0.25958002151E+03  0.17129176190E+03 0.  0.
         24    2    5    5    0    0  0.17782363577E+02 -0.34458222201E+02  0.95164986786E+02  0.12947862020E+03  0.78770278964E+02 0.  0.
          5    1    5    5  501    0  0.11291590778E+03  0.41348443387E+02  0.49442781299E+02  0.13010140131E+03  0.47000000000E+01 0. -1.
        -11    1    6    6    0    0  0.37448394720E+02 -0.42680260502E+02  0.37618397875E+02  0.68111164740E+02  0.00000000000E+00 0.  1.
         12    1    6    6    0    0 -0.19666031143E+02  0.82220383005E+01  0.57546588910E+02  0.61367455462E+02  0.00000000000E+00 0. -1.
         -5    1    3    3    0  503 -0.84742381651E+02 -0.15284615801E+01 -0.84336465084E+02  0.11965925282E+03  0.47000000000E+01 0.  1.
         11    1    4    4    0    0 -0.62095511552E+02  0.84856566454E+01  0.47872287637E+02  0.78864534787E+02  0.00000000000E+00 0. -1.
        -12    1    4    4    0    0  0.16139621850E+02 -0.13847416252E+02  0.26962097708E+01  0.21436134853E+02  0.00000000000E+00 0.  1.
</event>
<event>
12    1  0.8407180E-002  0.1916725E+03  0.7818608E-02  0.1156971E+00
         21   -1    0    0  503  502  0.00000000000E+00  0.00000000000E+00  0.12482535566E+04  0.12482535566E+04  0.00000000000E+00 0. -1.
         21   -1    0    0  501  503 -0.00000000000E+00 -0.00000000000E+00 -0.44162265776E+02  0.44162265776E+02  0.00000000000E+00 0. -1.
          6    2    1    2  501    0 -0.29617987253E+02 -0.79835395396E+02  0.97538208663E+03  0.99403649976E+03  0.17171905081E+03 0.  0.
         24    2    3    3    0    0  0.42735601843E+02 -0.31179332418E+02  0.36455737552E+03  0.37700216359E+03  0.80187710194E+02 0.  0.
         -6    2    1    2    0  502  0.29617987253E+02  0.79835395396E+02  0.22870920419E+03  0.29837932261E+03  0.17167237563E+03 0.  0.
        -24    2    5    5    0    0  0.31444361362E+02  0.85023879685E+02  0.70825465966E+02  0.14032989741E+03  0.80364329768E+02 0.  0.
          5    1    3    3  501    0 -0.72353589096E+02 -0.48656062977E+02  0.61082471110E+03  0.61703433617E+03  0.47000000000E+01 0. -1.
        -13    1    4    4    0    0 -0.15358607141E+02  0.92777752764E+01  0.14995044202E+03  0.15102019397E+03  0.00000000000E+00 0.  1.
         14    1    4    4    0    0  0.58094208984E+02 -0.40457107695E+02  0.21460693351E+03  0.22598196961E+03  0.00000000000E+00 0. -1.
         -5    1    5    5    0  502 -0.18263741087E+01 -0.51884842893E+01  0.15788373822E+03  0.15804942520E+03  0.47000000000E+01 0.  1.
         11    1    6    6    0    0  0.13550904959E+02  0.51223225735E+02  0.84479590132E+02  0.99720845508E+02  0.00000000000E+00 0. -1.
        -12    1    6    6    0    0  0.17893456402E+02  0.33800653950E+02 -0.13654124166E+02  0.40609051900E+02  0.00000000000E+00 0.  1.
</event>
<event>
12    1  0.8407180E-002  0.2501425E+03  0.7818608E-02  0.1114191E+00
         21   -1    0    0  503  502  0.00000000000E+00  0.00000000000E+00  0.23893381605E+03  0.23893381605E+03  0.00000000000E+00 0.  1.
         21   -1    0    0  501  503 -0.00000000000E+00 -0.00000000000E+00 -0.19839486083E+04  0.19839486083E+04  0.00000000000E+00 0.  1.
          6    2    1    2  501    0  0.80563527355E+02  0.15432139715E+03 -0.19112849950E+04  0.19275844018E+04  0.17962660837E+03 0.  0.
         24    2    3    3    0    0  0.98520030241E+02  0.14385121309E+03 -0.18801117384E+04  0.18898230104E+04  0.78813032676E+02 0.  0.
         -6    2    1    2    0  502 -0.80563527355E+02 -0.15432139715E+03  0.16627020277E+03  0.29529802252E+03  0.17102504559E+03 0.  0.
        -24    2    5    5    0    0  0.72997644682E+01 -0.20125997315E+02  0.44663670700E+02  0.93956019877E+02  0.79840765662E+02 0.  0.
          5    1    3    3  501    0 -0.17956502885E+02  0.10470184065E+02 -0.31173256624E+02  0.37761391377E+02  0.47000000000E+01 0. -1.
        -13    1    4    4    0    0  0.47968534957E+01  0.29312290318E+02 -0.12491229214E+03  0.12839509685E+03  0.00000000000E+00 0.  1.
         14    1    4    4    0    0  0.93723176745E+02  0.11453892277E+03 -0.17551994462E+04  0.17614279136E+04  0.00000000000E+00 0. -1.
         -5    1    5    5    0  502 -0.87863291824E+02 -0.13419539984E+03  0.12160653207E+03  0.20134200265E+03  0.47000000000E+01 0.  1.
         13    1    6    6    0    0 -0.60175913289E+01  0.29698682343E+02  0.10396872711E+02  0.32036199844E+02  0.00000000000E+00 0. -1.
        -14    1    6    6    0    0  0.13317355797E+02 -0.49824679658E+02  0.34266797989E+02  0.61919820033E+02  0.00000000000E+00 0.  1.
</event>
<event>
12    1  0.8407180E-002  0.2899774E+03  0.7818608E-02  0.1090490E+00
         21   -1    0    0  503  502  0.00000000000E+00  0.00000000000E+00  0.17358860094E+03  0.17358860094E+03  0.00000000000E+00 0.  1.
         21   -1    0    0  501  503 -0.00000000000E+00 -0.00000000000E+00 -0.65409626648E+03  0.65409626648E+03  0.00000000000E+00 0. -1.
          6    2    1    2  501    0  0.79903609028E+02 -0.22011021041E+03 -0.45236562098E+03  0.53732816807E+03  0.17103746283E+03 0.  0.
         24    2    3    3    0    0  0.11408907786E+03 -0.19878887921E+03 -0.34036228478E+03  0.41820603426E+03  0.80724630703E+02 0.  0.
         -6    2    1    2    0  502 -0.79903609028E+02  0.22011021041E+03 -0.28142044561E+02  0.29035669936E+03  0.16935745253E+03 0.  0.
        -24    2    5    5    0    0 -0.49576825251E+02  0.16291064540E+03  0.39980313684E+02  0.19625967632E+03  0.89003904859E+02 0.  0.
          5    1    3    3  501    0 -0.34185468835E+02 -0.21321331195E+02 -0.11200333620E+03  0.11912213381E+03  0.47000000000E+01 0. -1.
        -11    1    4    4    0    0  0.99961882861E+02 -0.18135570597E+03 -0.33696822244E+03  0.39551214020E+03  0.00000000000E+00 0.  1.
         12    1    4    4    0    0  0.14127195002E+02 -0.17433173247E+02 -0.33940623332E+01  0.22693894051E+02  0.00000000000E+00 0. -1.
         -5    1    5    5    0  502 -0.30326783777E+02  0.57199565005E+02 -0.68122358245E+02  0.94097023034E+02  0.47000000000E+01 0.  1.
         11    1    6    6    0    0  0.17796250462E+02  0.62211733543E+02 -0.94734003955E+01  0.65396877876E+02  0.00000000000E+00 0. -1.
        -12    1    6    6    0    0 -0.67373075713E+02  0.10069891186E+03  0.49453714080E+02  0.13086279845E+03  0.00000000000E+00 0.  1.
</event>
<event>
12    1  0.8407180E-002  0.2535007E+03  0.7818608E-02  0.1111214E+00
         21   -1    0    0  503  502  0.00000000000E+00  0.00000000000E+00  0.69688941731E+03  0.69688941731E+03  0.00000000000E+00 0. -1.
         21   -1    0    0  501  503 -0.00000000000E+00 -0.00000000000E+00 -0.14542729648E+03  0.14542729648E+03  0.00000000000E+00 0.  1.
          6    2    1    2  501    0  0.18419395140E+03  0.12544688556E+01  0.20170650528E+02  0.25364597868E+03  0.17320635651E+03 0.  0.
         24    2    3    3    0    0  0.71733526784E+02 -0.27571283484E+02 -0.54845896639E+02  0.11534253168E+03  0.66256718144E+02 0.  0.
         -6    2    1    2    0  502 -0.18419395140E+03 -0.12544688556E+01  0.53129147030E+03  0.58867073511E+03  0.17416550332E+03 0.  0.
        -24    2    5    5    0    0 -0.19414138320E+03  0.28506987940E+02  0.50679311342E+03  0.54858388939E+03  0.74843161773E+02 0.  0.
          5    1    3    3  501    0  0.11246042461E+03  0.28825752340E+02  0.75016547167E+02  0.13830344699E+03  0.47000000000E+01 0. -1.
        -13    1    4    4    0    0  0.69914014452E+02 -0.20215500750E+02 -0.14394901480E+02  0.74187930797E+02  0.00000000000E+00 0.  1.
         14    1    4    4    0    0  0.18195123322E+01 -0.73557827347E+01 -0.40450995159E+02  0.41154600886E+02  0.00000000000E+00 0. -1.
         -5    1    5    5    0  502  0.99474318012E+01 -0.29761456795E+02  0.24498356880E+02  0.40086845721E+02  0.47000000000E+01 0.  1.
         13    1    6    6    0    0 -0.65078430023E+02 -0.15313089189E+02  0.23795152522E+03  0.24716516969E+03  0.00000000000E+00 0. -1.
        -14    1    6    6    0    0 -0.12906295317E+03  0.43820077129E+02  0.26884158819E+03  0.30141871970E+03  0.00000000000E+00 0.  1.
</event>
<event>
12    1  0.8407180E-002  0.5167493E+03  0.7818608E-02  0.1009516E+00
         21   -1    0    0  503  502  0.00000000000E+00  0.00000000000E+00  0.10149777362E+04  0.10149777362E+04  0.00000000000E+00 0.  1.
         21   -1    0    0  501  503 -0.00000000000E+00 -0.00000000000E+00 -0.28862839439E+03  0.28862839439E+03  0.00000000000E+00 0.  1.
          6    2    1    2  501    0 -0.47624102374E+03  0.99008298647E+02  0.16860058657E+03  0.54326835833E+03  0.17351136988E+03 0.  0.
         24    2    3    3    0    0 -0.43148780958E+03  0.13164494648E+03  0.13126087046E+03  0.47630310347E+03  0.78250294004E+02 0.  0.
         -6    2    1    2    0  502  0.47624102374E+03 -0.99008298647E+02  0.55774875526E+03  0.76033777228E+03  0.17441817011E+03 0.  0.
        -24    2    5    5    0    0  0.45004160236E+03 -0.10543704859E+03  0.45285275933E+03  0.65192652532E+03  0.79234826346E+02 0.  0.
          5    1    3    3  501    0 -0.44753214155E+02 -0.32636647830E+02  0.37339716111E+02  0.66965254857E+02  0.47000000000E+01 0. -1.
        -13    1    4    4    0    0 -0.27948894438E+03  0.67211805087E+02  0.11781874368E+03  0.31066501756E+03  0.00000000000E+00 0.  1.
         14    1    4    4    0    0 -0.15199886520E+03  0.64433141390E+02  0.13442126784E+02  0.16563808591E+03  0.00000000000E+00 0. -1.
         -5    1    5    5    0  502  0.26199421378E+02  0.64287499411E+01  0.10489599592E+03  0.10841124696E+03  0.47000000000E+01 0.  1.
         13    1    6    6    0    0  0.21523191458E+02  0.10345648477E+02  0.13775756030E+02  0.27569034571E+02  0.00000000000E+00 0. -1.
        -14    1    6    6    0    0  0.42851841090E+03 -0.11578269707E+03  0.43907700330E+03  0.62435749075E+03  0.00000000000E+00 0.  1.
</event>
<event>
12    1  0.8407180E-002  0.2741090E+03  0.7818608E-02  0.1100492E+00
         21   -1    0    0  501  502  0.00000000000E+00  0.00000000000E+00  0.12244724182E+04  0.12244724182E+04  0.00000000000E+00 0. -1.
         21   -1    0    0  502  503 -0.00000000000E+00 -0.00000000000E+00 -0.68847433130E+02  0.68847433130E+02  0.00000000000E+00 0.  1.
         -6    2    1    2    0  503  0.19879100371E+03 -0.21846566733E+02  0.34292512566E+03  0.43901412607E+03  0.18745832989E+03 0.  0.
        -24    2    3    3    0    0  0.81408361775E+02  0.61788905547E+02  0.13605138891E+03  0.18683877079E+03  0.77159287395E+02 0.  0.
          6    2    1    2  501    0 -0.19879100371E+03  0.21846566733E+02  0.81269985937E+03  0.85430572522E+03  0.17135365503E+03 0.  0.
         24    2    5    5    0    0 -0.16847271310E+03 -0.39113065994E+01  0.77350854456E+03  0.79826363443E+03  0.10252320792E+03 0.  0.
          5    1    5    5  501    0 -0.30318290608E+02  0.25757873333E+02  0.39191314806E+02  0.56042090791E+02  0.47000000000E+01 0. -1.
        -11    1    6    6    0    0  0.57390647203E+01 -0.11214790745E+02  0.13318115710E+02  0.18332501231E+02  0.00000000000E+00 0.  1.
         12    1    6    6    0    0 -0.17421177783E+03  0.73034841455E+01  0.76019042885E+03  0.77993113320E+03  0.00000000000E+00 0. -1.
         -5    1    3    3    0  503  0.11738264194E+03 -0.83635472280E+02  0.20687373675E+03  0.25217535528E+03  0.47000000000E+01 0.  1.
         11    1    4    4    0    0  0.13806119565E+02  0.17786188053E+02 -0.61611706535E+01  0.23343466895E+02  0.00000000000E+00 0. -1.
        -12    1    4    4    0    0  0.67602242210E+02  0.44002717494E+02  0.14221255956E+03  0.16349530390E+03  0.00000000000E+00 0.  1.
</event>
<event>
12    1  0.8407180E-002  0.2267725E+03  0.7818608E-02  0.1129100E+00
         21   -1    0    0  503  502  0.00000000000E+00  0.00000000000E+00  0.60787185546E+03  0.60787185546E+03  0.00000000000E+00 0.  1.
         21   -1    0    0  501  503 -0.00000000000E+00 -0.00000000000E+00 -0.84455789344E+02  0.84455789344E+02  0.00000000000E+00 0.  1.
          6    2    1    2  501    0 -0.12507760274E+03 -0.76280994577E+02  0.24520870327E+03  0.33399559789E+03  0.17309695090E+03 0.  0.
         24    2    3    3    0    0 -0.13227418703E+03 -0.42302525525E+02  0.25172523915E+03  0.29834615997E+03  0.79742528917E+02 0.  0.
         -6    2    1    2    0  502  0.12507760274E+03  0.76280994577E+02  0.27820736284E+03  0.35833204691E+03  0.17187007378E+03 0.  0.
        -24    2    5    5    0    0  0.86141278988E+02  0.50667812300E+01  0.24601613127E+03  0.27089139915E+03  0.73567799160E+02 0.  0.
          5    1    3    3  501    0  0.71965842932E+01 -0.33978469052E+02 -0.65165358809E+01  0.35649437927E+02  0.47000000000E+01 0. -1.
        -11    1    4    4    0    0 -0.12718346534E+03 -0.37845021259E+02  0.16676097559E+03  0.21311288668E+03  0.00000000000E+00 0.  1.
         12    1    4    4    0    0 -0.50907216930E+01 -0.44575042657E+01  0.84964263567E+02  0.85233273287E+02  0.00000000000E+00 0. -1.
         -5    1    5    5    0  502  0.38936323752E+02  0.71214213347E+02  0.32191231573E+02  0.87440647757E+02  0.47000000000E+01 0.  1.
         11    1    6    6    0    0  0.11422375356E+01  0.12748135034E+01  0.11286099926E+03  0.11287397844E+03  0.00000000000E+00 0. -1.
        -12    1    6    6    0    0  0.84999041452E+02  0.37919677266E+01  0.13315513201E+03  0.15801742071E+03  0.00000000000E+00 0.  1.
</event>
<event>
12    1  0.8407180E-002  0.3397721E+03  0.7818608E-02  0.1067024E+00
         21   -1    0    0  503  502  0.00000000000E+00  0.00000000000E+00  0.11264532835E+03  0.11264532835E+03  0.00000000000E+00 0. -1.
         21   -1    0    0  501  503 -0.00000000000E+00 -0.00000000000E+00 -0.10521995160E+04  0.10521995160E+04  0.00000000000E+00 0. -1.
          6    2    1    2  501    0 -0.28885232805E+03  0.36508562982E+02 -0.37057870723E+03  0.50276599050E+03  0.17514713916E+03 0.  0.
         24    2    3    3    0    0 -0.51976866784E+02 -0.73689559160E+00 -0.72020250233E+02  0.11980848557E+03  0.80405342330E+02 0.  0.
         -6    2    1    2    0  502  0.28885232805E+03 -0.36508562982E+02 -0.56897548039E+03  0.66207885382E+03  0.17276217410E+03 0.  0.
        -24    2    5    5    0    0  0.26931713070E+03 -0.76427658893E+02 -0.46173079806E+03  0.54589507681E+03  0.80207238265E+02 0.  0.
          5    1    3    3  501    0 -0.23687546127E+03  0.37245458573E+02 -0.29855845700E+03  0.38295750493E+03  0.47000000000E+01 0. -1.
        -13    1    4    4    0    0  0.14467325891E+02 -0.80146793505E+00 -0.46376743103E+02  0.48587531015E+02  0.00000000000E+00 0.  1.
         14    1    4    4    0    0 -0.66444192675E+02  0.64572343448E-01 -0.25643507130E+02  0.71220954555E+02  0.00000000000E+00 0. -1.
         -5    1    5    5    0  502  0.19535197352E+02  0.39919095911E+02 -0.10724468233E+03  0.11618377702E+03  0.47000000000E+01 0.  1.
         11    1    6    6    0    0  0.24412672970E+03 -0.41018892721E+02 -0.38513523527E+03  0.45783136541E+03  0.00000000000E+00 0. -1.
        -12    1    6    6    0    0  0.25190401007E+02 -0.35408766171E+02 -0.76595562795E+02  0.88063711394E+02  0.00000000000E+00 0.  1.
</event>
<event>
12    1  0.8407180E-002  0.1973967E+03  0.7818608E-02  0.1152659E+00
         21   -1    0    0  501  502  0.00000000000E+00  0.00000000000E+00  0.11639344328E+04  0.11639344328E+04  0.00000000000E+00 0.  1.
         21   -1    0    0  502  503 -0.00000000000E+00 -0.00000000000E+00 -0.35151253254E+02  0.35151253254E+02  0.00000000000E+00 0.  1.
         -6    2    1    2    0  503 -0.83675017753E+02 -0.19728265248E+02  0.40919649156E+03  0.45291516167E+03  0.17406798073E+03 0.  0.
        -24    2    3    3    0    0 -0.83890404483E+02  0.38487854753E+02  0.35182524510E+03  0.37104506371E+03  0.73311126597E+02 0.  0.
          6    2    1    2  501    0  0.83675017753E+02  0.19728265248E+02  0.71958668797E+03  0.74617052437E+03  0.17769281610E+03 0.  0.
         24    2    5    5    0    0  0.75490186238E+02  0.60836849386E+02  0.66685955439E+03  0.67864906280E+03  0.80392752808E+02 0.  0.
          5    1    5    5  501    0  0.81848315157E+01 -0.41108584138E+02  0.52727133580E+02  0.67521461569E+02  0.47000000000E+01 0. -1.
        -13    1    6    6    0    0  0.46368977936E+02  0.21926445098E+02  0.13245959811E+03  0.14204364203E+03  0.00000000000E+00 0.  1.
         14    1    6    6    0    0  0.29121208302E+02  0.38910404289E+02  0.53439995627E+03  0.53660542077E+03  0.00000000000E+00 0. -1.
         -5    1    3    3    0  503  0.21538672962E+00 -0.58216120001E+02  0.57371246463E+02  0.81870097961E+02  0.47000000000E+01 0.  1.
         11    1    4    4    0    0 -0.49950369053E+00 -0.46801117133E+01  0.13099354949E+03  0.13107807963E+03  0.00000000000E+00 0. -1.
        -12    1    4    4    0    0 -0.83390900793E+02  0.43167966466E+02  0.22083169561E+03  0.23996698408E+03  0.00000000000E+00 0.  1.
</event>
<event>
12    1  0.8407180E-002  0.1877354E+03  0.7818608E-02  0.1160788E+00
         21   -1    0    0  503  502  0.00000000000E+00  0.00000000000E+00  0.86248203721E+02  0.86248203721E+02  0.00000000000E+00 0. -1.
         21   -1    0    0  501  503 -0.00000000000E+00 -0.00000000000E+00 -0.21039908300E+04  0.21039908300E+04  0.00000000000E+00 0.  1.
          6    2    1    2  501    0  0.37073091959E+02 -0.66008658440E+02 -0.19920339492E+04  0.20007515172E+04  0.17051633802E+03 0.  0.
         24    2    3    3    0    0 -0.18018700513E+02 -0.91206978306E+02 -0.11487965160E+04  0.11553276473E+04  0.80032187707E+02 0.  0.
         -6    2    1    2    0  502 -0.37073091959E+02  0.66008658440E+02 -0.25708677112E+02  0.18948751659E+03  0.17179355555E+03 0.  0.
        -24    2    5    5    0    0  0.42976411281E+02  0.55587942178E+02 -0.19697498859E+02  0.10840275501E+03  0.80163424270E+02 0.  0.
          5    1    3    3  501    0  0.55091792472E+02  0.25198319866E+02 -0.84323743325E+03  0.84542386988E+03  0.47000000000E+01 0. -1.
        -11    1    4    4    0    0  0.11848267260E+02 -0.90504343916E+02 -0.93683629982E+03  0.94127236779E+03  0.00000000000E+00 0.  1.
         12    1    4    4    0    0 -0.29866967773E+02 -0.70263438972E+00 -0.21196021614E+03  0.21405527951E+03  0.00000000000E+00 0. -1.
         -5    1    5    5    0  502 -0.80049503240E+02  0.10420716262E+02 -0.60111782527E+01  0.81084761579E+02  0.47000000000E+01 0.  1.
         13    1    6    6    0    0  0.44891629223E+02  0.49551443474E+02  0.18746292005E+02  0.69440819325E+02  0.00000000000E+00 0. -1.
        -14    1    6    6    0    0 -0.19152179425E+01  0.60364987048E+01 -0.38443790865E+02  0.38961935686E+02  0.00000000000E+00 0.  1.
</event>
<event>
12    1  0.8407180E-002  0.2759526E+03  0.7818608E-02  0.1097972E+00
         21   -1    0    0  501  502  0.00000000000E+00  0.00000000000E+00  0.35108607313E+03  0.35108607313E+03  0.00000000000E+00 0. -1.
         21   -1    0    0  502  503 -0.00000000000E+00 -0.00000000000E+00 -0.29541346106E+03  0.29541346106E+03  0.00000000000E+00 0.  1.
         -6    2    1    2    0  503  0.18129217274E+03 -0.11646324889E+03 -0.13913261910E+03  0.30871422052E+03  0.17180233997E+03 0.  0.
        -24    2    3    3    0    0  0.12060389941E+03 -0.81056586458E+02 -0.16050755394E+03  0.23512294317E+03  0.91676893335E+02 0.  0.
          6    2    1    2  501    0 -0.18129217274E+03  0.11646324889E+03  0.19480523117E+03  0.33778531367E+03  0.17239286471E+03 0.  0.
         24    2    5    5    0    0 -0.60673016037E+02 -0.92324883227E+01  0.88915312524E+02  0.13386580949E+03  0.79042194000E+02 0.  0.
          5    1    5    5  501    0 -0.12061915670E+03  0.12569573721E+03  0.10588991865E+03  0.20391950418E+03  0.47000000000E+01 0. -1.
        -11    1    6    6    0    0  0.75298213590E+01  0.20465820314E+02  0.63078722905E+01  0.22701041026E+02  0.00000000000E+00 0.  1.
         12    1    6    6    0    0 -0.68202837397E+02 -0.29698308637E+02  0.82607440233E+02  0.11116476846E+03  0.00000000000E+00 0. -1.
         -5    1    3    3    0  503  0.60688273325E+02 -0.35406662428E+02  0.21374934835E+02  0.73591277355E+02  0.47000000000E+01 0.  1.
         11    1    4    4    0    0 -0.77457274624E+01 -0.25905590794E+02 -0.50607986102E+02  0.57378255338E+02  0.00000000000E+00 0. -1.
        -12    1    4    4    0    0  0.12834962687E+03 -0.55150995664E+02 -0.10989956784E+03  0.17774468783E+03  0.00000000000E+00 0.  1.
</event>
<event>
12    1  0.8407180E-002  0.1935436E+03  0.7818608E-02  0.1155369E+00
         21   -1    0    0  503  502  0.00000000000E+00  0.00000000000E+00  0.14071047086E+03  0.14071047086E+03  0.00000000000E+00 0.  1.
         21   -1    0    0  501  503 -0.00000000000E+00 -0.00000000000E+00 -0.73042326594E+03  0.73042326594E+03  0.00000000000E+00 0.  1.
          6    2    1    2  501    0 -0.40646221298E+02  0.76116150028E+02 -0.64232568321E+03  0.67085125653E+03  0.17324359000E+03 0.  0.
         24    2    3    3    0    0 -0.46961693480E+02  0.15522251860E+02 -0.56280880585E+03  0.57056900751E+03  0.79679981362E+02 0.  0.
         -6    2    1    2    0  502  0.40646221298E+02 -0.76116150028E+02  0.52612888130E+02  0.20028248027E+03  0.17291377130E+03 0.  0.
        -24    2    5    5    0    0 -0.43881510288E+02 -0.22160348372E+02  0.25617208125E+02  0.96325649429E+02  0.78776401293E+02 0.  0.
          5    1    3    3  501    0  0.63154721829E+01  0.60593898168E+02 -0.79516877363E+02  0.10028224903E+03  0.47000000000E+01 0. -1.
        -13    1    4    4    0    0  0.79334841350E+01  0.18829271449E+02 -0.35559575213E+03  0.35618228559E+03  0.00000000000E+00 0.  1.
         14    1    4    4    0    0 -0.54895177615E+02 -0.33070195881E+01 -0.20721305372E+03  0.21438672192E+03  0.00000000000E+00 0. -1.
         -5    1    5    5    0  502  0.84527731585E+02 -0.53955801657E+02  0.26995680005E+02  0.10395683084E+03  0.47000000000E+01 0.  1.
         13    1    6    6    0    0 -0.17045720813E+02  0.24202580763E+02  0.30537575160E+02  0.42530753700E+02  0.00000000000E+00 0. -1.
        -14    1    6    6    0    0 -0.26835789475E+02 -0.46362929135E+02 -0.49203670352E+01  0.53794895729E+02  0.00000000000E+00 0.  1.
</event>
<event>
12    1  0.8407180E-002  0.1829696E+03  0.7818608E-02  0.1165191E+00
         21   -1    0    0  503  502  0.00000000000E+00  0.00000000000E+00  0.47333926553E+02  0.47333926553E+02  0.00000000000E+00 0. -1.
         21   -1    0    0  501  503 -0.00000000000E+00 -0.00000000000E+00 -0.73577587166E+03  0.73577587166E+03  0.00000000000E+00 0. -1.
          6    2    1    2  501    0  0.34823338601E+01  0.56503752596E+02 -0.42534005772E+03  0.46264064322E+03  0.17296646887E+03 0.  0.
         24    2    3    3    0    0 -0.22870296422E+02 -0.74961239655E+01 -0.35686525270E+03  0.36516585548E+03  0.73580235739E+02 0.  0.
         -6    2    1    2    0  502 -0.34823338601E+01 -0.56503752596E+02 -0.26310188738E+03  0.32046915499E+03  0.17399159591E+03 0.  0.
        -24    2    5    5    0    0 -0.53773892712E+02 -0.53076080085E+02 -0.94370470833E+02  0.14430624527E+03  0.78802314961E+02 0.  0.
          5    1    3    3  501    0  0.26352630282E+02  0.63999876562E+02 -0.68474805022E+02  0.97474787743E+02  0.47000000000E+01 0. -1.
        -13    1    4    4    0    0 -0.39458766004E+02  0.48590241781E+01 -0.10217811461E+03  0.10964019078E+03  0.00000000000E+00 0.  1.
         14    1    4    4    0    0  0.16588469582E+02 -0.12355148144E+02 -0.25468713809E+03  0.25552566470E+03  0.00000000000E+00 0. -1.
         -5    1    5    5    0  502  0.50291558852E+02 -0.34276725112E+01 -0.16873141655E+03  0.17616290972E+03  0.47000000000E+01 0.  1.
         11    1    6    6    0    0 -0.44451416159E+02  0.40530784606E+01 -0.66424391969E+02  0.80028468010E+02  0.00000000000E+00 0. -1.
        -12    1    6    6    0    0 -0.93224765529E+01 -0.57129158546E+02 -0.27946078864E+02  0.64277777257E+02  0.00000000000E+00 0.  1.
</event>
<event>
12    1  0.8407180E-002  0.1914199E+03  0.7818608E-02  0.1157390E+00
         21   -1    0    0  501  502  0.00000000000E+00  0.00000000000E+00  0.34025478628E+02  0.34025478628E+02  0.00000000000E+00 0. -1.
         21   -1    0    0  502  503 -0.00000000000E+00 -0.00000000000E+00 -0.11371295015E+04  0.11371295015E+04  0.00000000000E+00 0. -1.
         -6    2    1    2    0  503 -0.10709627843E+02 -0.67575241206E+02 -0.40996227195E+03  0.45206731311E+03  0.17780517934E+03 0.  0.
        -24    2    3    3    0    0 -0.56895102436E+02 -0.63941351666E+02 -0.16461870468E+03  0.20234374750E+03  0.80734906254E+02 0.  0.
          6    2    1    2  501    0  0.10709627843E+02  0.67575241206E+02 -0.69314175090E+03  0.71908766700E+03  0.17877493293E+03 0.  0.
         24    2    5    5    0    0 -0.80334045591E+01  0.33184776537E+02 -0.66543433418E+03  0.67088189696E+03  0.78191441909E+02 0.  0.
          5    1    5    5  501    0  0.18743032402E+02  0.34390464669E+02 -0.27707416721E+02  0.48205770040E+02  0.47000000000E+01 0. -1.
        -13    1    6    6    0    0 -0.42280276749E+02  0.19855033200E+02 -0.30150748252E+03  0.30510425458E+03  0.00000000000E+00 0.  1.
         14    1    6    6    0    0  0.34246872190E+02  0.13329743337E+02 -0.36392685165E+03  0.36577764238E+03  0.00000000000E+00 0. -1.
         -5    1    3    3    0  503  0.46185474593E+02 -0.36338895398E+01 -0.24534356727E+03  0.24972356561E+03  0.47000000000E+01 0.  1.
         13    1    4    4    0    0 -0.44577553683E+02 -0.83424819776E+02 -0.13083598690E+03  0.16144632023E+03  0.00000000000E+00 0. -1.
        -14    1    4    4    0    0 -0.12317548753E+02  0.19483468110E+02 -0.33782717781E+02  0.40897427273E+02  0.00000000000E+00 0.  1.
</event>
<event>
12    1  0.8407180E-002  0.1748372E+03  0.7818608E-02  0.1173415E+00
         21   -1    0    0  501  502  0.00000000000E+00  0.00000000000E+00  0.47713649422E+02  0.47713649422E+02  0.00000000000E+00 0.  1.
         21   -1    0    0  502  503 -0.00000000000E+00 -0.00000000000E+00 -0.14617991508E+04  0.14617991508E+04  0.00000000000E+00 0.  1.
         -6    2    1    2    0  503 -0.12982244483E+02 -0.26463732254E+02 -0.12734901728E+04  0.12851579924E+04  0.17024975029E+03 0.  0.
        -24    2    3    3    0    0 -0.57614079013E+02 -0.58987321712E+02 -0.89284826129E+03  0.90050212112E+03  0.83229599554E+02 0.  0.
          6    2    1    2  501    0  0.12982244483E+02  0.26463732254E+02 -0.14059532862E+03  0.22435480784E+03  0.17233445846E+03 0.  0.
         24    2    5    5    0    0 -0.44432938889E+02 -0.11880378578E+02 -0.12123481649E+03  0.15249596324E+03  0.80260255558E+02 0.  0.
          5    1    5    5  501    0  0.57415183372E+02  0.38344110832E+02 -0.19360512132E+02  0.71858844599E+02  0.47000000000E+01 0. -1.
        -11    1    6    6    0    0  0.83363602087E+01  0.21189077618E+02 -0.96932423119E+01  0.24747340430E+02  0.00000000000E+00 0.  1.
         12    1    6    6    0    0 -0.52769299098E+02 -0.33069456196E+02 -0.11154157417E+03  0.12774862281E+03  0.00000000000E+00 0. -1.
         -5    1    3    3    0  503  0.44631834530E+02  0.32523589458E+02 -0.38064191147E+03  0.38465587126E+03  0.47000000000E+01 0.  1.
         13    1    4    4    0    0 -0.18188690425E+02 -0.39925827251E+02 -0.14796113408E+03  0.15432886100E+03  0.00000000000E+00 0. -1.
        -14    1    4    4    0    0 -0.39425388588E+02 -0.19061494461E+02 -0.74488712721E+03  0.74617326012E+03  0.00000000000E+00 0.  1.
</event>
<event>
12    1  0.8407180E-002  0.5448417E+03  0.7818608E-02  0.1002713E+00
         21   -1    0    0  501  502  0.00000000000E+00  0.00000000000E+00  0.36594001009E+03  0.36594001009E+03  0.00000000000E+00 0. -1.
         21   -1    0    0  502  503 -0.00000000000E+00 -0.00000000000E+00 -0.82749825384E+03  0.82749825384E+03  0.00000000000E+00 0.  1.
         -6    2    1    2    0  503 -0.51390518279E+03 -0.52237833686E+02 -0.31572992934E+03  0.62971249154E+03  0.17327753908E+03 0.  0.
        -24    2    3    3    0    0 -0.25005885098E+03  0.15994650804E+02 -0.96101213482E+02  0.27967046324E+03  0.78707477181E+02 0.  0.
          6    2    1    2  501    0  0.51390518279E+03  0.52237833686E+02 -0.14582831440E+03  0.56372577239E+03  0.17231808093E+03 0.  0.
         24    2    5    5    0    0  0.35501591435E+03  0.20351838788E+01 -0.39099634354E+02  0.36578839134E+03  0.78942538717E+02 0.  0.
          5    1    5    5  501    0  0.15888926844E+03  0.50202649807E+02 -0.10672868005E+03  0.19793738106E+03  0.47000000000E+01 0. -1.
        -11    1    6    6    0    0  0.25406536873E+02  0.18024971314E+02 -0.15906777610E+02  0.34977382416E+02  0.00000000000E+00 0.  1.
         12    1    6    6    0    0  0.32960937747E+03 -0.15989787435E+02 -0.23192856744E+02  0.33081100892E+03  0.00000000000E+00 0. -1.
         -5    1    3    3    0  503 -0.26384633181E+03 -0.68232484490E+02 -0.21962871586E+03  0.35004202830E+03  0.47000000000E+01 0.  1.
         11    1    4    4    0    0 -0.22707825951E+03  0.13771891437E+01 -0.60794372758E+02  0.23507953622E+03  0.00000000000E+00 0. -1.
        -12    1    4    4    0    0 -0.22980591473E+02  0.14617461661E+02 -0.35306840724E+02  0.44590927011E+02  0.00000000000E+00 0.  1.
</event>
<event>
12    1  0.8407180E-002  0.2308137E+03  0.7818608E-02  0.1126239E+00
         21   -1    0    0  501  502  0.00000000000E+00  0.00000000000E+00  0.27292092413E+04  0.27292092413E+04  0.00000000000E+00 0.  1.
         21   -1    0    0  502  503 -0.00000000000E+00 -0.00000000000E+00 -0.22573057717E+02  0.22573057717E+02  0.00000000000E+00 0.  1.
         -6    2    1    2    0  503  0.14717032885E+03  0.42756416394E+02  0.84303490218E+03  0.87406111470E+03  0.17259133555E+03 0.  0.
        -24    2    3    3    0    0  0.87396439570E+02  0.90219512928E+02  0.60193894279E+03  0.62112828764E+03  0.87704963926E+02 0.  0.
          6    2    1    2  501    0 -0.14717032885E+03 -0.42756416394E+02  0.18636012814E+04  0.18777211844E+04  0.17128891715E+03 0.  0.
         24    2    5    5    0    0 -0.15864921344E+03 -0.46305469296E+02  0.18493536625E+04  0.18585002267E+04  0.81242563661E+02 0.  0.
          5    1    5    5  501    0  0.11478884595E+02  0.35490529019E+01  0.14247618908E+02  0.19220957640E+02  0.47000000000E+01 0. -1.
        -13    1    6    6    0    0 -0.44851506686E+02 -0.53851220455E+02  0.71951800383E+03  0.72292307297E+03  0.00000000000E+00 0.  1.
         14    1    6    6    0    0 -0.11379770676E+03  0.75457511592E+01  0.11298356587E+04  0.11355771537E+04  0.00000000000E+00 0. -1.
         -5    1    3    3    0  503  0.59773889279E+02 -0.47463096534E+02  0.24109595939E+03  0.25293282706E+03  0.47000000000E+01 0.  1.
         13    1    4    4    0    0 -0.34302758425E+01  0.14262112615E+02  0.23719094874E+03  0.23764410536E+03  0.00000000000E+00 0. -1.
        -14    1    4    4    0    0  0.90826715412E+02  0.75957400313E+02  0.36474799405E+03  0.38348418228E+03  0.00000000000E+00 0.  1.
</event>
<event>
12    1  0.8407180E-002  0.2360304E+03  0.7818608E-02  0.1122776E+00
         21   -1    0    0  503  502  0.00000000000E+00  0.00000000000E+00  0.84069668559E+02  0.84069668559E+02  0.00000000000E+00 0.  1.
         21   -1    0    0  501  503 -0.00000000000E+00 -0.00000000000E+00 -0.75346532339E+03  0.75346532339E+03  0.00000000000E+00 0. -1.
          6    2    1    2  501    0 -0.41391130045E+02 -0.15607477048E+03 -0.48521114230E+03  0.53957407421E+03  0.17215623520E+03 0.  0.
         24    2    3    3    0    0 -0.53039338621E+02 -0.18012280190E+03 -0.38733722013E+03  0.43800939915E+03  0.81022937749E+02 0.  0.
         -6    2    1    2    0  502  0.41391130045E+02  0.15607477048E+03 -0.18418451253E+03  0.29796091774E+03  0.16965911180E+03 0.  0.
        -24    2    5    5    0    0  0.33763966024E+02  0.80747915786E+02 -0.18760172166E+03  0.22202623536E+03  0.80255915135E+02 0.  0.
          5    1    3    3  501    0  0.11648208576E+02  0.24048031422E+02 -0.97873922174E+02  0.10156467506E+03  0.47000000000E+01 0. -1.
        -11    1    4    4    0    0  0.12159905448E+02 -0.33464391802E+01 -0.94687421590E+01  0.15770828569E+02  0.00000000000E+00 0.  1.
         12    1    4    4    0    0 -0.65199244068E+02 -0.17677636272E+03 -0.37786847797E+03  0.42223857058E+03  0.00000000000E+00 0. -1.
         -5    1    5    5    0  502  0.76271640210E+01  0.75326854694E+02  0.34172091305E+01  0.75934682375E+02  0.47000000000E+01 0.  1.
         13    1    6    6    0    0  0.34517794920E+02  0.44355599222E+02 -0.37480531614E+02  0.67555070858E+02  0.00000000000E+00 0. -1.
        -14    1    6    6    0    0 -0.75382889608E+00  0.36392316564E+02 -0.15012119004E+03  0.15447116450E+03  0.00000000000E+00 0.  1.
</event>
<event>
12    1  0.8407180E-002  0.1942282E+03  0.7818608E-02  0.1154737E+00
         21   -1    0    0  503  502  0.00000000000E+00  0.00000000000E+00  0.36457636899E+03  0.36457636899E+03  0.00000000000E+00 0.  1.
         21   -1    0    0  501  503 -0.00000000000E+00 -0.00000000000E+00 -0.15028954788E+03  0.15028954788E+03  0.00000000000E+00 0.  1.
          6    2    1    2  501    0 -0.59762114861E+02 -0.69321968741E+02 -0.36635185934E+02  0.19765306254E+03  0.17131126804E+03 0.  0.
         24    2    3    3    0    0 -0.99754651871E+02 -0.82323094607E+02 -0.33686908605E+02  0.15523591235E+03  0.78963904395E+02 0.  0.
         -6    2    1    2    0  502  0.59762114861E+02  0.69321968741E+02  0.25092200705E+03  0.31721285433E+03  0.17112888595E+03 0.  0.
        -24    2    5    5    0    0  0.86588173523E+02  0.81641752410E+00  0.12507501839E+03  0.17136292280E+03  0.78887975990E+02 0.  0.
          5    1    3    3  501    0  0.39992537011E+02  0.13001125866E+02 -0.29482773296E+01  0.42417150182E+02  0.47000000000E+01 0. -1.
        -13    1    4    4    0    0 -0.61564970939E+02 -0.92500854992E+02 -0.32192801135E+02  0.11568504772E+03  0.00000000000E+00 0.  1.
         14    1    4    4    0    0 -0.38189680933E+02  0.10177760385E+02 -0.14941074694E+01  0.39550864634E+02  0.00000000000E+00 0. -1.
         -5    1    5    5    0  502 -0.26826058662E+02  0.68505551217E+02  0.12584698866E+03  0.14584993153E+03  0.47000000000E+01 0.  1.
         13    1    6    6    0    0  0.61620721570E+02  0.27195424252E+01  0.22310384906E+02  0.65591634470E+02  0.00000000000E+00 0. -1.
        -14    1    6    6    0    0  0.24967451953E+02 -0.19031249011E+01  0.10276463348E+03  0.10577128833E+03  0.00000000000E+00 0.  1.
</event>
<event>
12    1  0.8407180E-002  0.3715576E+03  0.7818608E-02  0.1054863E+00
         21   -1    0    0  501  502  0.00000000000E+00  0.00000000000E+00  0.19192866605E+03  0.19192866605E+03  0.00000000000E+00 0. -1.
         21   -1    0    0  502  503 -0.00000000000E+00 -0.00000000000E+00 -0.76781297956E+03  0.76781297956E+03  0.00000000000E+00 0.  1.
         -6    2    1    2    0  503  0.16875284465E+03 -0.27457596762E+03 -0.42911676583E+03  0.56762330113E+03  0.18489329004E+03 0.  0.
        -24    2    3    3    0    0  0.78022773307E+02 -0.68342684134E+02 -0.78811991548E+02  0.15109042374E+03  0.76542213880E+02 0.  0.
          6    2    1    2  501    0 -0.16875284465E+03  0.27457596762E+03 -0.14676754768E+03  0.39211834448E+03  0.16836448096E+03 0.  0.
         24    2    5    5    0    0 -0.57466937072E+02  0.21808486561E+03 -0.10797654826E+03  0.26134132253E+03  0.76005884151E+02 0.  0.
          5    1    5    5  501    0 -0.11128590758E+03  0.56491102016E+02 -0.38790999414E+02  0.13077702194E+03  0.47000000000E+01 0. -1.
        -11    1    6    6    0    0 -0.12943276223E+02  0.13637485967E+03 -0.30702587822E+02  0.14038618040E+03  0.00000000000E+00 0.  1.
         12    1    6    6    0    0 -0.44523660849E+02  0.81710005940E+02 -0.77273960441E+02  0.12095514213E+03  0.00000000000E+00 0. -1.
         -5    1    3    3    0  503  0.90730071344E+02 -0.20623328349E+03 -0.35030477428E+03  0.41653287739E+03  0.47000000000E+01 0.  1.
         13    1    4    4    0    0  0.57978563855E+01 -0.13285379520E+01 -0.47264278639E+02  0.47637088356E+02  0.00000000000E+00 0. -1.
        -14    1    4    4    0    0  0.72224916921E+02 -0.67014146182E+02 -0.31547712909E+02  0.10345333539E+03  0.00000000000E+00 0.  1.
</event>
<event>
12    1  0.8407180E-002  0.2028296E+03  0.7818608E-02  0.1147612E+00
         21   -1    0    0  503  502  0.00000000000E+00  0.00000000000E+00  0.21943225439E+03  0.21943225439E+03  0.00000000000E+00 0.  1.
         21   -1    0    0  501  503 -0.00000000000E+00 -0.00000000000E+00 -0.20292262289E+03  0.20292262289E+03  0.00000000000E+00 0.  1.
          6    2    1    2  501    0 -0.45449120529E+02  0.94326133006E+02 -0.51981949627E+02  0.20827322242E+03  0.17237334529E+03 0.  0.
         24    2    3    3    0    0 -0.76235203513E+02  0.11133376218E+03 -0.66308526948E+02  0.17000596261E+03  0.79361160026E+02 0.  0.
         -6    2    1    2    0  502  0.45449120529E+02 -0.94326133006E+02  0.68491581124E+02  0.21408165486E+03  0.17371475567E+03 0.  0.
        -24    2    5    5    0    0 -0.34896586760E+02 -0.81474926652E+02  0.42986358673E+02  0.12868146424E+03  0.82795874097E+02 0.  0.
          5    1    3    3  501    0  0.30786082984E+02 -0.17007629174E+02  0.14326577321E+02  0.38267259810E+02  0.47000000000E+01 0. -1.
        -13    1    4    4    0    0 -0.67569803568E+02  0.67430617767E+02 -0.70101070741E+01  0.95716812358E+02  0.00000000000E+00 0.  1.
         14    1    4    4    0    0 -0.86653999452E+01  0.43903144413E+02 -0.59298419874E+02  0.74289150251E+02  0.00000000000E+00 0. -1.
         -5    1    5    5    0  502  0.80345707289E+02 -0.12851206354E+02  0.25505222451E+02  0.85400190614E+02  0.47000000000E+01 0.  1.
         13    1    6    6    0    0  0.10285846264E+02  0.87703494161E+01  0.21655283385E+02  0.25527807597E+02  0.00000000000E+00 0. -1.
        -14    1    6    6    0    0 -0.45182433024E+02 -0.90245276068E+02  0.21331075288E+02  0.10315365665E+03  0.00000000000E+00 0.  1.
</event>
<event>
12    1  0.8407180E-002  0.1953700E+03  0.7818608E-02  0.1153961E+00
         21   -1    0    0  501  502  0.00000000000E+00  0.00000000000E+00  0.15591159571E+03  0.15591159571E+03  0.00000000000E+00 0. -1.
         21   -1    0    0  502  503 -0.00000000000E+00 -0.00000000000E+00 -0.54107954420E+03  0.54107954420E+03  0.00000000000E+00 0. -1.
         -6    2    1    2    0  503  0.33156479169E+01  0.91527939275E+02 -0.45083355333E+03  0.49088093591E+03  0.17124498021E+03 0.  0.
        -24    2    3    3    0    0 -0.43051394458E+02  0.51857402051E+02 -0.14220836717E+03  0.17624583032E+03  0.79352128505E+02 0.  0.
          6    2    1    2  501    0 -0.33156479169E+01 -0.91527939275E+02  0.65665604837E+02  0.20611020400E+03  0.17257197729E+03 0.  0.
         24    2    5    5    0    0  0.28974780446E+02  0.13704382043E+02  0.37944565836E+02  0.92500964867E+02  0.78033905680E+02 0.  0.
          5    1    5    5  501    0 -0.32290428363E+02 -0.10523232132E+03  0.27721039001E+02  0.11360923914E+03  0.47000000000E+01 0. -1.
        -13    1    6    6    0    0  0.35352182892E+02  0.32230345911E+02 -0.21371846154E+01  0.47886737108E+02  0.00000000000E+00 0.  1.
         14    1    6    6    0    0 -0.63774024464E+01 -0.18525963868E+02  0.40081750452E+02  0.44614227758E+02  0.00000000000E+00 0. -1.
         -5    1    3    3    0  503  0.46367042375E+02  0.39670537224E+02 -0.30862518616E+03  0.31463510560E+03  0.47000000000E+01 0.  1.
         11    1    4    4    0    0 -0.23031776770E+02  0.18466798872E+02 -0.13300343742E+03  0.13624022815E+03  0.00000000000E+00 0. -1.
        -12    1    4    4    0    0 -0.20019617688E+02  0.33390603179E+02 -0.92049297562E+01  0.40005602168E+02  0.00000000000E+00 0.  1.
</event>
<event>
12    1  0.8407180E-002  0.3498781E+03  0.7818608E-02  0.1062760E+00
         21   -1    0    0  501  502  0.00000000000E+00  0.00000000000E+00  0.44977562196E+03  0.44977562196E+03  0.00000000000E+00 0. -1.
         21   -1    0    0  502  503 -0.00000000000E+00 -0.00000000000E+00 -0.76596546309E+03  0.76596546309E+03  0.00000000000E+00 0.  1.
         -6    2    1    2    0  503  0.16507018591E+03 -0.25462590337E+03 -0.64659310286E+03  0.73518521877E+03  0.17416127091E+03 0.  0.
        -24    2    3    3    0    0  0.31063288793E+02 -0.14133279643E+03 -0.39862324262E+03  0.43136896156E+03  0.78986101224E+02 0.  0.
          6    2    1    2  501    0 -0.16507018591E+03  0.25462590337E+03  0.33040326173E+03  0.48055586628E+03  0.17229366882E+03 0.  0.
         24    2    5    5    0    0 -0.11959907532E+03  0.11456177154E+03  0.10694934641E+03  0.21290063058E+03  0.80375229333E+02 0.  0.
          5    1    5    5  501    0 -0.45471110586E+02  0.14006413183E+03  0.22345391533E+03  0.26765523570E+03  0.47000000000E+01 0. -1.
        -13    1    6    6    0    0 -0.94185952864E+02  0.88997002145E+02  0.11793740577E+03  0.17521612879E+03  0.00000000000E+00 0.  1.
         14    1    6    6    0    0 -0.25413122455E+02  0.25564769391E+02 -0.10988059362E+02  0.37684501794E+02  0.00000000000E+00 0. -1.
         -5    1    3    3    0  503  0.13400689711E+03 -0.11329310694E+03 -0.24796986024E+03  0.30381625721E+03  0.47000000000E+01 0.  1.
         11    1    4    4    0    0 -0.46043577213E+01 -0.94817440787E+02 -0.16360396308E+03  0.18915021523E+03  0.00000000000E+00 0. -1.
        -12    1    4    4    0    0  0.35667646514E+02 -0.46515355641E+02 -0.23501927953E+03  0.24221874632E+03  0.00000000000E+00 0.  1.
</event>
<event>
12    1  0.8407180E-002  0.2235505E+03  0.7818608E-02  0.1131552E+00
         21   -1    0    0  501  502  0.00000000000E+00  0.00000000000E+00  0.13346368644E+03  0.13346368644E+03  0.00000000000E+00 0.  1.
         21   -1    0    0  502  503 -0.00000000000E+00 -0.00000000000E+00 -0.37186552162E+03  0.37186552162E+03  0.00000000000E+00 0.  1.
         -6    2    1    2    0  503 -0.11976961425E+03 -0.79321239851E+02 -0.11586021806E+03  0.25039535453E+03  0.16922654595E+03 0.  0.
        -24    2    3    3    0    0  0.15810059765E+01 -0.32628123454E+02 -0.71997627923E+02  0.11309190606E+03  0.80864249025E+02 0.  0.
          6    2    1    2  501    0  0.11976961425E+03  0.79321239851E+02 -0.12254161713E+03  0.25493385353E+03  0.17128398103E+03 0.  0.
         24    2    5    5    0    0  0.85419774513E+02  0.92446305656E+02 -0.26847325748E+02  0.15230994674E+03  0.81453567557E+02 0.  0.
          5    1    5    5  501    0  0.34349839738E+02 -0.13125065805E+02 -0.95694291383E+02  0.10262390679E+03  0.47000000000E+01 0. -1.
        -13    1    6    6    0    0  0.88975738608E+02  0.51997177912E+02 -0.38585924080E+02  0.11004209244E+03  0.00000000000E+00 0.  1.
         14    1    6    6    0    0 -0.35559640955E+01  0.40449127744E+02  0.11738598332E+02  0.42267854295E+02  0.00000000000E+00 0. -1.
         -5    1    3    3    0  503 -0.12135062023E+03 -0.46693116397E+02 -0.43862590133E+02  0.13730344847E+03  0.47000000000E+01 0.  1.
         13    1    4    4    0    0 -0.19848938792E+02  0.20295428864E+02 -0.34957138673E+02  0.45032059115E+02  0.00000000000E+00 0. -1.
        -14    1    4    4    0    0  0.21429944769E+02 -0.52923552317E+02 -0.37040489250E+02  0.68059846948E+02  0.00000000000E+00 0.  1.
</event>
<event>
12    1  0.8407180E-002  0.2159919E+03  0.7818608E-02  0.1137082E+00
         21   -1    0    0  501  502  0.00000000000E+00  0.00000000000E+00  0.38771433364E+03  0.38771433364E+03  0.00000000000E+00 0. -1.
         21   -1    0    0  502  503 -0.00000000000E+00 -0.00000000000E+00 -0.16402957292E+03  0.16402957292E+03  0.00000000000E+00 0.  1.
         -6    2    1    2    0  503  0.11063352253E+03  0.69079839618E+02  0.25489068176E+03  0.33350936676E+03  0.17101882212E+03 0.  0.
        -24    2    3    3    0    0  0.11160189515E+02  0.81998780623E+02  0.16379996006E+03  0.19793115096E+03  0.74148255227E+02 0.  0.
          6    2    1    2  501    0 -0.11063352253E+03 -0.69079839618E+02 -0.31205921038E+02  0.21823453980E+03  0.17216475918E+03 0.  0.
         24    2    5    5    0    0 -0.18664939030E+02 -0.57967658416E+02  0.30643590507E+01  0.11934954083E+03  0.10259772526E+03 0.  0.
          5    1    5    5  501    0 -0.91968583504E+02 -0.11112181202E+02 -0.34270280089E+02  0.98884998965E+02  0.47000000000E+01 0. -1.
        -11    1    6    6    0    0 -0.44736214898E+02 -0.49083806592E+02 -0.32847685186E+02  0.74091291088E+02  0.00000000000E+00 0.  1.
         12    1    6    6    0    0  0.26071275868E+02 -0.88838518235E+01  0.35912044236E+02  0.45258249744E+02  0.00000000000E+00 0. -1.
         -5    1    3    3    0  503  0.99473333020E+02 -0.12918941006E+02  0.91090721704E+02  0.13557821580E+03  0.47000000000E+01 0.  1.
         13    1    4    4    0    0  0.38520553660E+02  0.65005722674E+02  0.13508098254E+03  0.15477870938E+03  0.00000000000E+00 0. -1.
        -14    1    4    4    0    0 -0.27360364146E+02  0.16993057949E+02  0.28718977520E+02  0.43152441582E+02  0.00000000000E+00 0.  1.
</event>
<event>
12    1  0.8407180E-002  0.1904840E+03  0.7818608E-02  0.1158163E+00
         21   -1    0    0  503  502  0.00000000000E+00  0.00000000000E+00  0.69630190785E+02  0.69630190785E+02  0.00000000000E+00 0.  1.
         21   -1    0    0  501  503 -0.00000000000E+00 -0.00000000000E+00 -0.11557840215E+04  0.11557840215E+04  0.00000000000E+00 0.  1.
          6    2    1    2  501    0  0.52744636916E+02  0.61032006783E+02 -0.99732185629E+03  0.10152350731E+04  0.17188503734E+03 0.  0.
         24    2    3    3    0    0  0.58738648956E+02  0.10480179532E+03 -0.78295747008E+03  0.79631521873E+03  0.81620355516E+02 0.  0.
         -6    2    1    2    0  502 -0.52744636916E+02 -0.61032006783E+02 -0.88831974444E+02  0.21017913920E+03  0.17256085389E+03 0.  0.
        -24    2    5    5    0    0 -0.61197603291E+02 -0.51236842179E+02 -0.12679436327E+03  0.16979806869E+03  0.79901269886E+02 0.  0.
          5    1    3    3  501    0 -0.59940120401E+01 -0.43769788533E+02 -0.21436438621E+03  0.21891985438E+03  0.47000000000E+01 0. -1.
        -13    1    4    4    0    0 -0.19590492275E+02  0.94409028652E+01 -0.12764230385E+03  0.12948156535E+03  0.00000000000E+00 0.  1.
         14    1    4    4    0    0  0.78329141232E+02  0.95360892451E+02 -0.65531516623E+03  0.66683365337E+03  0.00000000000E+00 0. -1.
         -5    1    5    5    0  502  0.84529663742E+01 -0.97951646040E+01  0.37962388822E+02  0.40381070506E+02  0.47000000000E+01 0.  1.
         11    1    6    6    0    0 -0.76499040479E+02 -0.22208899761E+02 -0.96584635296E+02  0.12519556781E+03  0.00000000000E+00 0. -1.
        -12    1    6    6    0    0  0.15301437188E+02 -0.29027942418E+02 -0.30209727970E+02  0.44602500884E+02  0.00000000000E+00 0.  1.
</event>
<event>
12    1  0.8407180E-002  0.2063551E+03  0.7818608E-02  0.1144620E+00
         21   -1    0    0  501  502  0.00000000000E+00  0.00000000000E+00  0.41182746170E+03  0.41182746170E+03  0.00000000000E+00 0. -1.
         21   -1    0    0  502  503 -0.00000000000E+00 -0.00000000000E+00 -0.24646126054E+03  0.24646126054E+03  0.00000000000E+00 0. -1.
         -6    2    1    2    0  503  0.10579995770E+03 -0.39895639925E+02 -0.16843236352E+03  0.26585542394E+03  0.17182651782E+03 0.  0.
        -24    2    3    3    0    0  0.17114527636E+02 -0.72007862696E+02 -0.69703162000E+02  0.12923241860E+03  0.79777489799E+02 0.  0.
          6    2    1    2  501    0 -0.10579995770E+03  0.39895639925E+02  0.33379856468E+03  0.39243329830E+03  0.17261841935E+03 0.  0.
         24    2    5    5    0    0  0.45856143387E+01 -0.15605032019E+02  0.10898849613E+03  0.13586565416E+03  0.79476026625E+02 0.  0.
          5    1    5    5  501    0 -0.11038557204E+03  0.55500671943E+02  0.22481006855E+03  0.25656764414E+03  0.47000000000E+01 0. -1.
        -13    1    6    6    0    0  0.50720673185E+01 -0.48067164365E+02  0.59167902264E+02  0.76400384916E+02  0.00000000000E+00 0.  1.
         14    1    6    6    0    0 -0.48645297975E+00  0.32462132346E+02  0.49820593866E+02  0.59465269243E+02  0.00000000000E+00 0. -1.
         -5    1    3    3    0  503  0.88685430061E+02  0.32112222772E+02 -0.98729201517E+02  0.13662300534E+03  0.47000000000E+01 0.  1.
         11    1    4    4    0    0  0.10617716386E+02 -0.89514785129E+02 -0.58305506543E+02  0.10735532009E+03  0.00000000000E+00 0. -1.
        -12    1    4    4    0    0  0.64968112505E+01  0.17506922433E+02 -0.11397655457E+02  0.21877098514E+02  0.00000000000E+00 0.  1.
</event>
<event>
12    1  0.8407180E-002  0.2151280E+03  0.7818608E-02  0.1137617E+00
         21   -1    0    0  501  502  0.00000000000E+00  0.00000000000E+00  0.23844834087E+03  0.23844834087E+03  0.00000000000E+00 0. -1.
         21   -1    0    0  502  503 -0.00000000000E+00 -0.00000000000E+00 -0.21599747853E+03  0.21599747853E+03  0.00000000000E+00 0. -1.
         -6    2    1    2    0  503 -0.12855053914E+03  0.34763114650E+01 -0.61520348056E+02  0.22351032506E+03  0.17214757138E+03 0.  0.
        -24    2    3    3    0    0 -0.92578748803E+01 -0.36505128082E+02 -0.30251042349E+02  0.93783247189E+02  0.80385566283E+02 0.  0.
          6    2    1    2  501    0  0.12855053914E+03 -0.34763114650E+01  0.83971210398E+02  0.23093549433E+03  0.17246075644E+03 0.  0.
         24    2    5    5    0    0  0.42568093477E+02  0.59327807911E+02  0.43033344816E+02  0.11676309306E+03  0.80311392477E+02 0.  0.
          5    1    5    5  501    0  0.85982445663E+02 -0.62804119376E+02  0.40937865582E+02  0.11417240127E+03  0.47000000000E+01 0. -1.
        -13    1    6    6    0    0  0.45005270237E+02 -0.90740933014E+00  0.45528427150E+01  0.45244072734E+02  0.00000000000E+00 0.  1.
         14    1    6    6    0    0 -0.24371767606E+01  0.60235217242E+02  0.38480502101E+02  0.71519020328E+02  0.00000000000E+00 0. -1.
         -5    1    3    3    0  503 -0.11929266426E+03  0.39981439547E+02 -0.31269305707E+02  0.12972707787E+03  0.47000000000E+01 0.  1.
         13    1    4    4    0    0 -0.35182799366E+02 -0.15686082156E+02 -0.43398606685E+02  0.58028627477E+02  0.00000000000E+00 0. -1.
        -14    1    4    4    0    0  0.25924924485E+02 -0.20819045925E+02  0.13147564336E+02  0.35754619713E+02  0.00000000000E+00 0.  1.
</event>
<event>
12    1  0.8407180E-002  0.3139015E+03  0.7818608E-02  0.1079344E+00
         21   -1    0    0  501  502  0.00000000000E+00  0.00000000000E+00  0.13059004560E+03  0.13059004560E+03  0.00000000000E+00 0. -1.
         21   -1    0    0  502  503 -0.00000000000E+00 -0.00000000000E+00 -0.76686374540E+03  0.76686374540E+03  0.00000000000E+00 0.  1.
         -6    2    1    2    0  503  0.25417786992E+03  0.10331337417E+01 -0.22673280029E+03  0.38145192534E+03  0.17172755078E+03 0.  0.
        -24    2    3    3    0    0  0.24724455105E+03 -0.33596446388E+02 -0.16412215690E+03  0.30941400896E+03  0.80884839895E+02 0.  0.
          6    2    1    2  501    0 -0.25417786992E+03 -0.10331337417E+01 -0.40954089951E+03  0.51600186565E+03  0.18419207384E+03 0.  0.
         24    2    5    5    0    0 -0.21892651724E+03 -0.22851856235E+02 -0.22004397470E+03  0.32196607248E+03  0.82412218434E+02 0.  0.
          5    1    5    5  501    0 -0.35251352683E+02  0.21818722493E+02 -0.18949692481E+03  0.19403579317E+03  0.47000000000E+01 0. -1.
        -11    1    6    6    0    0 -0.21274653258E+03 -0.14378384699E+02 -0.22532447954E+03  0.31022402575E+03  0.00000000000E+00 0.  1.
         12    1    6    6    0    0 -0.61799846550E+01 -0.84734715362E+01  0.52805048395E+01  0.11742046737E+02  0.00000000000E+00 0. -1.
         -5    1    3    3    0  503  0.69333188720E+01  0.34629580129E+02 -0.62610643391E+02  0.72037916380E+02  0.47000000000E+01 0.  1.
         11    1    4    4    0    0  0.20794394210E+03 -0.22572942709E+02 -0.96328839059E+02  0.23028127591E+03  0.00000000000E+00 0. -1.
        -12    1    4    4    0    0  0.39300608943E+02 -0.11023503678E+02 -0.67793317839E+02  0.79132733052E+02  0.00000000000E+00 0.  1.
</event>
<event>
12    1  0.8407180E-002  0.1809351E+03  0.7818608E-02  0.1166967E+00
         21   -1    0    0  503  502  0.00000000000E+00  0.00000000000E+00  0.16568220159E+02  0.16568220159E+02  0.00000000000E+00 0. -1.
         21   -1    0    0  501  503 -0.00000000000E+00 -0.00000000000E+00 -0.19735722091E+04  0.19735722091E+04  0.00000000000E+00 0. -1.
          6    2    1    2  501    0  0.40746824848E+02 -0.37475022548E+02 -0.95998542073E+03  0.97683715405E+03  0.17197132455E+03 0.  0.
         24    2    3    3    0    0 -0.56312992109E+01  0.39298596152E+02 -0.52389935428E+03  0.53159759351E+03  0.80928220161E+02 0.  0.
         -6    2    1    2    0  502 -0.40746824848E+02  0.37475022548E+02 -0.99701856819E+03  0.10133032752E+04  0.17225800748E+03 0.  0.
        -24    2    5    5    0    0 -0.66507425815E+02 -0.23164476183E+02 -0.75814795650E+03  0.76546861963E+03  0.78702306450E+02 0.  0.
          5    1    3    3  501    0  0.46378124059E+02 -0.76773618700E+02 -0.43608606645E+03  0.44523956054E+03  0.47000000000E+01 0. -1.
        -13    1    4    4    0    0 -0.23905343374E+02  0.28859091708E+02 -0.94158051625E+02  0.10134126160E+03  0.00000000000E+00 0.  1.
         14    1    4    4    0    0  0.18274044163E+02  0.10439504444E+02 -0.42974130265E+03  0.43025633191E+03  0.00000000000E+00 0. -1.
         -5    1    5    5    0  502  0.25760600967E+02  0.60639498731E+02 -0.23887061168E+03  0.24783465556E+03  0.47000000000E+01 0.  1.
         13    1    6    6    0    0 -0.65559644471E+02  0.10667474645E+02 -0.37573072844E+03  0.38155660431E+03  0.00000000000E+00 0. -1.
        -14    1    6    6    0    0 -0.94778134331E+00 -0.33831950829E+02 -0.38241722806E+03  0.38391201532E+03  0.00000000000E+00 0.  1.
</event>
<event>
12    1  0.8407180E-002  0.2451342E+03  0.7818608E-02  0.1116490E+00
         21   -1    0    0  503  502  0.00000000000E+00  0.00000000000E+00  0.51598963413E+02  0.51598963413E+02  0.00000000000E+00 0.  1.
         21   -1    0    0  501  503 -0.00000000000E+00 -0.00000000000E+00 -0.17472764502E+04  0.17472764502E+04  0.00000000000E+00 0.  1.
          6    2    1    2  501    0  0.15938868331E+03 -0.69302725907E+02 -0.13676711964E+04  0.13893892456E+04  0.17225084682E+03 0.  0.
         24    2    3    3    0    0  0.17379411028E+03 -0.77276625517E+02 -0.13473620433E+04  0.13628251515E+04  0.75708969192E+02 0.  0.
         -6    2    1    2    0  502 -0.15938868331E+03  0.69302725907E+02 -0.32800629040E+03  0.40948616800E+03  0.17286750721E+03 0.  0.
        -24    2    5    5    0    0 -0.16819414889E+03  0.40364272557E+02 -0.32782146965E+03  0.37887416928E+03  0.78486775767E+02 0.  0.
          5    1    3    3  501    0 -0.14405426965E+02  0.79738996105E+01 -0.20309153073E+02  0.26564094179E+02  0.47000000000E+01 0. -1.
        -11    1    4    4    0    0  0.73651458107E+02 -0.50828515222E+02 -0.85601264097E+03  0.86067747545E+03  0.00000000000E+00 0.  1.
         12    1    4    4    0    0  0.10014265217E+03 -0.26448110295E+02 -0.49134940237E+03  0.50214767601E+03  0.00000000000E+00 0. -1.
         -5    1    5    5    0  502  0.88054655786E+01  0.28938453350E+02 -0.18482075599E+00  0.30611998711E+02  0.47000000000E+01 0.  1.
         13    1    6    6    0    0 -0.13653443233E+02 -0.15826057051E+02 -0.15899068571E+02  0.26261397056E+02  0.00000000000E+00 0. -1.
        -14    1    6    6    0    0 -0.15454070566E+03  0.56190329607E+02 -0.31192240107E+03  0.35261277223E+03  0.00000000000E+00 0.  1.
</event>
<event>
12    1  0.8407180E-002  0.1955142E+03  0.7818608E-02  0.1153793E+00
         21   -1    0    0  501  502  0.00000000000E+00  0.00000000000E+00  0.44593297022E+03  0.44593297022E+03  0.00000000000E+00 0.  1.
         21   -1    0    0  502  503 -0.00000000000E+00 -0.00000000000E+00 -0.49341542652E+03  0.49341542652E+03  0.00000000000E+00 0.  1.
         -6    2    1    2    0  503  0.92197019762E+02 -0.88264925761E+01 -0.45088562721E+03  0.49106288225E+03  0.17107515329E+03 0.  0.
        -24    2    3    3    0    0 -0.18258919861E+01  0.37857170400E+02 -0.18286424025E+03  0.20317883234E+03  0.80036293750E+02 0.  0.
          6    2    1    2  501    0 -0.92197019762E+02  0.88264925761E+01  0.40340317091E+03  0.44828551449E+03  0.17218474607E+03 0.  0.
         24    2    5    5    0    0 -0.10573530726E+03 -0.18081310727E+02  0.18778814587E+03  0.23052591280E+03  0.79818041467E+02 0.  0.
          5    1    5    5  501    0  0.13538287494E+02  0.26907803303E+02  0.21561502504E+03  0.21775960169E+03  0.47000000000E+01 0. -1.
        -13    1    6    6    0    0 -0.35416511176E+02  0.19295246804E+02  0.11777800272E+03  0.12449214327E+03  0.00000000000E+00 0.  1.
         14    1    6    6    0    0 -0.70318796080E+02 -0.37376557532E+02  0.70010143157E+02  0.10603376953E+03  0.00000000000E+00 0. -1.
         -5    1    3    3    0  503  0.94022911748E+02 -0.46683662976E+02 -0.26802138696E+03  0.28788404991E+03  0.47000000000E+01 0.  1.
         13    1    4    4    0    0 -0.12774955740E+02  0.55933766034E+02 -0.16749005200E+03  0.17704435375E+03  0.00000000000E+00 0. -1.
        -14    1    4    4    0    0  0.10949063754E+02 -0.18076595634E+02 -0.15374188251E+02  0.26134478590E+02  0.00000000000E+00 0.  1.
</event>
<event>
12    1  0.8407180E-002  0.1850883E+03  0.7818608E-02  0.1163383E+00
         21   -1    0    0  501  502  0.00000000000E+00  0.00000000000E+00  0.51855633634E+02  0.51855633634E+02  0.00000000000E+00 0. -1.
         21   -1    0    0  502  503 -0.00000000000E+00 -0.00000000000E+00 -0.67875506739E+03  0.67875506739E+03  0.00000000000E+00 0. -1.
         -6    2    1    2    0  503 -0.35316958503E+02  0.53810898357E+02 -0.38130201812E+03  0.42307899317E+03  0.17164412341E+03 0.  0.
        -24    2    3    3    0    0 -0.70026067225E+02  0.74322983448E+00 -0.30751204427E+03  0.32567288499E+03  0.81209409324E+02 0.  0.
          6    2    1    2  501    0  0.35316958503E+02 -0.53810898357E+02 -0.24559741563E+03  0.30753170785E+03  0.17353604936E+03 0.  0.
         24    2    5    5    0    0  0.70243149567E+02 -0.81902403417E+02 -0.21408126267E+03  0.25253780477E+03  0.79387984375E+02 0.  0.
          5    1    5    5  501    0 -0.34926191064E+02  0.28091505060E+02 -0.31516152957E+02  0.54993903080E+02  0.47000000000E+01 0. -1.
        -13    1    6    6    0    0 -0.17653628403E+02 -0.13585415393E+02 -0.42960526180E+02  0.48392364241E+02  0.00000000000E+00 0.  1.
         14    1    6    6    0    0  0.87896777970E+02 -0.68316988024E+02 -0.17112073649E+03  0.20414544053E+03  0.00000000000E+00 0. -1.
         -5    1    3    3    0  503  0.34709108723E+02  0.53067668523E+02 -0.73789973851E+02  0.97406108185E+02  0.47000000000E+01 0.  1.
         11    1    4    4    0    0 -0.52654476914E+02 -0.20380022279E+02 -0.88612368626E+02  0.10507136204E+03  0.00000000000E+00 0. -1.
        -12    1    4    4    0    0 -0.17371590312E+02  0.21123252114E+02 -0.21889967565E+03  0.22060152295E+03  0.00000000000E+00 0.  1.
</event>
<event>
12    1  0.8407180E-002  0.2412502E+03  0.7818608E-02  0.1119164E+00
         21   -1    0    0  501  502  0.00000000000E+00  0.00000000000E+00  0.12254197044E+03  0.12254197044E+03  0.00000000000E+00 0.  1.
         21   -1    0    0  502  503 -0.00000000000E+00 -0.00000000000E+00 -0.63830085737E+03  0.63830085737E+03  0.00000000000E+00 0. -1.
         -6    2    1    2    0  503  0.15529241047E+03 -0.62916283908E+02 -0.45220878030E+03  0.51253724579E+03  0.17357262402E+03 0.  0.
        -24    2    3    3    0    0  0.15064678250E+03 -0.71528165021E+02 -0.46212915356E+03  0.49783179914E+03  0.80389142254E+02 0.  0.
          6    2    1    2  501    0 -0.15529241047E+03  0.62916283908E+02 -0.63550106626E+02  0.24830558202E+03  0.17188034931E+03 0.  0.
         24    2    5    5    0    0 -0.37681896022E+02 -0.11418162717E+02  0.13068773674E+02  0.89401881992E+02  0.79193458889E+02 0.  0.
          5    1    5    5  501    0 -0.11761051445E+03  0.74334446625E+02 -0.76618880300E+02  0.15890370003E+03  0.47000000000E+01 0. -1.
        -11    1    6    6    0    0 -0.14130300167E+02  0.18625814026E+02  0.37418988296E+02  0.44122182811E+02  0.00000000000E+00 0.  1.
         12    1    6    6    0    0 -0.23551595855E+02 -0.30043976742E+02 -0.24350214622E+02  0.45279699181E+02  0.00000000000E+00 0. -1.
         -5    1    3    3    0  503  0.46456279669E+01  0.86118811125E+01  0.99203732610E+01  0.14705446649E+02  0.47000000000E+01 0.  1.
         13    1    4    4    0    0  0.38383640501E+02 -0.36023139482E+02 -0.24741306538E+03  0.25295097421E+03  0.00000000000E+00 0. -1.
        -14    1    4    4    0    0  0.11226314200E+03 -0.35505025539E+02 -0.21471608819E+03  0.24488082493E+03  0.00000000000E+00 0.  1.
</event>
<event>
12    1  0.8407180E-002  0.4335998E+03  0.7818608E-02  0.1032759E+00
         21   -1    0    0  501  502  0.00000000000E+00  0.00000000000E+00  0.38795683468E+03  0.38795683468E+03  0.00000000000E+00 0.  1.
         21   -1    0    0  502  503 -0.00000000000E+00 -0.00000000000E+00 -0.73860697724E+03  0.73860697724E+03  0.00000000000E+00 0. -1.
         -6    2    1    2    0  503  0.15063468287E+02  0.39726611102E+03  0.15522128020E+03  0.46054580841E+03  0.17309397672E+03 0.  0.
        -24    2    3    3    0    0 -0.39568521764E+02  0.23721570701E+03  0.14239439889E+03  0.29087729323E+03  0.80600715345E+02 0.  0.
          6    2    1    2  501    0 -0.15063468287E+02 -0.39726611102E+03 -0.50587142275E+03  0.66601800351E+03  0.17212441315E+03 0.  0.
         24    2    5    5    0    0  0.39981938019E+02 -0.21455343712E+03 -0.34697328878E+03  0.41765410731E+03  0.80079694518E+02 0.  0.
          5    1    5    5  501    0 -0.55045406307E+02 -0.18271267390E+03 -0.15889813397E+03  0.24836389620E+03  0.47000000000E+01 0. -1.
        -11    1    6    6    0    0  0.21134642006E+02 -0.15531586808E+02 -0.15222314429E+02  0.30325272267E+02  0.00000000000E+00 0.  1.
         12    1    6    6    0    0  0.18847296013E+02 -0.19902185031E+03 -0.33175097436E+03  0.38732883504E+03  0.00000000000E+00 0. -1.
         -5    1    3    3    0  503  0.54631990051E+02  0.16005040400E+03  0.12826881313E+02  0.16966851518E+03  0.47000000000E+01 0.  1.
         11    1    4    4    0    0  0.16992428033E+02  0.22678460623E+02  0.21910173753E+01  0.28422803236E+02  0.00000000000E+00 0. -1.
        -12    1    4    4    0    0 -0.56560949797E+02  0.21453724639E+03  0.14020338151E+03  0.26245448999E+03  0.00000000000E+00 0.  1.
</event>
<event>
12    1  0.8407180E-002  0.2866729E+03  0.7818608E-02  0.1092852E+00
         21   -1    0    0  503  502  0.00000000000E+00  0.00000000000E+00  0.13346142475E+04  0.13346142475E+04  0.00000000000E+00 0. -1.
         21   -1    0    0  501  503 -0.00000000000E+00 -0.00000000000E+00 -0.66838463697E+02  0.66838463697E+02  0.00000000000E+00 0.  1.
          6    2    1    2  501    0 -0.22105956384E+03 -0.17831421579E+02  0.84611811898E+03  0.89157377890E+03  0.17263441602E+03 0.  0.
         24    2    3    3    0    0 -0.18279672369E+03  0.17568311589E+02  0.79012377196E+03  0.81492755954E+03  0.78026050182E+02 0.  0.
         -6    2    1    2    0  502  0.22105956384E+03  0.17831421579E+02  0.42165766481E+03  0.50987893229E+03  0.18164814597E+03 0.  0.
        -24    2    5    5    0    0  0.85527900923E+02  0.72592702526E+02  0.26592838613E+03  0.29624062162E+03  0.66752356159E+02 0.  0.
          5    1    3    3  501    0 -0.38262840151E+02 -0.35399733168E+02  0.55994347014E+02  0.76646219361E+02  0.47000000000E+01 0. -1.
        -11    1    4    4    0    0 -0.31969796039E+02 -0.19850529700E+02  0.86222641443E+02  0.94076858396E+02  0.00000000000E+00 0.  1.
         12    1    4    4    0    0 -0.15082692765E+03  0.37418841289E+02  0.70390113052E+03  0.72085070114E+03  0.00000000000E+00 0. -1.
         -5    1    5    5    0  502  0.13553166292E+03 -0.54761280947E+02  0.15572927868E+03  0.21363831066E+03  0.47000000000E+01 0.  1.
         13    1    6    6    0    0  0.22164560309E+02 -0.56455159267E+01  0.96350493688E+02  0.99028062779E+02  0.00000000000E+00 0. -1.
        -14    1    6    6    0    0  0.63363340613E+02  0.78238218453E+02  0.16957789244E+03  0.19721255884E+03  0.00000000000E+00 0.  1.
</event>
<event>
12    1  0.8407180E-002  0.1798078E+03  0.7818608E-02  0.1168732E+00
         21   -1    0    0  503  502  0.00000000000E+00  0.00000000000E+00  0.11012106786E+04  0.11012106786E+04  0.00000000000E+00 0.  1.
         21   -1    0    0  501  503 -0.00000000000E+00 -0.00000000000E+00 -0.30474452381E+02  0.30474452381E+02  0.00000000000E+00 0.  1.
          6    2    1    2  501    0  0.38605284456E+02 -0.40258999985E+02  0.40966866563E+03  0.44739162379E+03  0.17093769150E+03 0.  0.
         24    2    3    3    0    0  0.22185931013E+02  0.27589169010E+02  0.33045172575E+03  0.34170159225E+03  0.79424538502E+02 0.  0.
         -6    2    1    2    0  502 -0.38605284456E+02  0.40258999985E+02  0.66106756064E+03  0.68429350723E+03  0.16773827604E+03 0.  0.
        -24    2    5    5    0    0 -0.29432438569E+02  0.91382863726E+02  0.44931770054E+03  0.46621580595E+03  0.79080247076E+02 0.  0.
          5    1    3    3  501    0  0.16419353442E+02 -0.67848168994E+02  0.79216939883E+02  0.10569003154E+03  0.47000000000E+01 0. -1.
        -11    1    4    4    0    0  0.38343010213E+01  0.45836763193E+02  0.10326856441E+03  0.11304913586E+03  0.00000000000E+00 0.  1.
         12    1    4    4    0    0  0.18351629992E+02 -0.18247594183E+02  0.22718316134E+03  0.22865245639E+03  0.00000000000E+00 0. -1.
         -5    1    5    5    0  502 -0.91728458867E+01 -0.51123863741E+02  0.21174986009E+03  0.21807770128E+03  0.47000000000E+01 0.  1.
         11    1    6    6    0    0 -0.41674922095E+02  0.59634281421E+02  0.17110571003E+03  0.18593066088E+03  0.00000000000E+00 0. -1.
        -12    1    6    6    0    0  0.12242483526E+02  0.31748582304E+02  0.27821199052E+03  0.28028514507E+03  0.00000000000E+00 0.  1.
</event>
<event>
12    1  0.8407180E-002  0.2415742E+03  0.7818608E-02  0.1118878E+00
         21   -1    0    0  503  502  0.00000000000E+00  0.00000000000E+00  0.17068678827E+04  0.17068678827E+04  0.00000000000E+00 0.  1.
         21   -1    0    0  501  503 -0.00000000000E+00 -0.00000000000E+00 -0.34103430500E+02  0.34103430500E+02  0.00000000000E+00 0. -1.
          6    2    1    2  501    0 -0.14419316431E+03 -0.90087369618E+02  0.81474101202E+03  0.84980057189E+03  0.17161204072E+03 0.  0.
         24    2    3    3    0    0 -0.77743689817E+02 -0.11805844525E+03  0.44248914040E+03  0.47060212825E+03  0.75417809193E+02 0.  0.
         -6    2    1    2    0  502  0.14419316431E+03  0.90087369618E+02  0.85802344014E+03  0.89117074127E+03  0.17051000988E+03 0.  0.
        -24    2    5    5    0    0  0.20438130167E+02  0.10379375321E+01  0.22196804762E+03  0.23708079165E+03  0.80738424126E+02 0.  0.
          5    1    3    3  501    0 -0.66449474490E+02  0.27971075631E+02  0.37225187162E+03  0.37919844364E+03  0.47000000000E+01 0. -1.
        -11    1    4    4    0    0 -0.86561449352E+02 -0.73405071347E+02  0.28830878047E+03  0.30984373789E+03  0.00000000000E+00 0.  1.
         12    1    4    4    0    0  0.88177595352E+01 -0.44653373901E+02  0.15418035993E+03  0.16075839037E+03  0.00000000000E+00 0. -1.
         -5    1    5    5    0  502  0.12375503414E+03  0.89049432086E+02  0.63605539252E+03  0.65408994962E+03  0.47000000000E+01 0.  1.
         11    1    6    6    0    0  0.40056569259E+02  0.27618053662E+02  0.10867776447E+03  0.11907200392E+03  0.00000000000E+00 0. -1.
        -12    1    6    6    0    0 -0.19618439092E+02 -0.26580116129E+02  0.11329028315E+03  0.11800878773E+03  0.00000000000E+00 0.  1.
</event>
<event>
12    1  0.8407180E-002  0.2062688E+03  0.7818608E-02  0.1144646E+00
         21   -1    0    0  503  502  0.00000000000E+00  0.00000000000E+00  0.94384709913E+02  0.94384709913E+02  0.00000000000E+00 0. -1.
         21   -1    0    0  501  503 -0.00000000000E+00 -0.00000000000E+00 -0.45567802152E+03  0.45567802152E+03  0.00000000000E+00 0. -1.
          6    2    1    2  501    0  0.11207518571E+03  0.16321297859E+02 -0.21205474077E+03  0.29582772980E+03  0.17239373718E+03 0.  0.
         24    2    3    3    0    0  0.68198253688E+02 -0.22409724831E+02 -0.21176974499E+03  0.23711275296E+03  0.78884948819E+02 0.  0.
         -6    2    1    2    0  502 -0.11207518571E+03 -0.16321297859E+02 -0.14923857084E+03  0.25423500164E+03  0.17186056271E+03 0.  0.
        -24    2    5    5    0    0 -0.14232452303E+03 -0.41921696854E+01 -0.14904235324E+03  0.22130679700E+03  0.80555764507E+02 0.  0.
          5    1    3    3  501    0  0.43876932019E+02  0.38731022691E+02 -0.28499577707E+00  0.58714976834E+02  0.47000000000E+01 0. -1.
        -11    1    4    4    0    0  0.34433683323E+02 -0.12532607541E+02 -0.19224832432E+02  0.41380417845E+02  0.00000000000E+00 0.  1.
         12    1    4    4    0    0  0.33764570365E+02 -0.98771172909E+01 -0.19254491256E+03  0.19573233512E+03  0.00000000000E+00 0. -1.
         -5    1    5    5    0  502  0.30249337328E+02 -0.12129128174E+02 -0.19621759385E+00  0.32928204634E+02  0.47000000000E+01 0.  1.
         13    1    6    6    0    0 -0.37528921547E+02 -0.13651805236E+02 -0.13398402938E+01  0.39957313607E+02  0.00000000000E+00 0. -1.
        -14    1    6    6    0    0 -0.10479560149E+03  0.94596355507E+01 -0.14770251295E+03  0.18134948340E+03  0.00000000000E+00 0.  1.
</event>
<event>
12    1  0.8407180E-002  0.2249695E+03  0.7818608E-02  0.1130269E+00
         21   -1    0    0  503  502  0.00000000000E+00  0.00000000000E+00  0.51189858155E+03  0.51189858155E+03  0.00000000000E+00 0.  1.
         21   -1    0    0  501  503 -0.00000000000E+00 -0.00000000000E+00 -0.98895654075E+02  0.98895654075E+02  0.00000000000E+00 0.  1.
          6    2    1    2  501    0  0.83719726559E+02 -0.11532571350E+03  0.21687916841E+03  0.31233851147E+03  0.17380954878E+03 0.  0.
         24    2    3    3    0    0  0.36514842384E+02 -0.91470250754E+02  0.48890641904E+02  0.13615786773E+03  0.80302737131E+02 0.  0.
         -6    2    1    2    0  502 -0.83719726559E+02  0.11532571350E+03  0.19612375907E+03  0.29845572415E+03  0.17407549397E+03 0.  0.
        -24    2    5    5    0    0  0.11286520064E+02  0.16767387909E+02  0.42587049027E+02  0.92699699282E+02  0.79818836559E+02 0.  0.
          5    1    3    3  501    0  0.47204884175E+02 -0.23855462750E+02  0.16798852651E+03  0.17618064375E+03  0.47000000000E+01 0. -1.
        -11    1    4    4    0    0 -0.41631930228E+01  0.77834673045E+01 -0.10364031083E+02  0.13613510925E+02  0.00000000000E+00 0.  1.
         12    1    4    4    0    0  0.40678035407E+02 -0.99253718059E+02  0.59254672988E+02  0.12254435680E+03  0.00000000000E+00 0. -1.
         -5    1    5    5    0  502 -0.95006246623E+02  0.98558325595E+02  0.15353671004E+03  0.20575602487E+03  0.47000000000E+01 0.  1.
         13    1    6    6    0    0  0.80550306024E+00  0.46198474000E+02  0.40408196759E+02  0.61382165165E+02  0.00000000000E+00 0. -1.
        -14    1    6    6    0    0  0.10481017004E+02 -0.29431086091E+02  0.21788522679E+01  0.31317534116E+02  0.00000000000E+00 0.  1.
</event>
<event>
12    1  0.8407180E-002  0.1887056E+03  0.7818608E-02  0.1159782E+00
         21   -1    0    0  503  502  0.00000000000E+00  0.00000000000E+00  0.38626000752E+03  0.38626000752E+03  0.00000000000E+00 0.  1.
         21   -1    0    0  501  503 -0.00000000000E+00 -0.00000000000E+00 -0.11224846679E+03  0.11224846679E+03  0.00000000000E+00 0. -1.
          6    2    1    2  501    0  0.36191987833E+02  0.61894373637E+02  0.31008549367E+02  0.19123633638E+03  0.17455381046E+03 0.  0.
         24    2    3    3    0    0  0.13234618513E+02  0.68359862650E+01  0.80020238331E+02  0.11388840505E+03  0.79658297911E+02 0.  0.
         -6    2    1    2    0  502 -0.36191987833E+02 -0.61894373637E+02  0.24300299137E+03  0.30727213793E+03  0.17385321241E+03 0.  0.
        -24    2    5    5    0    0 -0.51438582465E+02 -0.10467302940E+03  0.20113867227E+03  0.24532713612E+03  0.78270475810E+02 0.  0.
          5    1    3    3  501    0  0.22957369320E+02  0.55058387372E+02 -0.49011688964E+02  0.77347931331E+02  0.47000000000E+01 0. -1.
        -11    1    4    4    0    0  0.16234193046E+02 -0.29886449683E+02  0.11168027564E+02  0.35797677832E+02  0.00000000000E+00 0.  1.
         12    1    4    4    0    0 -0.29995745330E+01  0.36722435948E+02  0.68852210767E+02  0.78090727214E+02  0.00000000000E+00 0. -1.
         -5    1    5    5    0  502  0.15246594632E+02  0.42778655759E+02  0.41864319097E+02  0.61945001815E+02  0.47000000000E+01 0.  1.
         11    1    6    6    0    0 -0.35876649404E+02 -0.11505312171E+03  0.16164178189E+03  0.20162445397E+03  0.00000000000E+00 0. -1.
        -12    1    6    6    0    0 -0.15561933061E+02  0.10380092310E+02  0.39496890381E+02  0.43702682146E+02  0.00000000000E+00 0.  1.
</event>
<event>
12    1  0.8407180E-002  0.2868755E+03  0.7818608E-02  0.1092067E+00
         21   -1    0    0  501  502  0.00000000000E+00  0.00000000000E+00  0.23792074950E+03  0.23792074950E+03  0.00000000000E+00 0. -1.
         21   -1    0    0  502  503 -0.00000000000E+00 -0.00000000000E+00 -0.38011829348E+03  0.38011829348E+03  0.00000000000E+00 0.  1.
         -6    2    1    2    0  503  0.62913725870E+01 -0.22890653157E+03 -0.16466372830E+03  0.33028519361E+03  0.17186152605E+03 0.  0.
        -24    2    3    3    0    0 -0.38186439668E+02 -0.17883385571E+03 -0.17117781827E+03  0.26283097195E+03  0.79614836744E+02 0.  0.
          6    2    1    2  501    0 -0.62913725870E+01  0.22890653157E+03  0.22466184326E+02  0.28775384937E+03  0.17279978826E+03 0.  0.
         24    2    5    5    0    0  0.21048171465E+02  0.33939504992E+02 -0.20971240478E+01  0.89297208662E+02  0.79841580798E+02 0.  0.
          5    1    5    5  501    0 -0.27339544052E+02  0.19496702658E+03  0.24563308374E+02  0.19845664071E+03  0.47000000000E+01 0. -1.
        -13    1    6    6    0    0  0.77222150557E+01  0.38514984614E+02 -0.35561732121E+02  0.52987483773E+02  0.00000000000E+00 0.  1.
         14    1    6    6    0    0  0.13325956409E+02 -0.45754796217E+01  0.33464608073E+02  0.36309724889E+02  0.00000000000E+00 0. -1.
         -5    1    3    3    0  503  0.44477812255E+02 -0.50072675865E+02  0.65140899679E+01  0.67454221657E+02  0.47000000000E+01 0.  1.
         11    1    4    4    0    0 -0.33772749552E+02 -0.17801504960E+03 -0.13393540450E+03  0.22531899404E+03  0.00000000000E+00 0. -1.
        -12    1    4    4    0    0 -0.44136901163E+01 -0.81880610705E+00 -0.37242413764E+02  0.37511977912E+02  0.00000000000E+00 0.  1.
</event>
<event>
12    1  0.8407180E-002  0.1729658E+03  0.7818608E-02  0.1175015E+00
         21   -1    0    0  501  502  0.00000000000E+00  0.00000000000E+00  0.62053634754E+03  0.62053634754E+03  0.00000000000E+00 0. -1.
         21   -1    0    0  502  503 -0.00000000000E+00 -0.00000000000E+00 -0.56220678973E+02  0.56220678973E+02  0.00000000000E+00 0. -1.
         -6    2    1    2    0  503  0.18764846582E+02  0.55983885877E+01  0.15311546409E+03  0.23100113187E+03  0.17185376388E+03 0.  0.
        -24    2    3    3    0    0  0.45355193555E+02  0.53610566852E+02  0.58165440098E+02  0.12122949223E+03  0.79888578053E+02 0.  0.
          6    2    1    2  501    0 -0.18764846582E+02 -0.55983885877E+01  0.41120020448E+03  0.44575589465E+03  0.17096563404E+03 0.  0.
         24    2    5    5    0    0 -0.63338069865E+02  0.27451739605E+02  0.32913495737E+03  0.34657989962E+03  0.83800343385E+02 0.  0.
          5    1    5    5  501    0  0.44573223282E+02 -0.33050128193E+02  0.82065247110E+02  0.99175995032E+02  0.47000000000E+01 0. -1.
        -13    1    6    6    0    0  0.51849560399E+01 -0.60846314937E+01  0.16912443283E+03  0.16931326082E+03  0.00000000000E+00 0.  1.
         14    1    6    6    0    0 -0.68523025904E+02  0.33536371099E+02  0.16001052455E+03  0.17726663880E+03  0.00000000000E+00 0. -1.
         -5    1    3    3    0  503 -0.26590346973E+02 -0.48012178265E+02  0.94950023989E+02  0.10977163964E+03  0.47000000000E+01 0.  1.
         11    1    4    4    0    0  0.64771402122E+02  0.50014059539E+02  0.59889971281E+02  0.10140783670E+03  0.00000000000E+00 0. -1.
        -12    1    4    4    0    0 -0.19416208567E+02  0.35965073128E+01 -0.17245311833E+01  0.19821655525E+02  0.00000000000E+00 0.  1.
</event>
<event>
12    1  0.8407180E-002  0.1873726E+03  0.7818608E-02  0.1161038E+00
         21   -1    0    0  501  502  0.00000000000E+00  0.00000000000E+00  0.31031647406E+03  0.31031647406E+03  0.00000000000E+00 0.  1.
         21   -1    0    0  502  503 -0.00000000000E+00 -0.00000000000E+00 -0.17336563398E+03  0.17336563398E+03  0.00000000000E+00 0.  1.
         -6    2    1    2    0  503  0.67030310041E+02  0.23270756878E+02 -0.74546756788E+02  0.20165738900E+03  0.17341826029E+03 0.  0.
        -24    2    3    3    0    0  0.46085530369E+02  0.29680304550E+02  0.25222989076E+02  0.99403497695E+02  0.78994047804E+02 0.  0.
          6    2    1    2  501    0 -0.67030310041E+02 -0.23270756878E+02  0.21149759687E+03  0.28202471905E+03  0.17254598831E+03 0.  0.
         24    2    5    5    0    0 -0.10606312585E+03 -0.18589960069E+02  0.10964576374E+03  0.17274820520E+03  0.78897247162E+02 0.  0.
          5    1    5    5  501    0  0.39032815812E+02 -0.46807968088E+01  0.10185183312E+03  0.10927651385E+03  0.47000000000E+01 0. -1.
        -13    1    6    6    0    0 -0.63115630023E+02 -0.30945909175E+02  0.10694336481E+03  0.12797701092E+03  0.00000000000E+00 0.  1.
         14    1    6    6    0    0 -0.42947495830E+02  0.12355949106E+02  0.27023989324E+01  0.44771194270E+02  0.00000000000E+00 0. -1.
         -5    1    3    3    0  503  0.20944779672E+02 -0.64095476724E+01 -0.99769745864E+02  0.10225389130E+03  0.47000000000E+01 0.  1.
         13    1    4    4    0    0 -0.83569623600E+01  0.26930606822E+02 -0.14734794298E+02  0.31815256822E+02  0.00000000000E+00 0. -1.
        -14    1    4    4    0    0  0.54442492729E+02  0.27496977285E+01  0.39957783374E+02  0.67588240873E+02  0.00000000000E+00 0.  1.
</event>
<event>
12    1  0.8407180E-002  0.2088855E+03  0.7818608E-02  0.1142732E+00
         21   -1    0    0  503  502  0.00000000000E+00  0.00000000000E+00  0.12167212509E+03  0.12167212509E+03  0.00000000000E+00 0. -1.
         21   -1    0    0  501  503 -0.00000000000E+00 -0.00000000000E+00 -0.35867821392E+03  0.35867821392E+03  0.00000000000E+00 0.  1.
          6    2    1    2  501    0 -0.36799269483E+02 -0.10983378779E+03 -0.13801717173E+03  0.24919681135E+03  0.17214140675E+03 0.  0.
         24    2    3    3    0    0 -0.66088051170E+02 -0.35294061291E+02 -0.12694586150E+03  0.16821121096E+03  0.81033687261E+02 0.  0.
         -6    2    1    2    0  502  0.36799269483E+02  0.10983378779E+03 -0.98988917102E+02  0.23115352767E+03  0.17382606384E+03 0.  0.
        -24    2    5    5    0    0  0.62333171929E+02  0.11822507930E+03 -0.12229923786E+03  0.19526683096E+03  0.72865890456E+02 0.  0.
          5    1    3    3  501    0  0.29288781686E+02 -0.74539726503E+02 -0.11071310226E+02  0.80985600387E+02  0.47000000000E+01 0. -1.
        -13    1    4    4    0    0  0.17721332267E+02 -0.12961562338E+01 -0.34924951275E+02  0.39185173980E+02  0.00000000000E+00 0.  1.
         14    1    4    4    0    0 -0.83809383437E+02 -0.33997905057E+02 -0.92020910227E+02  0.12902603698E+03  0.00000000000E+00 0. -1.
         -5    1    5    5    0  502 -0.25533902445E+02 -0.83912915102E+01  0.23310320754E+02  0.35886696713E+02  0.47000000000E+01 0.  1.
         13    1    6    6    0    0 -0.14392696099E+01  0.72803069608E+02 -0.47196077223E+02  0.86774582376E+02  0.00000000000E+00 0. -1.
        -14    1    6    6    0    0  0.63772441539E+02  0.45422009696E+02 -0.75103160633E+02  0.10849224858E+03  0.00000000000E+00 0.  1.
</event>
<event>
12    1  0.8407180E-002  0.2127679E+03  0.7818608E-02  0.1139568E+00
         21   -1    0    0  503  502  0.00000000000E+00  0.00000000000E+00  0.21329517072E+04  0.21329517072E+04  0.00000000000E+00 0. -1.
         21   -1    0    0  501  503 -0.00000000000E+00 -0.00000000000E+00 -0.59735382829E+02  0.59735382829E+02  0.00000000000E+00 0.  1.
          6    2    1    2  501    0  0.11681590251E+03  0.40896531696E+02  0.15607484726E+03  0.26387408864E+03  0.17306558099E+03 0.  0.
         24    2    3    3    0    0  0.33769200967E+01  0.58889967222E+01  0.11238331503E+03  0.13728431723E+03  0.78555015043E+02 0.  0.
         -6    2    1    2    0  502 -0.11681590251E+03 -0.40896531696E+02  0.19171414771E+04  0.19288130014E+04  0.17195833707E+03 0.  0.
        -24    2    5    5    0    0 -0.13345443450E+03  0.74043461865E+01  0.15756203762E+04  0.15834601848E+04  0.83076329708E+02 0.  0.
          5    1    3    3  501    0  0.11343898242E+03  0.35007534974E+02  0.43691532230E+02  0.12658977141E+03  0.47000000000E+01 0. -1.
        -13    1    4    4    0    0  0.27753527900E+02 -0.68377936676E+00  0.66078597949E+01  0.28537513490E+02  0.00000000000E+00 0.  1.
         14    1    4    4    0    0 -0.24376607803E+02  0.65727760889E+01  0.10577545524E+03  0.10874680374E+03  0.00000000000E+00 0. -1.
         -5    1    5    5    0  502  0.16638531990E+02 -0.48300877882E+02  0.34152110089E+03  0.34535281656E+03  0.47000000000E+01 0.  1.
         13    1    6    6    0    0 -0.18909743826E+02  0.34284728671E+02  0.45426634692E+03  0.45595058392E+03  0.00000000000E+00 0. -1.
        -14    1    6    6    0    0 -0.11454469068E+03 -0.26880382485E+02  0.11213540293E+04  0.11275096009E+04  0.00000000000E+00 0.  1.
</event>
<event>
12    1  0.8407180E-002  0.1921075E+03  0.7818608E-02  0.1156819E+00
         21   -1    0    0  503  502  0.00000000000E+00  0.00000000000E+00  0.13828761198E+04  0.13828761198E+04  0.00000000000E+00 0. -1.
         21   -1    0    0  501  503 -0.00000000000E+00 -0.00000000000E+00 -0.29024573925E+02  0.29024573925E+02  0.00000000000E+00 0. -1.
          6    2    1    2  501    0  0.74276573764E+02 -0.38283855538E+02  0.46840406567E+03  0.50585294299E+03  0.17176195211E+03 0.  0.
         24    2    3    3    0    0 -0.20623771407E+02  0.13516267095E+02  0.20509912312E+03  0.22117608937E+03  0.79026468857E+02 0.  0.
         -6    2    1    2    0  502 -0.74276573764E+02  0.38283855538E+02  0.88544748024E+03  0.90604775077E+03  0.17298156955E+03 0.  0.
        -24    2    5    5    0    0 -0.25260465840E+02  0.89108660154E+02  0.55663793865E+03  0.56970931371E+03  0.78386624735E+02 0.  0.
          5    1    3    3  501    0  0.94900345171E+02 -0.51800122633E+02  0.26330494254E+03  0.28467685362E+03  0.47000000000E+01 0. -1.
        -13    1    4    4    0    0 -0.16955609600E+02 -0.24295734305E+01  0.20406340944E+03  0.20478103085E+03  0.00000000000E+00 0.  1.
         14    1    4    4    0    0 -0.36681618065E+01  0.15945840526E+02  0.10357136859E+01  0.16395058523E+02  0.00000000000E+00 0. -1.
         -5    1    5    5    0  502 -0.49016107924E+02 -0.50824804616E+02  0.32880954159E+03  0.33633843706E+03  0.47000000000E+01 0.  1.
         13    1    6    6    0    0 -0.45092929001E+02  0.81218506338E+02  0.51036733331E+03  0.51875295944E+03  0.00000000000E+00 0. -1.
        -14    1    6    6    0    0  0.19832463161E+02  0.78901538156E+01  0.46270605345E+02  0.50956354277E+02  0.00000000000E+00 0.  1.
</event>
<event>
12    1  0.8407180E-002  0.1775294E+03  0.7818608E-02  0.1170943E+00
         21   -1    0    0  503  502  0.00000000000E+00  0.00000000000E+00  0.29708774279E+03  0.29708774279E+03  0.00000000000E+00 0. -1.
         21   -1    0    0  501  503 -0.00000000000E+00 -0.00000000000E+00 -0.14977778817E+03  0.14977778817E+03  0.00000000000E+00 0. -1.
          6    2    1    2  501    0 -0.37657835602E+02 -0.10377634782E+02 -0.48974181660E+02  0.18416066266E+03  0.17317872651E+03 0.  0.
         24    2    3    3    0    0  0.43948368001E+02 -0.20205216271E+02 -0.39105151608E+02  0.10124117413E+03  0.79880239371E+02 0.  0.
         -6    2    1    2    0  502  0.37657835602E+02  0.10377634782E+02  0.19628413628E+03  0.26270486830E+03  0.17017807669E+03 0.  0.
        -24    2    5    5    0    0  0.11485079091E+02  0.61524765457E+02  0.71592663098E+02  0.12533276180E+03  0.81643052151E+02 0.  0.
          5    1    3    3  501    0 -0.81606203604E+02  0.98275814896E+01 -0.98690300520E+01  0.82919488534E+02  0.47000000000E+01 0. -1.
        -13    1    4    4    0    0  0.10448524477E+02 -0.12550462312E+01  0.24631323146E+02  0.26785236320E+02  0.00000000000E+00 0.  1.
         14    1    4    4    0    0  0.33499843524E+02 -0.18950170040E+02 -0.63736474755E+02  0.74455937808E+02  0.00000000000E+00 0. -1.
         -5    1    5    5    0  502  0.26172756511E+02 -0.51147130675E+02  0.12469147318E+03  0.13737210650E+03  0.47000000000E+01 0.  1.
         13    1    6    6    0    0  0.56539006252E+01  0.60200668210E+02  0.88621821417E+02  0.10728426854E+03  0.00000000000E+00 0. -1.
        -14    1    6    6    0    0  0.58311784661E+01  0.13240972472E+01 -0.17029158319E+02  0.18048493258E+02  0.00000000000E+00 0.  1.
</event>
<event>
12    1  0.8407180E-002  0.2113086E+03  0.7818608E-02  0.1140652E+00
         21   -1    0    0  501  502  0.00000000000E+00  0.00000000000E+00  0.90622502253E+03  0.90622502253E+03  0.00000000000E+00 0. -1.
         21   -1    0    0  502  503 -0.00000000000E+00 -0.00000000000E+00 -0.20847031899E+03  0.20847031899E+03  0.00000000000E+00 0. -1.
         -6    2    1    2    0  503  0.67224268209E+02 -0.10187089574E+03 -0.13850462205E+03  0.25215201509E+03  0.17175659157E+03 0.  0.
        -24    2    3    3    0    0  0.57158422983E+02 -0.79208720367E+02 -0.16972193465E+03  0.21200844725E+03  0.81246168562E+02 0.  0.
          6    2    1    2  501    0 -0.67224268209E+02  0.10187089574E+03  0.83625932559E+03  0.86254332643E+03  0.17249506866E+03 0.  0.
         24    2    5    5    0    0 -0.96604406034E+02  0.10030107203E+03  0.79699895427E+03  0.81325718638E+03  0.82384475388E+02 0.  0.
          5    1    5    5  501    0  0.29380137824E+02  0.15698237104E+01  0.39260371319E+02  0.49286140051E+02  0.47000000000E+01 0. -1.
        -13    1    6    6    0    0 -0.77926641444E+02  0.72018463222E+02  0.36998257742E+03  0.38489781512E+03  0.00000000000E+00 0.  1.
         14    1    6    6    0    0 -0.18677764590E+02  0.28282608809E+02  0.42701637685E+03  0.42835937126E+03  0.00000000000E+00 0. -1.
         -5    1    3    3    0  503  0.10065845226E+02 -0.22662175375E+02  0.31217312595E+02  0.40143567835E+02  0.47000000000E+01 0.  1.
         13    1    4    4    0    0  0.24644716469E+02 -0.46161165364E+02 -0.15464460289E+03  0.16325798125E+03  0.00000000000E+00 0. -1.
        -14    1    4    4    0    0  0.32513706514E+02 -0.33047555003E+02 -0.15077331758E+02  0.48750466007E+02  0.00000000000E+00 0.  1.
</event>
<event>
12    1  0.8407180E-002  0.2357091E+03  0.7818608E-02  0.1123257E+00
         21   -1    0    0  503  502  0.00000000000E+00  0.00000000000E+00  0.49291378654E+03  0.49291378654E+03  0.00000000000E+00 0. -1.
         21   -1    0    0  501  503 -0.00000000000E+00 -0.00000000000E+00 -0.19499722164E+03  0.19499722164E+03  0.00000000000E+00 0. -1.
          6    2    1    2  501    0  0.15254774886E+03  0.52149921570E+02 -0.76008309446E+02  0.24766114616E+03  0.17195450040E+03 0.  0.
         24    2    3    3    0    0  0.12913806543E+03  0.76513577760E+02 -0.69089098120E+01  0.17060001425E+03  0.80781583930E+02 0.  0.
         -6    2    1    2    0  502 -0.15254774886E+03 -0.52149921570E+02  0.37392487435E+03  0.44024986202E+03  0.16736098516E+03 0.  0.
        -24    2    5    5    0    0 -0.97808778312E+02  0.33417467197E+02  0.21284772330E+03  0.24976082952E+03  0.79956453252E+02 0.  0.
          5    1    3    3  501    0  0.23409683427E+02 -0.24363656190E+02 -0.69099399634E+02  0.77061131907E+02  0.47000000000E+01 0. -1.
        -13    1    4    4    0    0  0.50179478118E+02  0.69351998124E+02  0.18044627338E+02  0.87483074041E+02  0.00000000000E+00 0.  1.
         14    1    4    4    0    0  0.78958587311E+02  0.71615796364E+01 -0.24953537150E+02  0.83116940207E+02  0.00000000000E+00 0. -1.
         -5    1    5    5    0  502 -0.54738970544E+02 -0.85567388767E+02  0.16107715104E+03  0.19048903251E+03  0.47000000000E+01 0.  1.
         13    1    6    6    0    0 -0.44270394821E+02  0.54401095651E+02  0.14310566987E+03  0.15936931893E+03  0.00000000000E+00 0. -1.
        -14    1    6    6    0    0 -0.53538383491E+02 -0.20983628454E+02  0.69742053432E+02  0.90391510591E+02  0.00000000000E+00 0.  1.
</event>
<event>
12    1  0.8407180E-002  0.2061267E+03  0.7818608E-02  0.1145528E+00
         21   -1    0    0  503  502  0.00000000000E+00  0.00000000000E+00  0.18984821536E+04  0.18984821536E+04  0.00000000000E+00 0. -1.
         21   -1    0    0  501  503 -0.00000000000E+00 -0.00000000000E+00 -0.22756311780E+02  0.22756311780E+02  0.00000000000E+00 0. -1.
          6    2    1    2  501    0 -0.21936374249E+02 -0.10376967604E+03  0.76391048158E+03  0.79123160452E+03  0.17674523459E+03 0.  0.
         24    2    3    3    0    0  0.15615009763E+02 -0.84555496795E+02  0.25963622231E+03  0.28517438475E+03  0.80746524464E+02 0.  0.
         -6    2    1    2    0  502  0.21936374249E+02  0.10376967604E+03  0.11118153602E+04  0.11300068608E+04  0.17185098234E+03 0.  0.
        -24    2    5    5    0    0  0.67476927344E+02  0.40423657855E+02  0.83802566979E+03  0.84527972026E+03  0.77611689903E+02 0.  0.
          5    1    3    3  501    0 -0.37551384012E+02 -0.19214179247E+02  0.50427425927E+03  0.50605721977E+03  0.47000000000E+01 0. -1.
        -13    1    4    4    0    0  0.22897182369E+02 -0.33396346619E+02  0.20878463658E+03  0.21267491954E+03  0.00000000000E+00 0.  1.
         14    1    4    4    0    0 -0.72821726058E+01 -0.51159150176E+02  0.50851585725E+02  0.72499465207E+02  0.00000000000E+00 0. -1.
         -5    1    5    5    0  502 -0.45540553095E+02  0.63346018187E+02  0.27378969041E+03  0.28472714056E+03  0.47000000000E+01 0.  1.
         13    1    6    6    0    0  0.11264544620E+02 -0.17687820385E+02  0.34780510871E+03  0.34843671247E+03  0.00000000000E+00 0. -1.
        -14    1    6    6    0    0  0.56212382724E+02  0.58111478240E+02  0.49022056108E+03  0.49684300778E+03  0.00000000000E+00 0.  1.
</event>
<event>
12    1  0.8407180E-002  0.3425040E+03  0.7818608E-02  0.1065736E+00
         21   -1    0    0  501  502  0.00000000000E+00  0.00000000000E+00  0.10915399439E+04  0.10915399439E+04  0.00000000000E+00 0. -1.
         21   -1    0    0  502  503 -0.00000000000E+00 -0.00000000000E+00 -0.13233197630E+03  0.13233197630E+03  0.00000000000E+00 0. -1.
         -6    2    1    2    0  503  0.25171786827E+03  0.15616264797E+03  0.21432769631E+03  0.40402095637E+03  0.17189506668E+03 0.  0.
        -24    2    3    3    0    0  0.26347847787E+03  0.12683541346E+03  0.21597796744E+03  0.37203327097E+03  0.79083132745E+02 0.  0.
          6    2    1    2  501    0 -0.25171786827E+03 -0.15616264797E+03  0.74488027131E+03  0.81985096387E+03  0.17193116801E+03 0.  0.
         24    2    5    5    0    0 -0.11826770704E+03 -0.46830068226E+02  0.28269801408E+03  0.32649806033E+03  0.10248175650E+03 0.  0.
          5    1    5    5  501    0 -0.13345016123E+03 -0.10933257974E+03  0.46218225723E+03  0.49335290354E+03  0.47000000000E+01 0. -1.
        -11    1    6    6    0    0 -0.77012036932E+02 -0.74122580748E+02  0.14466593666E+03  0.17987007544E+03  0.00000000000E+00 0.  1.
         12    1    6    6    0    0 -0.41255670105E+02  0.27292512522E+02  0.13803207742E+03  0.14662798489E+03  0.00000000000E+00 0. -1.
         -5    1    3    3    0  503 -0.11760609599E+02  0.29327234507E+02 -0.16502711258E+01  0.31987685392E+02  0.47000000000E+01 0.  1.
         11    1    4    4    0    0  0.16913773056E+03  0.12102862591E+03  0.15750251188E+03  0.26088798638E+03  0.00000000000E+00 0. -1.
        -12    1    4    4    0    0  0.94340747312E+02  0.58067875487E+01  0.58475455556E+02  0.11114528459E+03  0.00000000000E+00 0.  1.
</event>
<event>
12    1  0.8407180E-002  0.1926183E+03  0.7818608E-02  0.1156649E+00
         21   -1    0    0  501  502  0.00000000000E+00  0.00000000000E+00  0.10316908157E+03  0.10316908157E+03  0.00000000000E+00 0.  1.
         21   -1    0    0  502  503 -0.00000000000E+00 -0.00000000000E+00 -0.53591698195E+03  0.53591698195E+03  0.00000000000E+00 0.  1.
         -6    2    1    2    0  503 -0.57992059625E+02 -0.64552484728E+02 -0.40103641483E+03  0.44387487021E+03  0.16930620817E+03 0.  0.
        -24    2    3    3    0    0 -0.41934186069E+02  0.30334981726E+02 -0.19720994545E+03  0.21842242243E+03  0.78344782582E+02 0.  0.
          6    2    1    2  501    0  0.57992059625E+02  0.64552484728E+02 -0.31711485555E+02  0.19521119331E+03  0.17196420969E+03 0.  0.
         24    2    5    5    0    0  0.63201800569E+02  0.11219307353E+03 -0.21561808522E+02  0.14599866395E+03  0.65337163571E+02 0.  0.
          5    1    5    5  501    0 -0.52097409439E+01 -0.47640588806E+02 -0.10149677033E+02  0.49212529364E+02  0.47000000000E+01 0. -1.
        -11    1    6    6    0    0  0.56518922618E+02  0.61037729653E+02 -0.38548383470E+02  0.91684082170E+02  0.00000000000E+00 0.  1.
         12    1    6    6    0    0  0.66828779506E+01  0.51155343881E+02  0.16986574948E+02  0.54314581778E+02  0.00000000000E+00 0. -1.
         -5    1    3    3    0  503 -0.16057873556E+02 -0.94887466454E+02 -0.20382646937E+03  0.22545244778E+03  0.47000000000E+01 0.  1.
         13    1    4    4    0    0 -0.64828945048E+01  0.37461117235E+02 -0.33200878973E+02  0.50474365675E+02  0.00000000000E+00 0. -1.
        -14    1    4    4    0    0 -0.35451291564E+02 -0.71261355095E+01 -0.16400906648E+03  0.16794805676E+03  0.00000000000E+00 0.  1.
</event>
<event>
12    1  0.8407180E-002  0.2363299E+03  0.7818608E-02  0.1122279E+00
         21   -1    0    0  503  502  0.00000000000E+00  0.00000000000E+00  0.11308985716E+03  0.11308985716E+03  0.00000000000E+00 0.  1.
         21   -1    0    0  501  503 -0.00000000000E+00 -0.00000000000E+00 -0.82201596372E+03  0.82201596372E+03  0.00000000000E+00 0. -1.
          6    2    1    2  501    0 -0.13086875996E+03  0.95591898123E+02 -0.59005177268E+02  0.24358454820E+03  0.17200981907E+03 0.  0.
         24    2    3    3    0    0  0.49433698486E+01  0.41225219898E+02 -0.12572352887E+02  0.90030754745E+02  0.78889271018E+02 0.  0.
         -6    2    1    2    0  502  0.13086875996E+03 -0.95591898123E+02 -0.64992092929E+03  0.69152127268E+03  0.17187208299E+03 0.  0.
        -24    2    5    5    0    0  0.42622197650E+02  0.13360278461E+02 -0.19968941155E+03  0.21994037600E+03  0.80639687107E+02 0.  0.
          5    1    3    3  501    0 -0.13581212981E+03  0.54366678225E+02 -0.46432824381E+02  0.15355379345E+03  0.47000000000E+01 0. -1.
        -13    1    4    4    0    0  0.40011157665E+01  0.52484232013E+02 -0.36171166036E+02  0.63866711124E+02  0.00000000000E+00 0.  1.
         14    1    4    4    0    0  0.94225408214E+00 -0.11259012115E+02  0.23598813149E+02  0.26164043621E+02  0.00000000000E+00 0. -1.
         -5    1    5    5    0  502  0.88246562307E+02 -0.10895217658E+03 -0.45023151775E+03  0.47158089668E+03  0.47000000000E+01 0.  1.
         13    1    6    6    0    0  0.63807977240E+02  0.85922978856E+01 -0.17783677963E+03  0.18913277276E+03  0.00000000000E+00 0. -1.
        -14    1    6    6    0    0 -0.21185779590E+02  0.47679805749E+01 -0.21852631921E+02  0.30807603242E+02  0.00000000000E+00 0.  1.
</event>
<event>
12    1  0.8407180E-002  0.2235641E+03  0.7818608E-02  0.1131268E+00
         21   -1    0    0  501  502  0.00000000000E+00  0.00000000000E+00  0.33112413781E+03  0.33112413781E+03  0.00000000000E+00 0.  1.
         21   -1    0    0  502  503 -0.00000000000E+00 -0.00000000000E+00 -0.15563193230E+03  0.15563193230E+03  0.00000000000E+00 0. -1.
         -6    2    1    2    0  503  0.36720541559E+02 -0.13842540619E+03  0.13024447925E+03  0.25873638121E+03  0.17167090417E+03 0.  0.
        -24    2    3    3    0    0  0.47287185146E+01 -0.15983748761E+03  0.82582908675E+02  0.19728990628E+03  0.80826895824E+02 0.  0.
          6    2    1    2  501    0 -0.36720541559E+02  0.13842540619E+03  0.45247726263E+02  0.22801968890E+03  0.17156815130E+03 0.  0.
         24    2    5    5    0    0  0.43913048927E+02  0.86309568045E+02  0.32938024660E+02  0.13111016793E+03  0.82019907735E+02 0.  0.
          5    1    5    5  501    0 -0.80633590485E+02  0.52115838144E+02  0.12309701604E+02  0.96909520964E+02  0.47000000000E+01 0. -1.
        -13    1    6    6    0    0 -0.62695133848E+01  0.25713537125E+02  0.44312260715E+02  0.51614622340E+02  0.00000000000E+00 0.  1.
         14    1    6    6    0    0  0.50182562311E+02  0.60596030920E+02 -0.11374236055E+02  0.79495545593E+02  0.00000000000E+00 0. -1.
         -5    1    3    3    0  503  0.31991823044E+02  0.21412081426E+02  0.47661570571E+02  0.61446474936E+02  0.47000000000E+01 0.  1.
         11    1    4    4    0    0 -0.14145047011E+01 -0.28534309606E+02 -0.16218154190E+02  0.32851730146E+02  0.00000000000E+00 0. -1.
        -12    1    4    4    0    0  0.61432232158E+01 -0.13130317801E+03  0.98801062865E+02  0.16443817613E+03  0.00000000000E+00 0.  1.
</event>
<event>
12    1  0.8407180E-002  0.1775659E+03  0.7818608E-02  0.1172294E+00
         21   -1    0    0  501  502  0.00000000000E+00  0.00000000000E+00  0.12917328216E+04  0.12917328216E+04  0.00000000000E+00 0.  1.
         21   -1    0    0  502  503 -0.00000000000E+00 -0.00000000000E+00 -0.14247138303E+03  0.14247138303E+03  0.00000000000E+00 0.  1.
         -6    2    1    2    0  503 -0.37518740714E+02  0.17447197247E+02 -0.83526992593E+02  0.18869347912E+03  0.16406221374E+03 0.  0.
        -24    2    3    3    0    0  0.11030026851E+02 -0.41911967213E+02 -0.58641136572E+02  0.10793526550E+03  0.79579923051E+02 0.  0.
          6    2    1    2  501    0  0.37518740714E+02 -0.17447197247E+02  0.12327884312E+04  0.12455107255E+04  0.17267770776E+03 0.  0.
         24    2    5    5    0    0  0.12538106645E+01 -0.66235674286E+02  0.98942448157E+03  0.99462516873E+03  0.77004447525E+02 0.  0.
          5    1    5    5  501    0  0.36264930049E+02  0.48788477040E+02  0.24336394960E+03  0.25088555680E+03  0.47000000000E+01 0. -1.
        -13    1    6    6    0    0 -0.12166485635E+02  0.53577058467E+01  0.46237627363E+03  0.46256734299E+03  0.00000000000E+00 0.  1.
         14    1    6    6    0    0  0.13420296300E+02 -0.71593380133E+02  0.52704820794E+03  0.53205782574E+03  0.00000000000E+00 0. -1.
         -5    1    3    3    0  503 -0.48548767564E+02  0.59359164460E+02 -0.24885856020E+02  0.80758213621E+02  0.47000000000E+01 0.  1.
         13    1    4    4    0    0  0.14316640682E+02 -0.38653771898E+02  0.72749125114E+01  0.41856954432E+02  0.00000000000E+00 0. -1.
        -14    1    4    4    0    0 -0.32866138310E+01 -0.32581953159E+01 -0.65916049084E+02  0.66078311071E+02  0.00000000000E+00 0.  1.
</event>
<event>
12    1  0.8407180E-002  0.2527564E+03  0.7818608E-02  0.1111798E+00
         21   -1    0    0  503  502  0.00000000000E+00  0.00000000000E+00  0.29539847895E+03  0.29539847895E+03  0.00000000000E+00 0. -1.
         21   -1    0    0  501  503 -0.00000000000E+00 -0.00000000000E+00 -0.34151197044E+03  0.34151197044E+03  0.00000000000E+00 0. -1.
          6    2    1    2  501    0 -0.50248781142E+02  0.17675534756E+03 -0.21688261042E+03  0.33305236359E+03  0.17354658536E+03 0.  0.
         24    2    3    3    0    0 -0.29665341621E+02  0.11353067826E+03 -0.46038366087E+02  0.14966511591E+03  0.80689952087E+02 0.  0.
         -6    2    1    2    0  502  0.50248781142E+02 -0.17675534756E+03  0.17076911893E+03  0.30385808581E+03  0.17146501519E+03 0.  0.
        -24    2    5    5    0    0  0.12964061810E+02 -0.19379503776E+03  0.14655175681E+03  0.25601383886E+03  0.79630928072E+02 0.  0.
          5    1    3    3  501    0 -0.20583439521E+02  0.63224669299E+02 -0.17084424433E+03  0.18338724768E+03  0.47000000000E+01 0. -1.
        -13    1    4    4    0    0 -0.53027940339E+02  0.51542051813E+02 -0.37369075953E+02  0.82855255713E+02  0.00000000000E+00 0.  1.
         14    1    4    4    0    0  0.23362598718E+02  0.61988626449E+02 -0.86692901347E+01  0.66809860195E+02  0.00000000000E+00 0. -1.
         -5    1    5    5    0  502  0.37284719332E+02  0.17039690200E+02  0.24217362115E+02  0.47844246943E+02  0.47000000000E+01 0.  1.
         11    1    6    6    0    0  0.36687477646E+02 -0.14678216650E+03  0.79992705131E+02  0.17114265480E+03  0.00000000000E+00 0. -1.
        -12    1    6    6    0    0 -0.23723415836E+02 -0.47012871257E+02  0.66559051682E+02  0.84871184059E+02  0.00000000000E+00 0.  1.
</event>
<event>
12    1  0.8407180E-002  0.1878593E+03  0.7818608E-02  0.1161432E+00
         21   -1    0    0  503  502  0.00000000000E+00  0.00000000000E+00  0.81693138299E+02  0.81693138299E+02  0.00000000000E+00 0.  1.
         21   -1    0    0  501  503 -0.00000000000E+00 -0.00000000000E+00 -0.49071977770E+03  0.49071977770E+03  0.00000000000E+00 0.  1.
          6    2    1    2  501    0  0.46304513904E+02  0.44611868222E+02 -0.99420384229E+02  0.21254537769E+03  0.17651288334E+03 0.  0.
         24    2    3    3    0    0  0.30179447657E+02  0.56984320750E+02  0.78606942014E+01  0.10325486972E+03  0.80260611361E+02 0.  0.
         -6    2    1    2    0  502 -0.46304513904E+02 -0.44611868222E+02 -0.30960625517E+03  0.35986753830E+03  0.17179722085E+03 0.  0.
        -24    2    5    5    0    0  0.28360667651E+02 -0.64028878919E+02 -0.19188277302E+03  0.21903850050E+03  0.79087554718E+02 0.  0.
          5    1    3    3  501    0  0.16125066247E+02 -0.12372452527E+02 -0.10728107843E+03  0.10929050797E+03  0.47000000000E+01 0. -1.
        -11    1    4    4    0    0 -0.25199217191E+02  0.34143674187E+02  0.88224608836E+01  0.43343129214E+02  0.00000000000E+00 0.  1.
         12    1    4    4    0    0  0.55378664848E+02  0.22840646563E+02 -0.96176668216E+00  0.59911740510E+02  0.00000000000E+00 0. -1.
         -5    1    5    5    0  502 -0.74665181556E+02  0.19417010697E+02 -0.11772348215E+03  0.14082903781E+03  0.47000000000E+01 0.  1.
         11    1    6    6    0    0 -0.27570688716E+02 -0.20203215522E+02 -0.53668997724E+02  0.63629192282E+02  0.00000000000E+00 0. -1.
        -12    1    6    6    0    0  0.55931356367E+02 -0.43825663397E+02 -0.13821377530E+03  0.15540930822E+03  0.00000000000E+00 0.  1.
</event>
<event>
12    1  0.8407180E-002  0.2188810E+03  0.7818608E-02  0.1134966E+00
         21   -1    0    0  501  502  0.00000000000E+00  0.00000000000E+00  0.20787501759E+03  0.20787501759E+03  0.00000000000E+00 0. -1.
         21   -1    0    0  502  503 -0.00000000000E+00 -0.00000000000E+00 -0.62894616119E+03  0.62894616119E+03  0.00000000000E+00 0.  1.
         -6    2    1    2    0  503 -0.65813931717E+02  0.11751764221E+03 -0.54392017915E+03  0.58582161166E+03  0.17086816426E+03 0.  0.
        -24    2    3    3    0    0  0.44257602615E+00  0.27388983473E+01 -0.13409007101E+03  0.15507006795E+03  0.77838816760E+02 0.  0.
          6    2    1    2  501    0  0.65813931717E+02 -0.11751764221E+03  0.12284903555E+03  0.25099956711E+03  0.17253123577E+03 0.  0.
         24    2    5    5    0    0  0.21042941147E+02 -0.13869477190E+03  0.11924243925E+03  0.20111961167E+03  0.80940062738E+02 0.  0.
          5    1    5    5  501    0  0.44770990571E+02  0.21177129684E+02  0.36065963057E+01  0.49879955445E+02  0.47000000000E+01 0. -1.
        -13    1    6    6    0    0 -0.15188148683E+02 -0.36552629943E+02 -0.53797278922E+00  0.39586159588E+02  0.00000000000E+00 0.  1.
         14    1    6    6    0    0  0.36231089829E+02 -0.10214214195E+03  0.11978041204E+03  0.16153345208E+03  0.00000000000E+00 0. -1.
         -5    1    3    3    0  503 -0.66256507743E+02  0.11477874386E+03 -0.40983010815E+03  0.43075154371E+03  0.47000000000E+01 0.  1.
         13    1    4    4    0    0  0.33007060713E+02  0.41266386536E+01 -0.10892734290E+03  0.11389320100E+03  0.00000000000E+00 0. -1.
        -14    1    4    4    0    0 -0.32564484686E+02 -0.13877403063E+01 -0.25162728107E+02  0.41176866950E+02  0.00000000000E+00 0.  1.
</event>
<event>
12    1  0.8407180E-002  0.1769226E+03  0.7818608E-02  0.1171474E+00
         21   -1    0    0  501  502  0.00000000000E+00  0.00000000000E+00  0.43750917089E+02  0.43750917089E+02  0.00000000000E+00 0.  1.
         21   -1    0    0  502  503 -0.00000000000E+00 -0.00000000000E+00 -0.70862692568E+03  0.70862692568E+03  0.00000000000E+00 0.  1.
         -6    2    1    2    0  503 -0.99335807562E+01  0.41008910560E+02 -0.30231131430E+03  0.34894906911E+03  0.16909439761E+03 0.  0.
        -24    2    3    3    0    0  0.38039105265E+02  0.73544341562E+02 -0.18002905882E+03  0.21354237474E+03  0.79587311068E+02 0.  0.
          6    2    1    2  501    0  0.99335807562E+01 -0.41008910560E+02 -0.36256469429E+03  0.40342877366E+03  0.17181737718E+03 0.  0.
         24    2    5    5    0    0  0.79584781440E+01 -0.90427905712E+02 -0.29986381977E+03  0.32343110009E+03  0.80304561452E+02 0.  0.
          5    1    5    5  501    0  0.19751026121E+01  0.49418995152E+02 -0.62700874519E+02  0.79997673576E+02  0.47000000000E+01 0. -1.
        -11    1    6    6    0    0  0.43828949895E+02 -0.57225446663E+02 -0.16859629587E+03  0.18335877283E+03  0.00000000000E+00 0.  1.
         12    1    6    6    0    0 -0.35870471751E+02 -0.33202459049E+02 -0.13126752390E+03  0.14007232725E+03  0.00000000000E+00 0. -1.
         -5    1    3    3    0  503 -0.47972686021E+02 -0.32535431002E+02 -0.12228225548E+03  0.13540669437E+03  0.47000000000E+01 0.  1.
         13    1    4    4    0    0  0.23763886943E+02 -0.11076911820E+02 -0.24374711511E+02  0.35798699129E+02  0.00000000000E+00 0. -1.
        -14    1    4    4    0    0  0.14275218323E+02  0.84621253381E+02 -0.15565434731E+03  0.17774367561E+03  0.00000000000E+00 0.  1.
</event>
<event>
12    1  0.8407180E-002  0.1923186E+03  0.7818608E-02  0.1156646E+00
         21   -1    0    0  501  502  0.00000000000E+00  0.00000000000E+00  0.14778489863E+03  0.14778489863E+03  0.00000000000E+00 0. -1.
         21   -1    0    0  502  503 -0.00000000000E+00 -0.00000000000E+00 -0.34015689612E+03  0.34015689612E+03  0.00000000000E+00 0. -1.
         -6    2    1    2    0  503 -0.82621739285E+02  0.78537177271E+01 -0.22243631080E+03  0.29328749918E+03  0.17219643472E+03 0.  0.
        -24    2    3    3    0    0 -0.48360763043E+02 -0.46479426175E+02 -0.19937490421E+03  0.22487826374E+03  0.79503337149E+02 0.  0.
          6    2    1    2  501    0  0.82621739285E+02 -0.78537177271E+01  0.30064313308E+02  0.19465429557E+03  0.17348890213E+03 0.  0.
         24    2    5    5    0    0 -0.24872383570E+02  0.11358001480E+02  0.14847231352E+02  0.84301560273E+02  0.78349684897E+02 0.  0.
          5    1    5    5  501    0  0.10749412286E+03 -0.19211719207E+02  0.15217081956E+02  0.11035273529E+03  0.47000000000E+01 0. -1.
        -11    1    6    6    0    0 -0.13821253551E+02  0.42011364867E+02 -0.74072480289E+01  0.44842492695E+02  0.00000000000E+00 0.  1.
         12    1    6    6    0    0 -0.11051130019E+02 -0.30653363387E+02  0.22254479381E+02  0.39459067578E+02  0.00000000000E+00 0. -1.
         -5    1    3    3    0  503 -0.34260976243E+02  0.54333143902E+02 -0.23061406594E+02  0.68409235440E+02  0.47000000000E+01 0.  1.
         13    1    4    4    0    0 -0.62005618218E+02 -0.18339456051E+02 -0.88037593768E+02  0.10923209352E+03  0.00000000000E+00 0. -1.
        -14    1    4    4    0    0  0.13644855176E+02 -0.28139970124E+02 -0.11133731044E+03  0.11564617022E+03  0.00000000000E+00 0.  1.
</event>
<event>
12    1  0.8407180E-002  0.1943189E+03  0.7818608E-02  0.1154903E+00
         21   -1    0    0  501  502  0.00000000000E+00  0.00000000000E+00  0.28060019275E+03  0.28060019275E+03  0.00000000000E+00 0. -1.
         21   -1    0    0  502  503 -0.00000000000E+00 -0.00000000000E+00 -0.16189340774E+03  0.16189340774E+03  0.00000000000E+00 0. -1.
         -6    2    1    2    0  503  0.80871174647E+02 -0.41786432204E+02 -0.32836201005E+02  0.19707375598E+03  0.17167875930E+03 0.  0.
        -24    2    3    3    0    0  0.87339305915E+02 -0.82132097538E+02 -0.50572839044E+02  0.15228215228E+03  0.79110088174E+02 0.  0.
          6    2    1    2  501    0 -0.80871174647E+02  0.41786432204E+02  0.15154298601E+03  0.24541984451E+03  0.17023328307E+03 0.  0.
         24    2    5    5    0    0 -0.38153495878E+02  0.38372630212E+01  0.78758549538E+01  0.90735410688E+02  0.81856409806E+02 0.  0.
          5    1    5    5  501    0 -0.42717678769E+02  0.37949169182E+02  0.14366713106E+03  0.15468443382E+03  0.47000000000E+01 0. -1.
        -13    1    6    6    0    0 -0.62193459702E+01 -0.36948577080E+02 -0.37214683900E+01  0.37652714902E+02  0.00000000000E+00 0.  1.
         14    1    6    6    0    0 -0.31934149908E+02  0.40785840101E+02  0.11597323344E+02  0.53082695786E+02  0.00000000000E+00 0. -1.
         -5    1    3    3    0  503 -0.64681312678E+01  0.40345665334E+02  0.17736638039E+02  0.44791603703E+02  0.47000000000E+01 0.  1.
         13    1    4    4    0    0  0.97384360627E+02 -0.50485674349E+02 -0.45233322494E+02  0.11865315197E+03  0.00000000000E+00 0. -1.
        -14    1    4    4    0    0 -0.10045054712E+02 -0.31646423189E+02 -0.53395165504E+01  0.33629000309E+02  0.00000000000E+00 0.  1.
</event>
<event>
12    1  0.8407180E-002  0.1945869E+03  0.7818608E-02  0.1154960E+00
         21   -1    0    0  503  502  0.00000000000E+00  0.00000000000E+00  0.36483761864E+03  0.36483761864E+03  0.00000000000E+00 0.  1.
         21   -1    0    0  501  503 -0.00000000000E+00 -0.00000000000E+00 -0.24854755800E+03  0.24854755800E+03  0.00000000000E+00 0.  1.
          6    2    1    2  501    0 -0.83064002114E+02 -0.31352010742E+02 -0.17718725489E+03  0.26125880287E+03  0.17023002601E+03 0.  0.
         24    2    3    3    0    0 -0.95828321752E+02  0.27986265614E+02 -0.13265156542E+03  0.18583018407E+03  0.83487251670E+02 0.  0.
         -6    2    1    2    0  502  0.83064002114E+02  0.31352010742E+02  0.29347731554E+03  0.35212637377E+03  0.17315158488E+03 0.  0.
        -24    2    5    5    0    0  0.10038122742E+03  0.15057977768E+02  0.30041338058E+03  0.32691564587E+03  0.79514192270E+02 0.  0.
          5    1    3    3  501    0  0.12764319638E+02 -0.59338276356E+02 -0.44535689477E+02  0.75428618799E+02  0.47000000000E+01 0. -1.
        -13    1    4    4    0    0 -0.47668023639E+02 -0.27966624868E+02 -0.45292823311E+02  0.71454967830E+02  0.00000000000E+00 0.  1.
         14    1    4    4    0    0 -0.48160298112E+02  0.55952890482E+02 -0.87358742105E+02  0.11437521624E+03  0.00000000000E+00 0. -1.
         -5    1    5    5    0  502 -0.17317225310E+02  0.16294032974E+02 -0.69360650388E+01  0.25210727900E+02  0.47000000000E+01 0.  1.
         11    1    6    6    0    0  0.18536273125E+02 -0.19143405164E+02  0.14956114511E+03  0.15191642277E+03  0.00000000000E+00 0. -1.
        -12    1    6    6    0    0  0.81844954299E+02  0.34201382932E+02  0.15085223547E+03  0.17499922310E+03  0.00000000000E+00 0.  1.
</event>
<event>
12    1  0.8407180E-002  0.1848694E+03  0.7818608E-02  0.1164991E+00
         21   -1    0    0  501  502  0.00000000000E+00  0.00000000000E+00  0.17381964365E+03  0.17381964365E+03  0.00000000000E+00 0.  1.
         21   -1    0    0  502  503 -0.00000000000E+00 -0.00000000000E+00 -0.37924660023E+03  0.37924660023E+03  0.00000000000E+00 0.  1.
         -6    2    1    2    0  503  0.32670159766E+01 -0.43387867276E+02 -0.29767828777E+03  0.34645788073E+03  0.17183573461E+03 0.  0.
        -24    2    3    3    0    0  0.31073758164E+02  0.27346271454E+02 -0.10245458366E+03  0.13690855971E+03  0.80830780031E+02 0.  0.
          6    2    1    2  501    0 -0.32670159766E+01  0.43387867276E+02  0.92251331194E+02  0.20660836314E+03  0.17967617313E+03 0.  0.
         24    2    5    5    0    0  0.33589322928E+02  0.58242175826E+02 -0.19306662969E+01  0.10427860769E+03  0.79686303019E+02 0.  0.
          5    1    5    5  501    0 -0.36856338905E+02 -0.14854308550E+02  0.94181997491E+02  0.10232975545E+03  0.47000000000E+01 0. -1.
        -13    1    6    6    0    0  0.40346886678E+02  0.49867813364E+02  0.29831493223E+02  0.70743113179E+02  0.00000000000E+00 0.  1.
         14    1    6    6    0    0 -0.67575637494E+01  0.83743624622E+01 -0.31762159520E+02  0.33535494507E+02  0.00000000000E+00 0. -1.
         -5    1    3    3    0  503 -0.27806742188E+02 -0.70734138730E+02 -0.19522370411E+03  0.20954932102E+03  0.47000000000E+01 0.  1.
         11    1    4    4    0    0 -0.77083588181E+01  0.33068937212E+02 -0.83529145035E+01  0.34967764938E+02  0.00000000000E+00 0. -1.
        -12    1    4    4    0    0  0.38782116983E+02 -0.57226657585E+01 -0.94101669159E+02  0.10194079478E+03  0.00000000000E+00 0.  1.
</event>
<event>
12    1  0.8407180E-002  0.1970527E+03  0.7818608E-02  0.1152948E+00
         21   -1    0    0  503  502  0.00000000000E+00  0.00000000000E+00  0.15662532290E+03  0.15662532290E+03  0.00000000000E+00 0. -1.
         21   -1    0    0  501  503 -0.00000000000E+00 -0.00000000000E+00 -0.41476026283E+03  0.41476026283E+03  0.00000000000E+00 0. -1.
          6    2    1    2  501    0 -0.22444774216E+02 -0.91496058542E+02 -0.31181644981E+03  0.36715172189E+03  0.16939773285E+03 0.  0.
         24    2    3    3    0    0 -0.52384196976E+02 -0.41449175062E+02 -0.28357773860E+03  0.30218577394E+03  0.80235714864E+02 0.  0.
         -6    2    1    2    0  502  0.22444774216E+02  0.91496058542E+02  0.53681509880E+02  0.20423386384E+03  0.17307359712E+03 0.  0.
        -24    2    5    5    0    0  0.20027918050E+02  0.12983621835E+03  0.23976464883E+02  0.15544566090E+03  0.79560803973E+02 0.  0.
          5    1    3    3  501    0  0.29939422760E+02 -0.50046883480E+02 -0.28238711215E+02  0.64965947945E+02  0.47000000000E+01 0. -1.
        -13    1    4    4    0    0 -0.36022171978E+02 -0.36635638651E+02 -0.28010794850E+03  0.28478102062E+03  0.00000000000E+00 0.  1.
         14    1    4    4    0    0 -0.16362024998E+02 -0.48135364109E+01 -0.34697900947E+01  0.17404753319E+02  0.00000000000E+00 0. -1.
         -5    1    5    5    0  502  0.24168561660E+01 -0.38340159807E+02  0.29705044998E+02  0.48788202940E+02  0.47000000000E+01 0.  1.
         13    1    6    6    0    0 -0.25763496156E+02  0.71097392118E+02 -0.43876093191E+01  0.75748584249E+02  0.00000000000E+00 0. -1.
        -14    1    6    6    0    0  0.45791414206E+02  0.58738826232E+02  0.28364074202E+02  0.79697076655E+02  0.00000000000E+00 0.  1.
</event>
<event>
12    1  0.8407180E-002  0.2291825E+03  0.7818608E-02  0.1127357E+00
         21   -1    0    0  501  502  0.00000000000E+00  0.00000000000E+00  0.28036141472E+03  0.28036141472E+03  0.00000000000E+00 0.  1.
         21   -1    0    0  502  503 -0.00000000000E+00 -0.00000000000E+00 -0.21595544728E+03  0.21595544728E+03  0.00000000000E+00 0.  1.
         -6    2    1    2    0  503  0.14890132856E+03  0.24282237870E+02 -0.59087277416E+02  0.23667685080E+03  0.17252070202E+03 0.  0.
        -24    2    3    3    0    0  0.11367141822E+03  0.70416702734E+02 -0.73625852100E+02  0.17665189278E+03  0.88912438840E+02 0.  0.
          6    2    1    2  501    0 -0.14890132856E+03 -0.24282237870E+02  0.12349324486E+03  0.25964001121E+03  0.17146755136E+03 0.  0.
         24    2    5    5    0    0 -0.63958393792E+02  0.21700219504E+02  0.26343491813E+01  0.10485418751E+03  0.80161619116E+02 0.  0.
          5    1    5    5  501    0 -0.84942934773E+02 -0.45982457373E+02  0.12085889568E+03  0.15478582370E+03  0.47000000000E+01 0. -1.
        -13    1    6    6    0    0 -0.36593487964E+02 -0.41134588227E+01  0.38218219570E+02  0.53071990842E+02  0.00000000000E+00 0.  1.
         14    1    6    6    0    0 -0.27364905827E+02  0.25813678326E+02 -0.35583870388E+02  0.51782196665E+02  0.00000000000E+00 0. -1.
         -5    1    3    3    0  503  0.35229910340E+02 -0.46134464864E+02  0.14538574684E+02  0.60024958015E+02  0.47000000000E+01 0.  1.
         13    1    4    4    0    0  0.82113665350E+02  0.57789308064E+02 -0.55519852862E+01  0.10056382403E+03  0.00000000000E+00 0. -1.
        -14    1    4    4    0    0  0.31557752875E+02  0.12627394670E+02 -0.68073866814E+02  0.76088068747E+02  0.00000000000E+00 0.  1.
</event>
<event>
12    1  0.8407180E-002  0.1957934E+03  0.7818608E-02  0.1153922E+00
         21   -1    0    0  501  502  0.00000000000E+00  0.00000000000E+00  0.18818801563E+03  0.18818801563E+03  0.00000000000E+00 0. -1.
         21   -1    0    0  502  503 -0.00000000000E+00 -0.00000000000E+00 -0.20334777562E+03  0.20334777562E+03  0.00000000000E+00 0. -1.
         -6    2    1    2    0  503  0.54971489593E+02 -0.69469825695E+02 -0.28866899345E+02  0.19526313536E+03  0.17159974593E+03 0.  0.
        -24    2    3    3    0    0  0.19686479355E+02 -0.35054353048E+02  0.55168456437E+02  0.97726025880E+02  0.69931769688E+02 0.  0.
          6    2    1    2  501    0 -0.54971489593E+02  0.69469825695E+02  0.13707139356E+02  0.19627265589E+03  0.17460569416E+03 0.  0.
         24    2    5    5    0    0 -0.63223089238E+02 -0.13498752094E+02 -0.22774201095E+02  0.10514169519E+03  0.79729144682E+02 0.  0.
          5    1    5    5  501    0  0.82515996452E+01  0.82968577788E+02  0.36481340451E+02  0.91130960700E+02  0.47000000000E+01 0. -1.
        -13    1    6    6    0    0  0.91308730458E+01 -0.87833203465E+01  0.17957284541E+02  0.21976888473E+02  0.00000000000E+00 0.  1.
         14    1    6    6    0    0 -0.72353962284E+02 -0.47154317473E+01 -0.40731485636E+02  0.83164806720E+02  0.00000000000E+00 0. -1.
         -5    1    3    3    0  503  0.35285010238E+02 -0.34415472646E+02 -0.84035355782E+02  0.97537109483E+02  0.47000000000E+01 0.  1.
         11    1    4    4    0    0  0.22371304413E+02 -0.50268482111E+02  0.18687579388E+02  0.58108701399E+02  0.00000000000E+00 0. -1.
        -12    1    4    4    0    0 -0.26848250584E+01  0.15214129063E+02  0.36480877049E+02  0.39617324481E+02  0.00000000000E+00 0.  1.
</event>
<event>
12    1  0.8407180E-002  0.2468177E+03  0.7818608E-02  0.1115638E+00
         21   -1    0    0  501  502  0.00000000000E+00  0.00000000000E+00  0.12335571377E+03  0.12335571377E+03  0.00000000000E+00 0. -1.
         21   -1    0    0  502  503 -0.00000000000E+00 -0.00000000000E+00 -0.55913970700E+03  0.55913970700E+03  0.00000000000E+00 0.  1.
         -6    2    1    2    0  503  0.17486288731E+03 -0.14503275489E+02 -0.33709900343E+03  0.41668021824E+03  0.17087800267E+03 0.  0.
        -24    2    3    3    0    0  0.68416636393E+02 -0.67546323954E+02 -0.19679682737E+03  0.23269337106E+03  0.78573988444E+02 0.  0.
          6    2    1    2  501    0 -0.17486288731E+03  0.14503275489E+02 -0.98684989794E+02  0.26581520254E+03  0.17358462009E+03 0.  0.
         24    2    5    5    0    0 -0.88336167809E+02  0.34368244614E+02 -0.12226946769E+03  0.17383798914E+03  0.79280318866E+02 0.  0.
          5    1    5    5  501    0 -0.86526719500E+02 -0.19864969125E+02  0.23584477896E+02  0.91977213392E+02  0.47000000000E+01 0. -1.
        -13    1    6    6    0    0 -0.44036770176E+02 -0.10313641008E+02 -0.95090981136E+02  0.10529911211E+03  0.00000000000E+00 0.  1.
         14    1    6    6    0    0 -0.44299397633E+02  0.44681885622E+02 -0.27178486554E+02  0.68538877032E+02  0.00000000000E+00 0. -1.
         -5    1    3    3    0  503  0.10644625092E+03  0.53043048464E+02 -0.14030217607E+03  0.18398684717E+03  0.47000000000E+01 0.  1.
         13    1    4    4    0    0  0.51799168547E+01 -0.48425506072E+02 -0.41709838860E+02  0.64121539553E+02  0.00000000000E+00 0. -1.
        -14    1    4    4    0    0  0.63236719538E+02 -0.19120817882E+02 -0.15508698851E+03  0.16857183151E+03  0.00000000000E+00 0.  1.
</event>
<event>
12    1  0.8407180E-002  0.1730047E+03  0.7818608E-02  0.1175061E+00
         21   -1    0    0  501  502  0.00000000000E+00  0.00000000000E+00  0.10416884281E+04  0.10416884281E+04  0.00000000000E+00 0. -1.
         21   -1    0    0  502  503 -0.00000000000E+00 -0.00000000000E+00 -0.83359346740E+02  0.83359346740E+02  0.00000000000E+00 0. -1.
         -6    2    1    2    0  503 -0.87058933208E+00  0.63586899340E+01  0.22378832674E+02  0.17324238655E+03  0.17167096866E+03 0.  0.
        -24    2    3    3    0    0 -0.62083140154E+02 -0.22739382864E+02  0.93685717394E+01  0.10406846727E+03  0.79819044838E+02 0.  0.
          6    2    1    2  501    0  0.87058933208E+00 -0.63586899340E+01  0.93595024870E+03  0.95180538831E+03  0.17288562203E+03 0.  0.
         24    2    5    5    0    0 -0.18652576312E+02 -0.67806840614E+02  0.49683374684E+03  0.50795584012E+03  0.78928304660E+02 0.  0.
          5    1    5    5  501    0  0.19523165644E+02  0.61448150680E+02  0.43911650186E+03  0.44384954819E+03  0.47000000000E+01 0. -1.
        -13    1    6    6    0    0  0.13171523285E+02 -0.58336667374E+02  0.18658069672E+03  0.19593114141E+03  0.00000000000E+00 0.  1.
         14    1    6    6    0    0 -0.31824099597E+02 -0.94701732402E+01  0.31025305012E+03  0.31202469871E+03  0.00000000000E+00 0. -1.
         -5    1    3    3    0  503  0.61212550822E+02  0.29098072798E+02  0.13010260935E+02  0.69173919278E+02  0.47000000000E+01 0.  1.
         11    1    4    4    0    0 -0.33597109104E+02  0.18819737333E+02 -0.22356076504E+02  0.44527995801E+02  0.00000000000E+00 0. -1.
        -12    1    4    4    0    0 -0.28486031050E+02 -0.41559120197E+02  0.31724648243E+02  0.59540471468E+02  0.00000000000E+00 0.  1.
</event>
<event>
12    1  0.8407180E-002  0.1879831E+03  0.7818608E-02  0.1160596E+00
         21   -1    0    0  503  502  0.00000000000E+00  0.00000000000E+00  0.88730497218E+03  0.88730497218E+03  0.00000000000E+00 0.  1.
         21   -1    0    0  501  503 -0.00000000000E+00 -0.00000000000E+00 -0.58973624884E+02  0.58973624884E+02  0.00000000000E+00 0. -1.
          6    2    1    2  501    0 -0.11709707997E+02 -0.72625668694E+02  0.14358888352E+03  0.23654895897E+03  0.17299143766E+03 0.  0.
         24    2    3    3    0    0  0.28688896633E+02 -0.46921086499E+02  0.10622968424E+02  0.95145997972E+02  0.76910807587E+02 0.  0.
         -6    2    1    2    0  502  0.11709707997E+02  0.72625668694E+02  0.68474246377E+03  0.70972963809E+03  0.17155848121E+03 0.  0.
        -24    2    5    5    0    0 -0.58137481964E+02  0.44075594701E+02  0.34034791627E+03  0.35713435874E+03  0.79910082129E+02 0.  0.
          5    1    3    3  501    0 -0.40398604629E+02 -0.25704582195E+02  0.13296591510E+03  0.14140296100E+03  0.47000000000E+01 0. -1.
        -13    1    4    4    0    0  0.42442284578E+02  0.31421705031E+01  0.29058317690E+01  0.42657527049E+02  0.00000000000E+00 0.  1.
         14    1    4    4    0    0 -0.13753387946E+02 -0.50063257002E+02  0.77171366555E+01  0.52488470923E+02  0.00000000000E+00 0. -1.
         -5    1    5    5    0  502  0.69847189961E+02  0.28550073993E+02  0.34439454750E+03  0.35259527935E+03  0.47000000000E+01 0.  1.
         11    1    6    6    0    0 -0.45865364371E+02  0.64148591783E+02  0.20286948409E+03  0.21765730186E+03  0.00000000000E+00 0. -1.
        -12    1    6    6    0    0 -0.12272117593E+02 -0.20072997083E+02  0.13747843218E+03  0.13947705688E+03  0.00000000000E+00 0.  1.
</event>
<event>
12    1  0.8407180E-002  0.2114139E+03  0.7818608E-02  0.1140516E+00
         21   -1    0    0  503  502  0.00000000000E+00  0.00000000000E+00  0.22710586628E+03  0.22710586628E+03  0.00000000000E+00 0. -1.
         21   -1    0    0  501  503 -0.00000000000E+00 -0.00000000000E+00 -0.33163061429E+03  0.33163061429E+03  0.00000000000E+00 0.  1.
          6    2    1    2  501    0  0.25157313131E+02  0.11982830939E+03 -0.23061840998E+03  0.31285887294E+03  0.17234880105E+03 0.  0.
         24    2    3    3    0    0 -0.51212935378E+02  0.49367330776E+02 -0.12843751816E+03  0.16705013172E+03  0.79684705794E+02 0.  0.
         -6    2    1    2    0  502 -0.25157313131E+02 -0.11982830939E+03  0.12609366197E+03  0.24587760763E+03  0.17194322380E+03 0.  0.
        -24    2    5    5    0    0 -0.31008670347E+02  0.23323659041E+01  0.72661369827E+02  0.11233147772E+03  0.79822983251E+02 0.  0.
          5    1    3    3  501    0  0.76370248509E+02  0.70460978612E+02 -0.10218089181E+03  0.14580874122E+03  0.47000000000E+01 0. -1.
        -13    1    4    4    0    0 -0.26389619621E+01  0.50744762657E+01 -0.91437325082E+02  0.91616040341E+02  0.00000000000E+00 0.  1.
         14    1    4    4    0    0 -0.48573973416E+02  0.44292854511E+02 -0.37000193083E+02  0.75434091380E+02  0.00000000000E+00 0. -1.
         -5    1    5    5    0  502  0.58513572158E+01 -0.12216067529E+03  0.53432292143E+02  0.13354612991E+03  0.47000000000E+01 0.  1.
         11    1    6    6    0    0  0.15923334904E+02  0.50035650670E+01  0.61895468285E+02  0.64106452500E+02  0.00000000000E+00 0. -1.
        -12    1    6    6    0    0 -0.46932005251E+02 -0.26711991629E+01  0.10765901542E+02  0.48225025224E+02  0.00000000000E+00 0.  1.
</event>
<event>
12    1  0.8407180E-002  0.1762864E+03  0.7818608E-02  0.1172240E+00
         21   -1    0    0  503  502  0.00000000000E+00  0.00000000000E+00  0.13728588091E+03  0.13728588091E+03  0.00000000000E+00 0. -1.
         21   -1    0    0  501  503 -0.00000000000E+00 -0.00000000000E+00 -0.22249023179E+03  0.22249023179E+03  0.00000000000E+00 0. -1.
          6    2    1    2  501    0 -0.49491269776E+01 -0.18482664113E+02 -0.38109723220E+02  0.18035862519E+03  0.17524491417E+03 0.  0.
         24    2    3    3    0    0  0.10554433051E+02 -0.67689572979E+02 -0.62995860519E+02  0.12288610929E+03  0.80244894335E+02 0.  0.
         -6    2    1    2    0  502  0.49491269776E+01  0.18482664113E+02 -0.47094627660E+02  0.17941748751E+03  0.17206576690E+03 0.  0.
        -24    2    5    5    0    0 -0.10705395031E+02  0.47858930594E+02 -0.87261318098E+02  0.12703922758E+03  0.78226242328E+02 0.  0.
          5    1    3    3  501    0 -0.15503560029E+02  0.49206908866E+02  0.24886137299E+02  0.57472515895E+02  0.47000000000E+01 0. -1.
        -11    1    4    4    0    0 -0.10843194732E+02  0.78411885550E+01 -0.38330675889E+02  0.40599258910E+02  0.00000000000E+00 0.  1.
         12    1    4    4    0    0  0.21397627783E+02 -0.75530761534E+02 -0.24665184630E+02  0.82286850380E+02  0.00000000000E+00 0. -1.
         -5    1    5    5    0  502  0.15654522009E+02 -0.29376266481E+02  0.40166690438E+02  0.52378259922E+02  0.47000000000E+01 0.  1.
         13    1    6    6    0    0  0.17304103557E+02 -0.59117677113E+01 -0.55828427116E+02  0.58746866058E+02  0.00000000000E+00 0. -1.
        -14    1    6    6    0    0 -0.28009498588E+02  0.53770698305E+02 -0.31432890982E+02  0.68292361527E+02  0.00000000000E+00 0.  1.
</event>
<event>
12    1  0.8407180E-002  0.2349890E+03  0.7818608E-02  0.1123251E+00
         21   -1    0    0  501  502  0.00000000000E+00  0.00000000000E+00  0.25137577908E+03  0.25137577908E+03  0.00000000000E+00 0. -1.
         21   -1    0    0  502  503 -0.00000000000E+00 -0.00000000000E+00 -0.49509996801E+03  0.49509996801E+03  0.00000000000E+00 0. -1.
         -6    2    1    2    0  503 -0.13508488150E+03  0.85393462293E+02 -0.40050055651E+03  0.46434958554E+03  0.17227847577E+03 0.  0.
        -24    2    3    3    0    0 -0.88252886981E+02 -0.10115489954E+02 -0.28081260424E+03  0.30415441836E+03  0.75916377076E+02 0.  0.
          6    2    1    2  501    0  0.13508488150E+03 -0.85393462293E+02  0.15677636758E+03  0.28212616156E+03  0.17168684572E+03 0.  0.
         24    2    5    5    0    0  0.26999869905E+01 -0.43363153797E+02  0.38342796038E+02  0.99531232838E+02  0.80923687912E+02 0.  0.
          5    1    5    5  501    0  0.13238489451E+03 -0.42030308496E+02  0.11843357154E+03  0.18259492872E+03  0.47000000000E+01 0. -1.
        -11    1    6    6    0    0  0.39023629143E+01 -0.65431272976E+02  0.40933713055E+02  0.77279031982E+02  0.00000000000E+00 0.  1.
         12    1    6    6    0    0 -0.12023759238E+01  0.22068119179E+02 -0.25909170171E+01  0.22252200856E+02  0.00000000000E+00 0. -1.
         -5    1    3    3    0  503 -0.46831994522E+02  0.95508952247E+02 -0.11968795227E+03  0.16019516718E+03  0.47000000000E+01 0.  1.
         13    1    4    4    0    0 -0.44416609727E+02  0.29896378169E+02 -0.17286327550E+03  0.18096502608E+03  0.00000000000E+00 0. -1.
        -14    1    4    4    0    0 -0.43836277254E+02 -0.40011868123E+02 -0.10794932874E+03  0.12318939227E+03  0.00000000000E+00 0.  1.
</event>
<event>
12    1  0.8407180E-002  0.2317769E+03  0.7818608E-02  0.1125583E+00
         21   -1    0    0  501  502  0.00000000000E+00  0.00000000000E+00  0.43607792639E+03  0.43607792639E+03  0.00000000000E+00 0.  1.
         21   -1    0    0  502  503 -0.00000000000E+00 -0.00000000000E+00 -0.12282642586E+03  0.12282642586E+03  0.00000000000E+00 0.  1.
         -6    2    1    2    0  503  0.69954519871E+02  0.13843574642E+03  0.16847448360E+03  0.28653826757E+03  0.17222786192E+03 0.  0.
        -24    2    3    3    0    0  0.70997062743E+02  0.32842406920E+02  0.13335168110E+03  0.17515271421E+03  0.82320081587E+02 0.  0.
          6    2    1    2  501    0 -0.69954519871E+02 -0.13843574642E+03  0.14477701693E+03  0.27236608469E+03  0.17077707317E+03 0.  0.
         24    2    5    5    0    0 -0.60339294751E+02 -0.41301014780E+02  0.13337798216E+03  0.17398094029E+03  0.84457546419E+02 0.  0.
          5    1    5    5  501    0 -0.96152251195E+01 -0.97134731636E+02  0.11399034771E+02  0.98385144396E+02  0.47000000000E+01 0. -1.
        -13    1    6    6    0    0 -0.29088753617E+02 -0.56919395502E+02  0.12112747235E+03  0.13695925573E+03  0.00000000000E+00 0.  1.
         14    1    6    6    0    0 -0.31250541134E+02  0.15618380722E+02  0.12250509812E+02  0.37021684568E+02  0.00000000000E+00 0. -1.
         -5    1    3    3    0  503 -0.10425428723E+01  0.10559333950E+03  0.35122802498E+02  0.11138555336E+03  0.47000000000E+01 0.  1.
         11    1    4    4    0    0  0.63847818485E+02  0.59721125728E+01  0.13265183744E+03  0.14733879336E+03  0.00000000000E+00 0. -1.
        -12    1    4    4    0    0  0.71492442583E+01  0.26870294347E+02  0.69984366227E+00  0.27813920848E+02  0.00000000000E+00 0.  1.
</event>
<event>
12    1  0.8407180E-002  0.1929406E+03  0.7818608E-02  0.1156187E+00
         21   -1    0    0  501  502  0.00000000000E+00  0.00000000000E+00  0.28544398460E+03  0.28544398460E+03  0.00000000000E+00 0.  1.
         21   -1    0    0  502  503 -0.00000000000E+00 -0.00000000000E+00 -0.15345694572E+03  0.15345694572E+03  0.00000000000E+00 0.  1.
         -6    2    1    2    0  503  0.48567246814E+02 -0.69979330240E+02 -0.20762499652E+02  0.19405454613E+03  0.17311903812E+03 0.  0.
        -24    2    3    3    0    0  0.26874413778E+02 -0.33065085064E+02 -0.79341376611E+02  0.12134405633E+03  0.81325223622E+02 0.  0.
          6    2    1    2  501    0 -0.48567246814E+02  0.69979330240E+02  0.15274953853E+03  0.24484638419E+03  0.17135181997E+03 0.  0.
         24    2    5    5    0    0 -0.24717731436E+02  0.11227372097E+03  0.95581170610E+02  0.16969369188E+03  0.80273496373E+02 0.  0.
          5    1    5    5  501    0 -0.23849515378E+02 -0.42294390732E+02  0.57168367916E+02  0.75152692309E+02  0.47000000000E+01 0. -1.
        -13    1    6    6    0    0  0.14493044677E+02  0.50427484531E+01  0.39729219466E+02  0.42589770313E+02  0.00000000000E+00 0.  1.
         14    1    6    6    0    0 -0.39210776113E+02  0.10723097252E+03  0.55851951145E+02  0.12710392157E+03  0.00000000000E+00 0. -1.
         -5    1    3    3    0  503  0.21692833036E+02 -0.36914245176E+02  0.58578876959E+02  0.72710489806E+02  0.47000000000E+01 0.  1.
         11    1    4    4    0    0  0.18012231739E+02  0.28844269842E+01  0.12638144939E+02  0.22191960678E+02  0.00000000000E+00 0. -1.
        -12    1    4    4    0    0  0.88621820390E+01 -0.35949512048E+02 -0.91979521550E+02  0.99152095649E+02  0.00000000000E+00 0.  1.
</event>
<event>
12    1  0.8407180E-002  0.1751261E+03  0.7818608E-02  0.1172619E+00
         21   -1    0    0  501  502  0.00000000000E+00  0.00000000000E+00  0.16373221425E+04  0.16373221425E+04  0.00000000000E+00 0. -1.
         21   -1    0    0  502  503 -0.00000000000E+00 -0.00000000000E+00 -0.19480773842E+02  0.19480773842E+02  0.00000000000E+00 0. -1.
         -6    2    1    2    0  503 -0.33302071312E+02  0.11300611940E+02  0.97192545794E+03  0.98756714813E+03  0.17150231633E+03 0.  0.
        -24    2    3    3    0    0 -0.53392147148E+02 -0.10155661456E+02  0.30258219713E+03  0.31756231711E+03  0.79598871781E+02 0.  0.
          6    2    1    2  501    0  0.33302071312E+02 -0.11300611940E+02  0.64591591075E+03  0.66923576824E+03  0.17155878859E+03 0.  0.
         24    2    5    5    0    0 -0.13583013440E+02 -0.67609149986E+01  0.12595350681E+03  0.14712293414E+03  0.74502776091E+02 0.  0.
          5    1    5    5  501    0  0.46885084752E+02 -0.45396969414E+01  0.51996240394E+03  0.52211283410E+03  0.47000000000E+01 0. -1.
        -13    1    6    6    0    0  0.82149670240E+01 -0.37316522472E+02  0.57137812173E+02  0.68736730447E+02  0.00000000000E+00 0.  1.
         14    1    6    6    0    0 -0.21797980464E+02  0.30555607474E+02  0.68815694637E+02  0.78386203689E+02  0.00000000000E+00 0. -1.
         -5    1    3    3    0  503  0.20090075835E+02  0.21456273396E+02  0.66934326080E+03  0.67000483103E+03  0.47000000000E+01 0.  1.
         13    1    4    4    0    0  0.50683297512E+01 -0.22242179459E+02  0.25902874313E+02  0.34516103651E+02  0.00000000000E+00 0. -1.
        -14    1    4    4    0    0 -0.58460476899E+02  0.12086518004E+02  0.27667932282E+03  0.28304621346E+03  0.00000000000E+00 0.  1.
</event>
<event>
12    1  0.8407180E-002  0.1824793E+03  0.7818608E-02  0.1166223E+00
         21   -1    0    0  501  502  0.00000000000E+00  0.00000000000E+00  0.25693142098E+03  0.25693142098E+03  0.00000000000E+00 0. -1.
         21   -1    0    0  502  503 -0.00000000000E+00 -0.00000000000E+00 -0.16239885411E+03  0.16239885411E+03  0.00000000000E+00 0. -1.
         -6    2    1    2    0  503 -0.38122672885E+01  0.61086540313E+02 -0.49929290168E+02  0.18918677677E+03  0.17190870745E+03 0.  0.
        -24    2    3    3    0    0 -0.87931806790E+01  0.33858880670E+02  0.38832113792E+02  0.96090956344E+02  0.80633708850E+02 0.  0.
          6    2    1    2  501    0  0.38122672885E+01 -0.61086540313E+02  0.14446185704E+03  0.23014349831E+03  0.16837666967E+03 0.  0.
         24    2    5    5    0    0 -0.23301065729E+02 -0.42566601909E+02  0.12180946122E+02  0.93767362799E+02  0.79303767979E+02 0.  0.
          5    1    5    5  501    0  0.27113333018E+02 -0.18519938404E+02  0.13228091091E+03  0.13637613552E+03  0.47000000000E+01 0. -1.
        -13    1    6    6    0    0 -0.30171062553E+02  0.27233732073E+01  0.31813393084E+02  0.43929508952E+02  0.00000000000E+00 0.  1.
         14    1    6    6    0    0  0.68699968235E+01 -0.45289975116E+02 -0.19632446962E+02  0.49837853847E+02  0.00000000000E+00 0. -1.
         -5    1    3    3    0  503  0.49809133904E+01  0.27227659643E+02 -0.88761403960E+02  0.93095820426E+02  0.47000000000E+01 0.  1.
         13    1    4    4    0    0 -0.38049959361E+02  0.35868464417E+02  0.41339725305E+02  0.66658225564E+02  0.00000000000E+00 0. -1.
        -14    1    4    4    0    0  0.29256778682E+02 -0.20095837472E+01 -0.25076115132E+01  0.29432730780E+02  0.00000000000E+00 0.  1.
</event>
<event>
12    1  0.8407180E-002  0.2245471E+03  0.7818608E-02  0.1130583E+00
         21   -1    0    0  503  502  0.00000000000E+00  0.00000000000E+00  0.18038602814E+03  0.18038602814E+03  0.00000000000E+00 0. -1.
         21   -1    0    0  501  503 -0.00000000000E+00 -0.00000000000E+00 -0.46522207919E+03  0.46522207919E+03  0.00000000000E+00 0. -1.
          6    2    1    2  501    0  0.86513796267E+02  0.11587663129E+03 -0.34648910314E+03  0.41275081103E+03  0.17145408360E+03 0.  0.
         24    2    3    3    0    0  0.53587744811E+02  0.14551300836E+03 -0.21875250687E+03  0.27746900243E+03  0.71349183955E+02 0.  0.
         -6    2    1    2    0  502 -0.86513796267E+02 -0.11587663129E+03  0.61653052080E+02  0.23285729630E+03  0.17178297642E+03 0.  0.
        -24    2    5    5    0    0 -0.10394835816E+03 -0.10802000837E+03  0.94223601660E+02  0.19479653998E+03  0.81203580613E+02 0.  0.
          5    1    3    3  501    0  0.32926051456E+02 -0.29636377072E+02 -0.12773659627E+03  0.13528180860E+03  0.47000000000E+01 0. -1.
        -13    1    4    4    0    0 -0.59979493377E+01  0.83443299827E+02 -0.12280695549E+03  0.14859444135E+03  0.00000000000E+00 0.  1.
         14    1    4    4    0    0  0.59585694149E+02  0.62069708533E+02 -0.95945551375E+02  0.12887456108E+03  0.00000000000E+00 0. -1.
         -5    1    5    5    0  502  0.17434561896E+02 -0.78566229186E+01 -0.32570549580E+02  0.38060756327E+02  0.47000000000E+01 0.  1.
         11    1    6    6    0    0 -0.11217000305E+03 -0.72115524978E+02  0.68922851220E+02  0.15011035257E+03  0.00000000000E+00 0. -1.
        -12    1    6    6    0    0  0.82216448900E+01 -0.35904483393E+02  0.25300750440E+02  0.44686187410E+02  0.00000000000E+00 0.  1.
</event>
<event>
12    1  0.8407180E-002  0.2206822E+03  0.7818608E-02  0.1133799E+00
         21   -1    0    0  501  502  0.00000000000E+00  0.00000000000E+00  0.48685806091E+03  0.48685806091E+03  0.00000000000E+00 0. -1.
         21   -1    0    0  502  503 -0.00000000000E+00 -0.00000000000E+00 -0.10160025587E+03  0.10160025587E+03  0.00000000000E+00 0.  1.
         -6    2    1    2    0  503  0.13372421182E+03 -0.20631826454E+02  0.23868385566E+03  0.32353466973E+03  0.17145513254E+03 0.  0.
        -24    2    3    3    0    0  0.67880511146E+02  0.36768896622E+02  0.19837668809E+03  0.22721751816E+03  0.79465556253E+02 0.  0.
          6    2    1    2  501    0 -0.13372421182E+03  0.20631826454E+02  0.14657394938E+03  0.26492364705E+03  0.17433524899E+03 0.  0.
         24    2    5    5    0    0 -0.74455363456E+01 -0.18647634323E+02  0.83387444009E+02  0.11828189181E+03  0.81449185597E+02 0.  0.
          5    1    5    5  501    0 -0.12627867548E+03  0.39279460777E+02  0.63186505373E+02  0.14664175524E+03  0.47000000000E+01 0. -1.
        -13    1    6    6    0    0 -0.14339304448E+02 -0.14959191522E+02 -0.11075492576E+02  0.23495948563E+02  0.00000000000E+00 0.  1.
         14    1    6    6    0    0  0.68937681024E+01 -0.36884428007E+01  0.94462936585E+02  0.94785943247E+02  0.00000000000E+00 0. -1.
         -5    1    3    3    0  503  0.65843700676E+02 -0.57400723075E+02  0.40307167569E+02  0.96317151566E+02  0.47000000000E+01 0.  1.
         11    1    4    4    0    0 -0.18241953359E+02  0.83571397911E+01  0.33714961321E+02  0.39234031971E+02  0.00000000000E+00 0. -1.
        -12    1    4    4    0    0  0.86122464505E+02  0.28411756831E+02  0.16466172677E+03  0.18798348619E+03  0.00000000000E+00 0.  1.
</event>
<event>
12    1  0.8407180E-002  0.2259790E+03  0.7818608E-02  0.1129619E+00
         21   -1    0    0  503  502  0.00000000000E+00  0.00000000000E+00  0.12432057579E+03  0.12432057579E+03  0.00000000000E+00 0.  1.
         21   -1    0    0  501  503 -0.00000000000E+00 -0.00000000000E+00 -0.62523467867E+03  0.62523467867E+03  0.00000000000E+00 0.  1.
          6    2    1    2  501    0 -0.31173541563E+02 -0.14285423085E+03 -0.47032396404E+03  0.52151523995E+03  0.17144793198E+03 0.  0.
         24    2    3    3    0    0  0.27274601548E+02 -0.64509904558E+02 -0.24186318191E+03  0.27297864733E+03  0.10542348629E+03 0.  0.
         -6    2    1    2    0  502  0.31173541563E+02  0.14285423085E+03 -0.30590138842E+02  0.22804001451E+03  0.17230023406E+03 0.  0.
        -24    2    5    5    0    0 -0.10995140858E+02  0.11644328580E+02  0.13539833257E+02  0.83251269548E+02  0.80566514670E+02 0.  0.
          5    1    3    3  501    0 -0.58448143110E+02 -0.78344326292E+02 -0.22846078214E+03  0.24853659262E+03  0.47000000000E+01 0. -1.
        -13    1    4    4    0    0  0.19546663597E+02 -0.92843375667E+02 -0.20463981622E+03  0.22556466666E+03  0.00000000000E+00 0.  1.
         14    1    4    4    0    0  0.77279379509E+01  0.28333471110E+02 -0.37223365692E+02  0.47413980676E+02  0.00000000000E+00 0. -1.
         -5    1    5    5    0  502  0.42168682421E+02  0.13120990227E+03 -0.44129972098E+02  0.14478874496E+03  0.47000000000E+01 0.  1.
         11    1    6    6    0    0 -0.45419126984E+02  0.14029470689E+02  0.58173836381E+01  0.47891179732E+02  0.00000000000E+00 0. -1.
        -12    1    6    6    0    0  0.34423986125E+02 -0.23851421086E+01  0.77224496187E+01  0.35360089815E+02  0.00000000000E+00 0.  1.
</event>
<event>
12    1  0.8407180E-002  0.1785803E+03  0.7818608E-02  0.1169291E+00
         21   -1    0    0  503  502  0.00000000000E+00  0.00000000000E+00  0.37103213169E+02  0.37103213169E+02  0.00000000000E+00 0.  1.
         21   -1    0    0  501  503 -0.00000000000E+00 -0.00000000000E+00 -0.15387657588E+04  0.15387657588E+04  0.00000000000E+00 0. -1.
          6    2    1    2  501    0 -0.24075521127E+02 -0.45347532905E+02 -0.12756508465E+04  0.12880900615E+04  0.17104062413E+03 0.  0.
         24    2    3    3    0    0 -0.24784240652E+02 -0.85510529541E+02 -0.10571030844E+04  0.10658316919E+04  0.10297550738E+03 0.  0.
         -6    2    1    2    0  502  0.24075521127E+02  0.45347532905E+02 -0.22601169915E+03  0.28777891041E+03  0.17058541458E+03 0.  0.
        -24    2    5    5    0    0 -0.53052211852E+02  0.17145282580E+02 -0.11649500429E+03  0.15081157645E+03  0.77875205752E+02 0.  0.
          5    1    3    3  501    0  0.70871952557E+00  0.40162996636E+02 -0.21854776210E+03  0.22225836969E+03  0.47000000000E+01 0. -1.
        -11    1    4    4    0    0  0.21016763125E+02 -0.41224052429E+02 -0.16241128339E+03  0.16887436692E+03  0.00000000000E+00 0.  1.
         12    1    4    4    0    0 -0.45801003777E+02 -0.44286477112E+02 -0.89469180098E+03  0.89695732493E+03  0.00000000000E+00 0. -1.
         -5    1    5    5    0  502  0.77127732979E+02  0.28202250324E+02 -0.10951669486E+03  0.13696733396E+03  0.47000000000E+01 0.  1.
         11    1    6    6    0    0 -0.43575480520E+01  0.29292862293E+01 -0.95930930013E+02  0.96074514186E+02  0.00000000000E+00 0. -1.
        -12    1    6    6    0    0 -0.48694663800E+02  0.14215996351E+02 -0.20564074275E+02  0.54737062267E+02  0.00000000000E+00 0.  1.
</event>
<event>
12    1  0.8407180E-002  0.1894216E+03  0.7818608E-02  0.1159190E+00
         21   -1    0    0  503  502  0.00000000000E+00  0.00000000000E+00  0.13079260035E+03  0.13079260035E+03  0.00000000000E+00 0.  1.
         21   -1    0    0  501  503 -0.00000000000E+00 -0.00000000000E+00 -0.35261469994E+03  0.35261469994E+03  0.00000000000E+00 0.  1.
          6    2    1    2  501    0 -0.60433105818E+02  0.50558770249E+02 -0.22595088119E+03  0.29484629939E+03  0.17225617558E+03 0.  0.
         24    2    3    3    0    0  0.25388061898E+02  0.56334960884E+02 -0.14831701451E+03  0.17888188907E+03  0.78629586911E+02 0.  0.
         -6    2    1    2    0  502  0.60433105818E+02 -0.50558770249E+02  0.41287816002E+01  0.18856100090E+03  0.17125961198E+03 0.  0.
        -24    2    5    5    0    0  0.55723457209E+02 -0.90305134052E+02 -0.28644091828E+02  0.13661771011E+03  0.81140580475E+02 0.  0.
          5    1    3    3  501    0 -0.85821167715E+02 -0.57761906353E+01 -0.77633866680E+02  0.11596441032E+03  0.47000000000E+01 0. -1.
        -11    1    4    4    0    0  0.13555831223E+02  0.72397619736E+02 -0.84882855807E+02  0.11238449677E+03  0.00000000000E+00 0.  1.
         12    1    4    4    0    0  0.11832230675E+02 -0.16062658853E+02 -0.63434158703E+02  0.66497392298E+02  0.00000000000E+00 0. -1.
         -5    1    5    5    0  502  0.47096486080E+01  0.39746363803E+02  0.32772873428E+02  0.51943290793E+02  0.47000000000E+01 0.  1.
         13    1    6    6    0    0  0.36826729682E+02 -0.23698720900E+02 -0.47753545945E+02  0.64793815613E+02  0.00000000000E+00 0. -1.
        -14    1    6    6    0    0  0.18896727528E+02 -0.66606413152E+02  0.19109454117E+02  0.71823894498E+02  0.00000000000E+00 0.  1.
</event>
<event>
12    1  0.8407180E-002  0.2007760E+03  0.7818608E-02  0.1149240E+00
         21   -1    0    0  503  502  0.00000000000E+00  0.00000000000E+00  0.42876636597E+02  0.42876636597E+02  0.00000000000E+00 0. -1.
         21   -1    0    0  501  503 -0.00000000000E+00 -0.00000000000E+00 -0.13169536706E+04  0.13169536706E+04  0.00000000000E+00 0.  1.
          6    2    1    2  501    0 -0.90003338508E+02  0.51202081129E+02 -0.27253459397E+03  0.33850569066E+03  0.17201378910E+03 0.  0.
         24    2    3    3    0    0 -0.36617649070E+02  0.21887360460E+02 -0.41445431605E+02  0.99479174032E+02  0.79740036957E+02 0.  0.
         -6    2    1    2    0  502  0.90003338508E+02 -0.51202081129E+02 -0.10015424400E+04  0.10213246165E+04  0.17115624184E+03 0.  0.
        -24    2    5    5    0    0  0.82022171709E+01 -0.77415795995E+02 -0.48125210369E+03  0.49397017560E+03  0.79639595898E+02 0.  0.
          5    1    3    3  501    0 -0.53385689438E+02  0.29314720670E+02 -0.23108916237E+03  0.23902651662E+03  0.47000000000E+01 0. -1.
        -11    1    4    4    0    0  0.30494044984E+01 -0.10070377655E+02 -0.47069068167E+02  0.48230784278E+02  0.00000000000E+00 0.  1.
         12    1    4    4    0    0 -0.39667053568E+02  0.31957738115E+02  0.56236365621E+01  0.51248389754E+02  0.00000000000E+00 0. -1.
         -5    1    5    5    0  502  0.81801121337E+02  0.26213714866E+02 -0.52029033630E+03  0.52735444091E+03  0.47000000000E+01 0.  1.
         11    1    6    6    0    0  0.30961387228E+02 -0.19683471320E+02 -0.80814804467E+02  0.88752910732E+02  0.00000000000E+00 0. -1.
        -12    1    6    6    0    0 -0.22759170057E+02 -0.57732324675E+02 -0.40043729922E+03  0.40521726486E+03  0.00000000000E+00 0.  1.
</event>
<event>
12    1  0.8407180E-002  0.2235287E+03  0.7818608E-02  0.1131456E+00
         21   -1    0    0  501  502  0.00000000000E+00  0.00000000000E+00  0.17772269331E+02  0.17772269331E+02  0.00000000000E+00 0.  1.
         21   -1    0    0  502  503 -0.00000000000E+00 -0.00000000000E+00 -0.34990430031E+04  0.34990430031E+04  0.00000000000E+00 0. -1.
         -6    2    1    2    0  503  0.13844004368E+03 -0.28244777022E+02 -0.25239845044E+04  0.25337781419E+04  0.17196069533E+03 0.  0.
        -24    2    3    3    0    0  0.11534692753E+03 -0.39067357206E+02 -0.24646237878E+04  0.24690000211E+04  0.82216280768E+02 0.  0.
          6    2    1    2  501    0 -0.13844004368E+03  0.28244777022E+02 -0.95728622931E+03  0.98303713049E+03  0.17320987835E+03 0.  0.
         24    2    5    5    0    0 -0.14799883983E+03  0.37041381350E+02 -0.95192681137E+03  0.96821943187E+03  0.89490186757E+02 0.  0.
          5    1    5    5  501    0  0.95587961477E+01 -0.87966043283E+01 -0.53594179420E+01  0.14817698613E+02  0.47000000000E+01 0. -1.
        -13    1    6    6    0    0 -0.13109979528E+03  0.50139080133E+02 -0.62377445970E+03  0.63937130077E+03  0.00000000000E+00 0.  1.
         14    1    6    6    0    0 -0.16899044551E+02 -0.13097698783E+02 -0.32815235167E+03  0.32884813110E+03  0.00000000000E+00 0. -1.
         -5    1    3    3    0  503  0.23093116153E+02  0.10822580184E+02 -0.59360716674E+02  0.64778120840E+02  0.47000000000E+01 0.  1.
         13    1    4    4    0    0  0.89001824027E+02 -0.58183024277E+01 -0.10632845584E+04  0.10670188515E+04  0.00000000000E+00 0. -1.
        -14    1    4    4    0    0  0.26345103504E+02 -0.33249054778E+02 -0.14013392294E+04  0.14019811696E+04  0.00000000000E+00 0.  1.
</event>
<event>
12    1  0.8407180E-002  0.2128589E+03  0.7818608E-02  0.1139361E+00
         21   -1    0    0  501  502  0.00000000000E+00  0.00000000000E+00  0.87918031968E+02  0.87918031968E+02  0.00000000000E+00 0.  1.
         21   -1    0    0  502  503 -0.00000000000E+00 -0.00000000000E+00 -0.52590020668E+03  0.52590020668E+03  0.00000000000E+00 0. -1.
         -6    2    1    2    0  503  0.76636523279E+02 -0.10027529124E+03 -0.17443220979E+03  0.27504469335E+03  0.17115693616E+03 0.  0.
        -24    2    3    3    0    0  0.37025871732E+02 -0.13004968343E+03 -0.10425390804E+03  0.18900631713E+03  0.81059701674E+02 0.  0.
          6    2    1    2  501    0 -0.76636523279E+02  0.10027529124E+03 -0.26354996492E+03  0.33877354529E+03  0.17140781851E+03 0.  0.
         24    2    5    5    0    0  0.26215015304E+02  0.38406672472E+02 -0.12927973842E+03  0.15861597897E+03  0.79268395354E+02 0.  0.
          5    1    5    5  501    0 -0.10285153858E+03  0.61868618769E+02 -0.13427022651E+03  0.18015756632E+03  0.47000000000E+01 0. -1.
        -13    1    6    6    0    0  0.50082425818E+02  0.22874256163E+02 -0.49988142421E+02  0.74365955608E+02  0.00000000000E+00 0.  1.
         14    1    6    6    0    0 -0.23867410514E+02  0.15532416309E+02 -0.79291595995E+02  0.84250023362E+02  0.00000000000E+00 0. -1.
         -5    1    3    3    0  503  0.39610651548E+02  0.29774392192E+02 -0.70178301748E+02  0.86038376221E+02  0.47000000000E+01 0.  1.
         11    1    4    4    0    0  0.44169782461E+02 -0.69220630546E+02 -0.97373850458E+02  0.12737398529E+03  0.00000000000E+00 0. -1.
        -12    1    4    4    0    0 -0.71439107290E+01 -0.60829052888E+02 -0.68800575797E+01  0.61632331840E+02  0.00000000000E+00 0.  1.
</event>
<event>
12    1  0.8407180E-002  0.2039091E+03  0.7818608E-02  0.1146619E+00
         21   -1    0    0  503  502  0.00000000000E+00  0.00000000000E+00  0.10278216542E+04  0.10278216542E+04  0.00000000000E+00 0.  1.
         21   -1    0    0  501  503 -0.00000000000E+00 -0.00000000000E+00 -0.17135109335E+03  0.17135109335E+03  0.00000000000E+00 0.  1.
          6    2    1    2  501    0  0.83546672130E+02  0.64527748296E+02 -0.95915792161E+02  0.22534147255E+03  0.17445647980E+03 0.  0.
         24    2    3    3    0    0  0.20171244021E+02  0.59907803020E+02 -0.11992340408E+03  0.15725150110E+03  0.79690575374E+02 0.  0.
         -6    2    1    2    0  502 -0.83546672130E+02 -0.64527748296E+02  0.95238635306E+03  0.97383127504E+03  0.17367702793E+03 0.  0.
        -24    2    5    5    0    0  0.10125458614E+02 -0.75211360413E+02  0.49103777368E+03  0.50292448029E+03  0.77818147295E+02 0.  0.
          5    1    3    3  501    0  0.63375428109E+02  0.46199452762E+01  0.24007611922E+02  0.68089971453E+02  0.47000000000E+01 0. -1.
        -11    1    4    4    0    0 -0.26661358304E+02  0.25963266700E+01 -0.23043893727E+02  0.35335392695E+02  0.00000000000E+00 0.  1.
         12    1    4    4    0    0  0.46832602325E+02  0.57311476350E+02 -0.96879510357E+02  0.12191610841E+03  0.00000000000E+00 0. -1.
         -5    1    5    5    0  502 -0.93672130743E+02  0.10683612117E+02  0.46134857939E+03  0.47090679476E+03  0.47000000000E+01 0.  1.
         13    1    6    6    0    0  0.36378168859E+01 -0.69388886936E+02  0.19945846627E+03  0.21121489320E+03  0.00000000000E+00 0. -1.
        -14    1    6    6    0    0  0.64876417277E+01 -0.58224734769E+01  0.29157930740E+03  0.29170958709E+03  0.00000000000E+00 0.  1.
</event>
<event>
12    1  0.8407180E-002  0.1951663E+03  0.7818608E-02  0.1154357E+00
         21   -1    0    0  503  502  0.00000000000E+00  0.00000000000E+00  0.81594695252E+02  0.81594695252E+02  0.00000000000E+00 0. -1.
         21   -1    0    0  501  503 -0.00000000000E+00 -0.00000000000E+00 -0.16756553261E+04  0.16756553261E+04  0.00000000000E+00 0. -1.
          6    2    1    2  501    0  0.84722484456E+02  0.24794046247E+02 -0.15436636436E+04  0.15556818019E+04  0.17162686293E+03 0.  0.
         24    2    3    3    0    0  0.81314832178E+01  0.49363220257E+02 -0.11640605676E+04  0.11676219984E+04  0.76166118278E+02 0.  0.
         -6    2    1    2    0  502 -0.84722484456E+02 -0.24794046247E+02 -0.50396987215E+02  0.20156821942E+03  0.17406104291E+03 0.  0.
        -24    2    5    5    0    0 -0.37211933377E+02 -0.14560968941E+02  0.40492548979E+02  0.98393774310E+02  0.80280374301E+02 0.  0.
          5    1    3    3  501    0  0.76591001238E+02 -0.24569174010E+02 -0.37960307607E+03  0.38805980357E+03  0.47000000000E+01 0. -1.
        -13    1    4    4    0    0 -0.36445532660E+01  0.10122172021E+01 -0.81729778678E+03  0.81730653958E+03  0.00000000000E+00 0.  1.
         14    1    4    4    0    0  0.11776036484E+02  0.48351003055E+02 -0.34676278079E+03  0.35031545880E+03  0.00000000000E+00 0. -1.
         -5    1    5    5    0  502 -0.47510551078E+02 -0.10233077306E+02 -0.90889536193E+02  0.10317444511E+03  0.47000000000E+01 0.  1.
         11    1    6    6    0    0 -0.16853493788E+02  0.16303314279E+02 -0.17748035028E+02  0.29408010078E+02  0.00000000000E+00 0. -1.
        -12    1    6    6    0    0 -0.20358439589E+02 -0.30864283220E+02  0.58240584007E+02  0.68985764232E+02  0.00000000000E+00 0.  1.
</event>
<event>
12    1  0.8407180E-002  0.2150925E+03  0.7818608E-02  0.1137713E+00
         21   -1    0    0  503  502  0.00000000000E+00  0.00000000000E+00  0.19443014767E+03  0.19443014767E+03  0.00000000000E+00 0.  1.
         21   -1    0    0  501  503 -0.00000000000E+00 -0.00000000000E+00 -0.25110508701E+03  0.25110508701E+03  0.00000000000E+00 0.  1.
          6    2    1    2  501    0 -0.73496787112E+02  0.10696301289E+03  0.23901300605E+02  0.21641642571E+03  0.17152822889E+03 0.  0.
         24    2    3    3    0    0 -0.11555537634E+03  0.65394888579E+02  0.15331018394E+02  0.15648001254E+03  0.81372094390E+02 0.  0.
         -6    2    1    2    0  502  0.73496787112E+02 -0.10696301289E+03 -0.80576239942E+02  0.22911880897E+03  0.17076309419E+03 0.  0.
        -24    2    5    5    0    0  0.32887043833E+02 -0.72107750291E+02 -0.11914710945E+03  0.16298377623E+03  0.78016615667E+02 0.  0.
          5    1    3    3  501    0  0.42058589231E+02  0.41568124309E+02  0.85702822110E+01  0.59936413171E+02  0.47000000000E+01 0. -1.
        -13    1    4    4    0    0 -0.11257028485E+03  0.55759003135E+02 -0.13107874142E+02  0.12630499525E+03  0.00000000000E+00 0.  1.
         14    1    4    4    0    0 -0.29850914939E+01  0.96358854434E+01  0.28438892536E+02  0.30175017286E+02  0.00000000000E+00 0. -1.
         -5    1    5    5    0  502  0.40609743279E+02 -0.34855262596E+02  0.38570869511E+02  0.66135032734E+02  0.47000000000E+01 0.  1.
         13    1    6    6    0    0 -0.12733161659E+02 -0.56199501230E+02 -0.89030049807E+02  0.10605124758E+03  0.00000000000E+00 0. -1.
        -14    1    6    6    0    0  0.45620205492E+02 -0.15908249062E+02 -0.30117059646E+02  0.56932528655E+02  0.00000000000E+00 0.  1.
</event>
<event>
12    1  0.8407180E-002  0.3504677E+03  0.7818608E-02  0.1062494E+00
         21   -1    0    0  503  502  0.00000000000E+00  0.00000000000E+00  0.27255170283E+03  0.27255170283E+03  0.00000000000E+00 0. -1.
         21   -1    0    0  501  503 -0.00000000000E+00 -0.00000000000E+00 -0.15452659845E+04  0.15452659845E+04  0.00000000000E+00 0.  1.
          6    2    1    2  501    0 -0.10323601614E+03 -0.28717004665E+03 -0.14018250040E+04  0.14449709147E+04  0.17234642924E+03 0.  0.
         24    2    3    3    0    0 -0.50872044329E+02 -0.24268389537E+03 -0.12671991457E+04  0.12937518189E+04  0.80725808090E+02 0.  0.
         -6    2    1    2    0  502  0.10323601614E+03  0.28717004665E+03  0.12911072228E+03  0.37284677271E+03  0.17094100325E+03 0.  0.
        -24    2    5    5    0    0  0.77526363972E+02  0.24391884030E+03  0.40239642683E+02  0.27061266953E+03  0.78136101132E+02 0.  0.
          5    1    3    3  501    0 -0.52363971811E+02 -0.44486151274E+02 -0.13462585828E+03  0.15121909574E+03  0.47000000000E+01 0. -1.
        -13    1    4    4    0    0 -0.17320566957E+02 -0.17038386531E+02 -0.52938836259E+02  0.58247996015E+02  0.00000000000E+00 0.  1.
         14    1    4    4    0    0 -0.33551477371E+02 -0.22564550884E+03 -0.12142603095E+04  0.12355038229E+04  0.00000000000E+00 0. -1.
         -5    1    5    5    0  502  0.25709652168E+02  0.43251206344E+02  0.88871079594E+02  0.10223410318E+03  0.47000000000E+01 0.  1.
         11    1    6    6    0    0  0.70851274989E+02  0.10378258637E+03  0.33996504680E+02  0.13017868770E+03  0.00000000000E+00 0. -1.
        -12    1    6    6    0    0  0.66750889825E+01  0.14013625394E+03  0.62431380034E+01  0.14043398183E+03  0.00000000000E+00 0.  1.
</event>
<event>
12    1  0.8407180E-002  0.2450507E+03  0.7818608E-02  0.1117449E+00
         21   -1    0    0  503  502  0.00000000000E+00  0.00000000000E+00  0.16935248503E+04  0.16935248503E+04  0.00000000000E+00 0. -1.
         21   -1    0    0  501  503 -0.00000000000E+00 -0.00000000000E+00 -0.38269965444E+02  0.38269965444E+02  0.00000000000E+00 0.  1.
          6    2    1    2  501    0  0.63821862896E+02 -0.16167151504E+03  0.56883138210E+03  0.61936983188E+03  0.17273951032E+03 0.  0.
         24    2    3    3    0    0  0.63016767545E+02 -0.16523782273E+03  0.57708342880E+03  0.60919373225E+03  0.82565541052E+02 0.  0.
         -6    2    1    2    0  502 -0.63821862896E+02  0.16167151504E+03  0.10864235028E+04  0.11124249839E+04  0.16420233987E+03 0.  0.
        -24    2    5    5    0    0 -0.86592493734E+02  0.10105352296E+03  0.53620949486E+03  0.55839376896E+03  0.81073450446E+02 0.  0.
          5    1    3    3  501    0  0.80509535124E+00  0.35663076832E+01 -0.82520466985E+01  0.10176099632E+02  0.47000000000E+01 0. -1.
        -13    1    4    4    0    0  0.36033390289E+02 -0.11880359283E+03  0.26646162650E+03  0.29396342848E+03  0.00000000000E+00 0.  1.
         14    1    4    4    0    0  0.26983377256E+02 -0.46434229895E+02  0.31062180229E+03  0.31523030377E+03  0.00000000000E+00 0. -1.
         -5    1    5    5    0  502  0.22770630838E+02  0.60617992083E+02  0.55021400794E+03  0.55403121494E+03  0.47000000000E+01 0. -1.
         13    1    6    6    0    0 -0.56350711994E+02  0.71759684231E+01  0.17717518537E+03  0.18605897876E+03  0.00000000000E+00 0. -1.
        -14    1    6    6    0    0 -0.30241781740E+02  0.93877554538E+02  0.35903430948E+03  0.37233479020E+03  0.00000000000E+00 0.  1.
</event>
<event>
12    1  0.8407180E-002  0.2454840E+03  0.7818608E-02  0.1116205E+00
         21   -1    0    0  503  502  0.00000000000E+00  0.00000000000E+00  0.42603695629E+03  0.42603695629E+03  0.00000000000E+00 0.  1.
         21   -1    0    0  501  503 -0.00000000000E+00 -0.00000000000E+00 -0.17075127773E+03  0.17075127773E+03  0.00000000000E+00 0. -1.
          6    2    1    2  501    0  0.14659318366E+03  0.99118443772E+02  0.39210516763E+01  0.24543857363E+03  0.17003144235E+03 0.  0.
         24    2    3    3    0    0  0.73487635870E+02  0.11739907976E+03  0.35870004364E+02  0.16345425594E+03  0.79042140772E+02 0.  0.
         -6    2    1    2    0  502 -0.14659318366E+03 -0.99118443772E+02  0.25136462689E+03  0.35134966038E+03  0.17014223700E+03 0.  0.
        -24    2    5    5    0    0 -0.70723133329E+02  0.15489445304E+02  0.10011764445E+03  0.14692614786E+03  0.79511418629E+02 0.  0.
          5    1    3    3  501    0  0.73105547786E+02 -0.18280635986E+02 -0.31948952688E+02  0.81984317689E+02  0.47000000000E+01 0. -1.
        -13    1    4    4    0    0  0.26421216537E+02  0.89507161406E+02  0.51451341106E+02  0.10656853723E+03  0.00000000000E+00 0.  1.
         14    1    4    4    0    0  0.47066419333E+02  0.27891918352E+02 -0.15581336741E+02  0.56885718707E+02  0.00000000000E+00 0. -1.
         -5    1    5    5    0  502 -0.75870050327E+02 -0.11460788908E+03  0.15124698244E+03  0.20442351252E+03  0.47000000000E+01 0.  1.
         11    1    6    6    0    0 -0.62234328467E+02  0.34463408910E+02  0.36415139132E+02  0.79918086510E+02  0.00000000000E+00 0. -1.
        -12    1    6    6    0    0 -0.84888048619E+01 -0.18973963606E+02  0.63702505313E+02  0.67008061351E+02  0.00000000000E+00 0.  1.
</event>
<event>
12    1  0.8407180E-002  0.2118992E+03  0.7818608E-02  0.1140288E+00
         21   -1    0    0  503  502  0.00000000000E+00  0.00000000000E+00  0.11322847397E+04  0.11322847397E+04  0.00000000000E+00 0. -1.
         21   -1    0    0  501  503 -0.00000000000E+00 -0.00000000000E+00 -0.40060553504E+02  0.40060553504E+02  0.00000000000E+00 0. -1.
          6    2    1    2  501    0  0.71391159469E+01  0.12248470827E+03  0.61995651704E+03  0.65516972032E+03  0.17276518364E+03 0.  0.
         24    2    3    3    0    0  0.18352740453E+02  0.89501236785E+02  0.20178170897E+03  0.23551996771E+03  0.80040631233E+02 0.  0.
         -6    2    1    2    0  502 -0.71391159469E+01 -0.12248470827E+03  0.47226766918E+03  0.51717557289E+03  0.17140697511E+03 0.  0.
        -24    2    5    5    0    0  0.45975363510E+02 -0.10406846695E+03  0.41123404050E+03  0.43406420362E+03  0.79713969553E+02 0.  0.
          5    1    3    3  501    0 -0.11213624506E+02  0.32983471483E+02  0.41817480807E+03  0.41964975261E+03  0.47000000000E+01 0. -1.
        -11    1    4    4    0    0  0.28617486892E+02  0.11850350520E+01  0.78183672561E+02  0.83264947722E+02  0.00000000000E+00 0.  1.
         12    1    4    4    0    0 -0.10264746439E+02  0.88316201732E+02  0.12359803641E+03  0.15225501999E+03  0.00000000000E+00 0. -1.
         -5    1    5    5    0  502 -0.53114479457E+02 -0.18416241313E+02  0.61033628679E+02  0.83111369270E+02  0.47000000000E+01 0.  1.
         13    1    6    6    0    0  0.30414823172E+02 -0.17194220140E+02  0.43018187961E+02  0.55419014519E+02  0.00000000000E+00 0. -1.
        -14    1    6    6    0    0  0.15560540338E+02 -0.86874246815E+02  0.36821585253E+03  0.37864518911E+03  0.00000000000E+00 0.  1.
</event>
<event>
12    1  0.8407180E-002  0.1951355E+03  0.7818608E-02  0.1154797E+00
         21   -1    0    0  503  502  0.00000000000E+00  0.00000000000E+00  0.26583715582E+03  0.26583715582E+03  0.00000000000E+00 0. -1.
         21   -1    0    0  501  503 -0.00000000000E+00 -0.00000000000E+00 -0.21231855775E+03  0.21231855775E+03  0.00000000000E+00 0. -1.
          6    2    1    2  501    0  0.51878483196E+02  0.66170486987E+02 -0.11266553645E+03  0.22184530335E+03  0.17161557374E+03 0.  0.
         24    2    3    3    0    0  0.45459640222E+02 -0.21615969234E+02 -0.88320606504E+02  0.13039898547E+03  0.81667232488E+02 0.  0.
         -6    2    1    2    0  502 -0.51878483196E+02 -0.66170486987E+02  0.16618413452E+03  0.25631041021E+03  0.17609074209E+03 0.  0.
        -24    2    5    5    0    0  0.20802478390E+02  0.15004344199E+02  0.90295621322E+02  0.12344569770E+03  0.80172736008E+02 0.  0.
          5    1    3    3  501    0  0.64188429736E+01  0.87786456221E+02 -0.24344929949E+02  0.91446317888E+02  0.47000000000E+01 0. -1.
        -11    1    4    4    0    0 -0.16715851802E+01  0.27298726204E+02 -0.18703040411E+02  0.33133342270E+02  0.00000000000E+00 0.  1.
         12    1    4    4    0    0  0.47131225403E+02 -0.48914695437E+02 -0.69617566093E+02  0.97265643196E+02  0.00000000000E+00 0. -1.
         -5    1    5    5    0  502 -0.72680961586E+02 -0.81174831186E+02  0.75888513197E+02  0.13286471251E+03  0.47000000000E+01 0.  1.
         13    1    6    6    0    0  0.44474343640E+01  0.40266178411E+02  0.16486522127E+02  0.43737286245E+02  0.00000000000E+00 0. -1.
        -14    1    6    6    0    0  0.16355044026E+02 -0.25261834212E+02  0.73809099196E+02  0.79708411457E+02  0.00000000000E+00 0.  1.
</event>
<event>
12    1  0.8407180E-002  0.2317334E+03  0.7818608E-02  0.1125652E+00
         21   -1    0    0  501  502  0.00000000000E+00  0.00000000000E+00  0.12807146015E+03  0.12807146015E+03  0.00000000000E+00 0. -1.
         21   -1    0    0  502  503 -0.00000000000E+00 -0.00000000000E+00 -0.41713012628E+03  0.41713012628E+03  0.00000000000E+00 0. -1.
         -6    2    1    2    0  503 -0.76734529759E+02  0.13408195011E+03 -0.13938503629E+03  0.27042294447E+03  0.17272586127E+03 0.  0.
        -24    2    3    3    0    0 -0.10004864166E+03  0.59582265308E+02 -0.13196322161E+03  0.19186771433E+03  0.76414337060E+02 0.  0.
          6    2    1    2  501    0  0.76734529759E+02 -0.13408195011E+03 -0.14967362985E+03  0.27477864196E+03  0.17098230670E+03 0.  0.
         24    2    5    5    0    0 -0.13442685256E+02 -0.31466719402E+02 -0.90122251147E+02  0.12568044484E+03  0.80639282276E+02 0.  0.
          5    1    5    5  501    0  0.90177215015E+02 -0.10261523070E+03 -0.59551378700E+02  0.14909819712E+03  0.47000000000E+01 0. -1.
        -13    1    6    6    0    0  0.10540177958E+02  0.25714630479E+01 -0.82671612560E+02  0.83380473115E+02  0.00000000000E+00 0.  1.
         14    1    6    6    0    0 -0.23982863214E+02 -0.34038182450E+02 -0.74506385875E+01  0.42299971723E+02  0.00000000000E+00 0. -1.
         -5    1    3    3    0  503  0.23314111900E+02  0.74499684798E+02 -0.74218146804E+01  0.78555230137E+02  0.47000000000E+01 0.  1.
         13    1    4    4    0    0 -0.74514518224E+02  0.22621688497E+02 -0.12373073774E+03  0.14619661309E+03  0.00000000000E+00 0. -1.
        -14    1    4    4    0    0 -0.25534123436E+02  0.36960576811E+02 -0.82324838620E+01  0.45671101239E+02  0.00000000000E+00 0.  1.
</event>
<event>
12    1  0.8407180E-002  0.2193042E+03  0.7818608E-02  0.1134862E+00
         21   -1    0    0  503  502  0.00000000000E+00  0.00000000000E+00  0.64209637807E+03  0.64209637807E+03  0.00000000000E+00 0. -1.
         21   -1    0    0  501  503 -0.00000000000E+00 -0.00000000000E+00 -0.14821948881E+03  0.14821948881E+03  0.00000000000E+00 0. -1.
          6    2    1    2  501    0  0.10014553434E+03  0.88259690861E+02 -0.31860417489E+02  0.22160649077E+03  0.17399841800E+03 0.  0.
         24    2    3    3    0    0  0.46709566265E+01  0.63254655443E+02 -0.60793649261E+02  0.11865082707E+03  0.79744477571E+02 0.  0.
         -6    2    1    2    0  502 -0.10014553434E+03 -0.88259690861E+02  0.52573730675E+03  0.56870937611E+03  0.17091441627E+03 0.  0.
        -24    2    5    5    0    0 -0.51753014109E+02 -0.88070097924E+02  0.19003584165E+03  0.22950525522E+03  0.78258063126E+02 0.  0.
          5    1    3    3  501    0  0.95474577717E+02  0.25005035418E+02  0.28933231772E+02  0.10295566370E+03  0.47000000000E+01 0. -1.
        -11    1    4    4    0    0 -0.77567354426E+00  0.22197231788E+02  0.18687053889E+02  0.29026276915E+02  0.00000000000E+00 0.  1.
         12    1    4    4    0    0  0.54466301708E+01  0.41057423654E+02 -0.79480703150E+02  0.89624550155E+02  0.00000000000E+00 0. -1.
         -5    1    5    5    0  502 -0.48392520235E+02 -0.18959293640E+00  0.33570146510E+03  0.33920412089E+03  0.47000000000E+01 0.  1.
         11    1    6    6    0    0  0.81899345631E+01 -0.35924827754E+02  0.11293829857E+03  0.11879700148E+03  0.00000000000E+00 0. -1.
        -12    1    6    6    0    0 -0.59942948672E+02 -0.52145270171E+02  0.77097543077E+02  0.11070825374E+03  0.00000000000E+00 0.  1.
</event>
<event>
12    1  0.8407180E-002  0.1985139E+03  0.7818608E-02  0.1151320E+00
         21   -1    0    0  503  502  0.00000000000E+00  0.00000000000E+00  0.55521906926E+02  0.55521906926E+02  0.00000000000E+00 0.  1.
         21   -1    0    0  501  503 -0.00000000000E+00 -0.00000000000E+00 -0.10006831630E+04  0.10006831630E+04  0.00000000000E+00 0.  1.
          6    2    1    2  501    0 -0.89134337956E+01 -0.98865176390E+02 -0.75866699026E+03  0.78383052838E+03  0.17017909010E+03 0.  0.
         24    2    3    3    0    0  0.85180167920E+01 -0.99612432603E+02 -0.32363514228E+03  0.34842357779E+03  0.81633883321E+02 0.  0.
         -6    2    1    2    0  502  0.89134337956E+01  0.98865176390E+02 -0.18649426576E+03  0.27237454149E+03  0.17191278977E+03 0.  0.
        -24    2    5    5    0    0  0.50160324497E+02  0.11385070043E+03 -0.17270795942E+03  0.22613576809E+03  0.76362989877E+02 0.  0.
          5    1    3    3  501    0 -0.17431450588E+02  0.74725621294E+00 -0.43503184798E+03  0.43540695059E+03  0.47000000000E+01 0. -1.
        -13    1    4    4    0    0  0.23086277284E+02 -0.96996471921E+02 -0.31680103243E+03  0.33212073996E+03  0.00000000000E+00 0.  1.
         14    1    4    4    0    0 -0.14568260492E+02 -0.26159606818E+01 -0.68341098535E+01  0.16302837837E+02  0.00000000000E+00 0. -1.
         -5    1    5    5    0  502 -0.41246890702E+02 -0.14985524036E+02 -0.13786306346E+02  0.46238773403E+02  0.47000000000E+01 0.  1.
         11    1    6    6    0    0  0.51809347076E+02  0.43966333576E+02 -0.12245090686E+03  0.14004096374E+03  0.00000000000E+00 0. -1.
        -12    1    6    6    0    0 -0.16490225792E+01  0.69884366850E+02 -0.50257052554E+02  0.86094804355E+02  0.00000000000E+00 0.  1.
</event>
<event>
12    1  0.8407180E-002  0.1823441E+03  0.7818608E-02  0.1166184E+00
         21   -1    0    0  501  502  0.00000000000E+00  0.00000000000E+00  0.26826809281E+04  0.26826809281E+04  0.00000000000E+00 0. -1.
         21   -1    0    0  502  503 -0.00000000000E+00 -0.00000000000E+00 -0.14342292571E+02  0.14342292571E+02  0.00000000000E+00 0. -1.
         -6    2    1    2    0  503  0.43253292448E+02  0.38638915016E+02  0.80669095607E+03  0.82646676608E+03  0.17009763012E+03 0.  0.
        -24    2    3    3    0    0  0.37425867785E+02  0.86463709863E+02  0.45709749739E+03  0.47353781257E+03  0.80145299955E+02 0.  0.
          6    2    1    2  501    0 -0.43253292448E+02 -0.38638915016E+02  0.18616476795E+04  0.18705564546E+04  0.17287438881E+03 0.  0.
         24    2    5    5    0    0 -0.56293616523E+02 -0.14949985311E+02  0.18043768604E+04  0.18070485641E+04  0.79096050675E+02 0.  0.
          5    1    5    5  501    0  0.13040324076E+02 -0.23688929705E+02  0.57270819056E+02  0.63507890517E+02  0.47000000000E+01 0. -1.
        -13    1    6    6    0    0  0.18077406314E+02  0.63300344590E+01  0.24142962417E+03  0.24218820241E+03  0.00000000000E+00 0.  1.
         14    1    6    6    0    0 -0.74371022837E+02 -0.21280019770E+02  0.15629472363E+04  0.15648603617E+04  0.00000000000E+00 0. -1.
         -5    1    3    3    0  503  0.58274246623E+01 -0.47824794847E+02  0.34959345868E+03  0.35292895352E+03  0.47000000000E+01 0.  1.
         11    1    4    4    0    0 -0.11642810355E+01  0.78161772362E+02  0.36602090008E+03  0.37427518954E+03  0.00000000000E+00 0. -1.
        -12    1    4    4    0    0  0.38590148821E+02  0.83019375010E+01  0.91076597315E+02  0.99262623030E+02  0.00000000000E+00 0.  1.
</event>
<event>
12    1  0.8407180E-002  0.1956768E+03  0.7818608E-02  0.1153925E+00
         21   -1    0    0  501  502  0.00000000000E+00  0.00000000000E+00  0.19947936667E+03  0.19947936667E+03  0.00000000000E+00 0.  1.
         21   -1    0    0  502  503 -0.00000000000E+00 -0.00000000000E+00 -0.47531202221E+03  0.47531202221E+03  0.00000000000E+00 0.  1.
         -6    2    1    2    0  503  0.13783974007E+02 -0.89276664862E+02 -0.39910804904E+03  0.44352045447E+03  0.17106384157E+03 0.  0.
        -24    2    3    3    0    0  0.19864867774E+01  0.14862888534E+02 -0.10070922532E+03  0.12721652580E+03  0.76268242334E+02 0.  0.
          6    2    1    2  501    0 -0.13783974007E+02  0.89276664862E+02  0.12327539351E+03  0.23127093440E+03  0.17357736496E+03 0.  0.
         24    2    5    5    0    0 -0.93784935173E+01  0.19728792626E+02  0.13724111211E+03  0.16004280733E+03  0.79381332334E+02 0.  0.
          5    1    5    5  501    0 -0.44054804899E+01  0.69547872236E+02 -0.13965718607E+02  0.71228127078E+02  0.47000000000E+01 0. -1.
        -13    1    6    6    0    0 -0.31101867733E+02  0.19075866113E+02  0.21648606736E+02  0.42424957490E+02  0.00000000000E+00 0.  1.
         14    1    6    6    0    0  0.21723374215E+02  0.65292651295E+00  0.11559250538E+03  0.11761784984E+03  0.00000000000E+00 0. -1.
         -5    1    3    3    0  503  0.11797487230E+02 -0.10413955340E+03 -0.29839882373E+03  0.31630392867E+03  0.47000000000E+01 0.  1.
         11    1    4    4    0    0 -0.32190031287E+02  0.26308588834E+02 -0.57350536046E+02  0.70833776869E+02  0.00000000000E+00 0. -1.
        -12    1    4    4    0    0  0.34176518064E+02 -0.11445700299E+02 -0.43358689269E+02  0.56382748935E+02  0.00000000000E+00 0.  1.
</event>
<event>
12    1  0.8407180E-002  0.2344892E+03  0.7818608E-02  0.1123546E+00
         21   -1    0    0  503  502  0.00000000000E+00  0.00000000000E+00  0.71561379838E+03  0.71561379838E+03  0.00000000000E+00 0.  1.
         21   -1    0    0  501  503 -0.00000000000E+00 -0.00000000000E+00 -0.77105811698E+02  0.77105811698E+02  0.00000000000E+00 0.  1.
          6    2    1    2  501    0  0.15973479237E+03 -0.38468904248E+00  0.34492705917E+03  0.41708493028E+03  0.17166773442E+03 0.  0.
         24    2    3    3    0    0  0.10522694176E+03  0.65203435764E+02  0.26267514625E+03  0.29850847785E+03  0.69172838450E+02 0.  0.
         -6    2    1    2    0  502 -0.15973479237E+03  0.38468904248E+00  0.29358092752E+03  0.37563467980E+03  0.17145349161E+03 0.  0.
        -24    2    5    5    0    0 -0.22508809109E+02 -0.22409342651E+02  0.63726419110E+02  0.10692345302E+03  0.79766805044E+02 0.  0.
          5    1    3    3  501    0  0.54507850617E+02 -0.65588124806E+02  0.82251912916E+02  0.11857645244E+03  0.47000000000E+01 0. -1.
        -13    1    4    4    0    0  0.14568744736E+02  0.44165300852E+02  0.11381359153E+03  0.12294858982E+03  0.00000000000E+00 0.  1.
         14    1    4    4    0    0  0.90658197020E+02  0.21038134912E+02  0.14886155472E+03  0.17555988802E+03  0.00000000000E+00 0. -1.
         -5    1    5    5    0  502 -0.13722598326E+03  0.22794031694E+02  0.22985450841E+03  0.26871122678E+03  0.47000000000E+01 0.  1.
         13    1    6    6    0    0 -0.30557617838E+02  0.16834519225E+02  0.56220188226E+02  0.66165539442E+02  0.00000000000E+00 0. -1.
        -14    1    6    6    0    0  0.80488087289E+01 -0.39243861877E+02  0.75062308844E+01  0.40757913576E+02  0.00000000000E+00 0.  1.
</event>
<event>
12    1  0.8407180E-002  0.1904469E+03  0.7818608E-02  0.1158191E+00
         21   -1    0    0  503  502  0.00000000000E+00  0.00000000000E+00  0.70221637937E+02  0.70221637937E+02  0.00000000000E+00 0.  1.
         21   -1    0    0  501  503 -0.00000000000E+00 -0.00000000000E+00 -0.54316509133E+03  0.54316509133E+03  0.00000000000E+00 0. -1.
          6    2    1    2  501    0  0.79150878953E+02 -0.29226567341E+01 -0.16687441938E+03  0.25321350574E+03  0.17319527732E+03 0.  0.
         24    2    3    3    0    0  0.40500761812E+02  0.11726105090E+02 -0.80400871528E+01  0.89021992954E+02  0.77990121042E+02 0.  0.
         -6    2    1    2    0  502 -0.79150878953E+02  0.29226567341E+01 -0.30606903402E+03  0.36017322353E+03  0.17254881570E+03 0.  0.
        -24    2    5    5    0    0 -0.83326660059E+02 -0.27978201793E+02 -0.30669790925E+03  0.32863300017E+03  0.78803104071E+02 0.  0.
          5    1    3    3  501    0  0.38650117141E+02 -0.14648761824E+02 -0.15883433222E+03  0.16419151279E+03  0.47000000000E+01 0. -1.
        -11    1    4    4    0    0  0.55399033723E+02  0.66295876317E+01 -0.28940986829E+02  0.62853679990E+02  0.00000000000E+00 0.  1.
         12    1    4    4    0    0 -0.14898271911E+02  0.50965174586E+01  0.20900899676E+02  0.26168312965E+02  0.00000000000E+00 0. -1.
         -5    1    5    5    0  502  0.41757811060E+01  0.30900858527E+02  0.62887522836E+00  0.31540223360E+02  0.47000000000E+01 0.  1.
         13    1    6    6    0    0 -0.25178487332E+02  0.20735187630E+02 -0.16206390904E+03  0.16531368620E+03  0.00000000000E+00 0. -1.
        -14    1    6    6    0    0 -0.58148172726E+02 -0.48713389423E+02 -0.14463400020E+03  0.16331931397E+03  0.00000000000E+00 0.  1.
</event>
<event>
12    1  0.8407180E-002  0.1724159E+03  0.7818608E-02  0.1175547E+00
         21   -1    0    0  501  502  0.00000000000E+00  0.00000000000E+00  0.26742108191E+03  0.26742108191E+03  0.00000000000E+00 0.  1.
         21   -1    0    0  502  503 -0.00000000000E+00 -0.00000000000E+00 -0.12557271266E+03  0.12557271266E+03  0.00000000000E+00 0.  1.
         -6    2    1    2    0  503  0.28094722057E+01 -0.15706395588E+01  0.30991852874E+01  0.17168272918E+03  0.17162457431E+03 0.  0.
        -24    2    3    3    0    0  0.40962560942E+00  0.66739764486E+02  0.69198547886E+01  0.10306233804E+03  0.78227854217E+02 0.  0.
          6    2    1    2  501    0 -0.28094722057E+01  0.15706395588E+01  0.13874918397E+03  0.22131106539E+03  0.17238587985E+03 0.  0.
         24    2    5    5    0    0 -0.58355559025E+02  0.28945917993E+02  0.11325425867E+03  0.15417795250E+03  0.81860103186E+02 0.  0.
          5    1    5    5  501    0  0.55546086820E+02 -0.27375278434E+02  0.25494925296E+02  0.67133112889E+02  0.47000000000E+01 0. -1.
        -11    1    6    6    0    0 -0.39130765303E+02  0.11041701632E+02  0.29247097646E+01  0.40763830725E+02  0.00000000000E+00 0.  1.
         12    1    6    6    0    0 -0.19224793722E+02  0.17904216361E+02  0.11032954891E+03  0.11341412178E+03  0.00000000000E+00 0. -1.
         -5    1    3    3    0  503  0.23998465963E+01 -0.68310404045E+02 -0.38206695012E+01  0.68620391138E+02  0.47000000000E+01 0.  1.
         13    1    4    4    0    0  0.12630383278E+02  0.10285221652E+02 -0.30262390020E+02  0.34367493594E+02  0.00000000000E+00 0. -1.
        -14    1    4    4    0    0 -0.12220757668E+02  0.56454542834E+02  0.37182244809E+02  0.68694844447E+02  0.00000000000E+00 0.  1.
</event>
<event>
12    1  0.8407180E-002  0.2395171E+03  0.7818608E-02  0.1120233E+00
         21   -1    0    0  503  502  0.00000000000E+00  0.00000000000E+00  0.95431898681E+03  0.95431898681E+03  0.00000000000E+00 0. -1.
         21   -1    0    0  501  503 -0.00000000000E+00 -0.00000000000E+00 -0.76649166279E+02  0.76649166279E+02  0.00000000000E+00 0.  1.
          6    2    1    2  501    0 -0.91017624313E+02  0.13947807124E+03  0.19762458600E+03  0.30997580136E+03  0.17114666268E+03 0.  0.
         24    2    3    3    0    0 -0.36767970220E+02  0.15375167192E+03  0.18604073184E+03  0.25250375317E+03  0.64463409841E+02 0.  0.
         -6    2    1    2    0  502  0.91017624313E+02 -0.13947807124E+03  0.68004523454E+03  0.72099235173E+03  0.17213398835E+03 0.  0.
        -24    2    5    5    0    0  0.31877143826E+02 -0.52120362724E+02  0.51663647449E+03  0.52643264745E+03  0.80531987547E+02 0.  0.
          5    1    3    3  501    0 -0.54249654094E+02 -0.14273600681E+02  0.11583854152E+02  0.57472048186E+02  0.47000000000E+01 0. -1.
        -11    1    4    4    0    0 -0.36314500163E+02  0.13576592013E+03  0.18764682917E+03  0.23444073982E+03  0.00000000000E+00 0.  1.
         12    1    4    4    0    0 -0.45347005717E+00  0.17985751793E+02 -0.16060973275E+01  0.18063013349E+02  0.00000000000E+00 0. -1.
         -5    1    5    5    0  502  0.59140480487E+02 -0.87357708518E+02  0.16340876004E+03  0.19455970428E+03  0.47000000000E+01 0.  1.
         13    1    6    6    0    0  0.55532312201E+02 -0.39163496260E+02  0.27395070585E+03  0.28225273493E+03  0.00000000000E+00 0. -1.
        -14    1    6    6    0    0 -0.23655168375E+02 -0.12956866464E+02  0.24268576864E+03  0.24417991253E+03  0.00000000000E+00 0.  1.
</event>
<event>
12    1  0.8407180E-002  0.1917596E+03  0.7818608E-02  0.1157814E+00
         21   -1    0    0  503  502  0.00000000000E+00  0.00000000000E+00  0.65720349609E+02  0.65720349609E+02  0.00000000000E+00 0.  1.
         21   -1    0    0  501  503 -0.00000000000E+00 -0.00000000000E+00 -0.93599244027E+03  0.93599244027E+03  0.00000000000E+00 0.  1.
          6    2    1    2  501    0  0.35204521694E+02  0.63723467673E+02 -0.76055367775E+03  0.78435555803E+03  0.17740266625E+03 0.  0.
         24    2    3    3    0    0  0.65336413225E+02  0.77690625364E+02 -0.72100740477E+03  0.73249989211E+03  0.79998337768E+02 0.  0.
         -6    2    1    2    0  502 -0.35204521694E+02 -0.63723467673E+02 -0.10971841292E+03  0.21735723186E+03  0.17293350580E+03 0.  0.
        -24    2    5    5    0    0  0.71945770153E+01 -0.93520902843E+02 -0.40760419742E+02  0.13096935344E+03  0.81814659546E+02 0.  0.
          5    1    3    3  501    0 -0.30131891530E+02 -0.13967157690E+02 -0.39546272974E+02  0.51855665913E+02  0.47000000000E+01 0. -1.
        -11    1    4    4    0    0  0.25049819421E+02 -0.13962162287E+02 -0.13645445499E+03  0.13943548227E+03  0.00000000000E+00 0.  1.
         12    1    4    4    0    0  0.40286593803E+02  0.91652787651E+02 -0.58455294979E+03  0.59306440985E+03  0.00000000000E+00 0. -1.
         -5    1    5    5    0  502 -0.42399098710E+02  0.29797435169E+02 -0.68957993175E+02  0.86387878413E+02  0.47000000000E+01 0.  1.
         11    1    6    6    0    0  0.22320074101E+02 -0.99885772265E+02 -0.47984840217E+02  0.11303936526E+03  0.00000000000E+00 0. -1.
        -12    1    6    6    0    0 -0.15125497086E+02  0.63648694222E+01  0.72244204746E+01  0.17929988178E+02  0.00000000000E+00 0.  1.
</event>
<event>
12    1  0.8407180E-002  0.1848629E+03  0.7818608E-02  0.1164354E+00
         21   -1    0    0  503  502  0.00000000000E+00  0.00000000000E+00  0.60754006753E+03  0.60754006753E+03  0.00000000000E+00 0. -1.
         21   -1    0    0  501  503 -0.00000000000E+00 -0.00000000000E+00 -0.58906424581E+02  0.58906424581E+02  0.00000000000E+00 0. -1.
          6    2    1    2  501    0 -0.40423184331E+02 -0.51903297224E+02  0.18234865469E+03  0.25615513003E+03  0.16744083337E+03 0.  0.
         24    2    3    3    0    0  0.12379228085E+02 -0.29903669263E+01  0.16253463621E+03  0.18135369398E+03  0.79432151989E+02 0.  0.
         -6    2    1    2    0  502  0.40423184331E+02  0.51903297224E+02  0.36628498826E+03  0.41029136208E+03  0.17276088411E+03 0.  0.
        -24    2    5    5    0    0 -0.82683167262E+01  0.26564741264E+02  0.71693544236E+02  0.11059299107E+03  0.79478266519E+02 0.  0.
          5    1    3    3  501    0 -0.52802412416E+02 -0.48912930298E+02  0.19814018480E+02  0.74801436053E+02  0.47000000000E+01 0. -1.
        -11    1    4    4    0    0  0.93876251131E+01  0.12998107137E+02  0.16421981766E+03  0.16500068729E+03  0.00000000000E+00 0.  1.
         12    1    4    4    0    0  0.29916029720E+01 -0.15988474063E+02 -0.16851814501E+01  0.16353006688E+02  0.00000000000E+00 0. -1.
         -5    1    5    5    0  502  0.48691501057E+02  0.25338555960E+02  0.29459144402E+03  0.29969837101E+03  0.47000000000E+01 0.  1.
         11    1    6    6    0    0  0.66782470570E+01  0.13141745065E+02  0.85147929012E+02  0.86414548904E+02  0.00000000000E+00 0. -1.
        -12    1    6    6    0    0 -0.14946563783E+02  0.13422996198E+02 -0.13454384777E+02  0.24178442166E+02  0.00000000000E+00 0.  1.
</event>
<event>
12    1  0.8407180E-002  0.2169020E+03  0.7818608E-02  0.1138280E+00
         21   -1    0    0  501  502  0.00000000000E+00  0.00000000000E+00  0.13167901185E+04  0.13167901185E+04  0.00000000000E+00 0. -1.
         21   -1    0    0  502  503 -0.00000000000E+00 -0.00000000000E+00 -0.44145215557E+02  0.44145215557E+02  0.00000000000E+00 0.  1.
         -6    2    1    2    0  503  0.14723461187E+02 -0.11446369653E+03  0.29798504076E+03  0.36243228513E+03  0.17100689650E+03 0.  0.
        -24    2    3    3    0    0  0.22373809762E+02 -0.60135599761E+02  0.28861400184E+03  0.30657553708E+03  0.81077988090E+02 0.  0.
          6    2    1    2  501    0 -0.14723461187E+02  0.11446369653E+03  0.97465986220E+03  0.99850304895E+03  0.18365122826E+03 0.  0.
         24    2    5    5    0    0  0.66628358253E+01  0.37955411040E+01  0.19444719810E+03  0.21017652679E+03  0.79408186279E+02 0.  0.
          5    1    5    5  501    0 -0.21386297012E+02  0.11066815543E+03  0.78021266410E+03  0.78832652216E+03  0.47000000000E+01 0. -1.
        -11    1    6    6    0    0 -0.47012129294E+01 -0.35580777783E+02  0.11928155189E+03  0.12456396658E+03  0.00000000000E+00 0.  1.
         12    1    6    6    0    0  0.11364048755E+02  0.39376318887E+02  0.75165646218E+02  0.85612560203E+02  0.00000000000E+00 0. -1.
         -5    1    3    3    0  503 -0.76503485751E+01 -0.54328096770E+02  0.93710389152E+01  0.55856748047E+02  0.47000000000E+01 0.  1.
         11    1    4    4    0    0  0.30281168847E+02 -0.53613290808E+02  0.98344001694E+02  0.11602963762E+03  0.00000000000E+00 0. -1.
        -12    1    4    4    0    0 -0.79073590855E+01 -0.65223089528E+01  0.19027000015E+03  0.19054589945E+03  0.00000000000E+00 0.  1.
</event>
<event>
12    1  0.8407180E-002  0.1780901E+03  0.7818608E-02  0.1169672E+00
         21   -1    0    0  501  502  0.00000000000E+00  0.00000000000E+00  0.16921663064E+03  0.16921663064E+03  0.00000000000E+00 0. -1.
         21   -1    0    0  502  503 -0.00000000000E+00 -0.00000000000E+00 -0.21184361160E+04  0.21184361160E+04  0.00000000000E+00 0. -1.
         -6    2    1    2    0  503 -0.47704347789E+02  0.44656478425E+01 -0.20666662148E+04  0.20743224610E+04  0.17148989007E+03 0.  0.
        -24    2    3    3    0    0  0.34975959107E+02 -0.31479372545E+01 -0.13430855937E+04  0.13459784455E+04  0.80906344068E+02 0.  0.
          6    2    1    2  501    0  0.47704347789E+02 -0.44656478425E+01  0.11744672941E+03  0.21333028558E+03  0.17152384583E+03 0.  0.
         24    2    5    5    0    0  0.59168899545E+02  0.51201401918E+02  0.10821363961E+03  0.15555835188E+03  0.79785129010E+02 0.  0.
          5    1    5    5  501    0 -0.11464551757E+02 -0.55667049761E+02  0.92330897944E+01  0.57771933698E+02  0.47000000000E+01 0. -1.
        -13    1    6    6    0    0  0.53858521046E+02 -0.54387657905E+01  0.43910127204E+02  0.69702365338E+02  0.00000000000E+00 0.  1.
         14    1    6    6    0    0  0.53103784989E+01  0.56640167709E+02  0.64303512408E+02  0.85855986546E+02  0.00000000000E+00 0. -1.
         -5    1    3    3    0  503 -0.82680306895E+02  0.76135850970E+01 -0.72358062104E+03  0.72834401554E+03  0.47000000000E+01 0.  1.
         13    1    4    4    0    0 -0.60833633189E+01 -0.35370220073E+02 -0.51364208974E+03  0.51489441260E+03  0.00000000000E+00 0. -1.
        -14    1    4    4    0    0  0.41059322426E+02  0.32222282818E+02 -0.82944350398E+03  0.83108403291E+03  0.00000000000E+00 0.  1.
</event>
<event>
12    1  0.8407180E-002  0.1737990E+03  0.7818608E-02  0.1176774E+00
         21   -1    0    0  503  502  0.00000000000E+00  0.00000000000E+00  0.34222149660E+03  0.34222149660E+03  0.00000000000E+00 0. -1.
         21   -1    0    0  501  503 -0.00000000000E+00 -0.00000000000E+00 -0.11016090226E+04  0.11016090226E+04  0.00000000000E+00 0. -1.
          6    2    1    2  501    0  0.17277946975E+02  0.13268052709E+02 -0.10729837325E+04  0.10852936483E+04  0.16153527228E+03 0.  0.
         24    2    3    3    0    0 -0.11618169731E+02 -0.49755866719E+02 -0.56115869944E+03  0.56877263766E+03  0.77411880573E+02 0.  0.
         -6    2    1    2    0  502 -0.17277946975E+02 -0.13268052709E+02  0.31359620654E+03  0.35853687084E+03  0.17242835707E+03 0.  0.
        -24    2    5    5    0    0  0.22701804541E+02 -0.13687775600E+02  0.30701452850E+03  0.31774514147E+03  0.77468232793E+02 0.  0.
          5    1    3    3  501    0  0.28896116706E+02  0.63023919428E+02 -0.51182503307E+03  0.51652101067E+03  0.47000000000E+01 0. -1.
        -11    1    4    4    0    0 -0.20585801812E+02 -0.31013913553E+02 -0.93282771008E+02  0.10043561837E+03  0.00000000000E+00 0.  1.
         12    1    4    4    0    0  0.89676320817E+01 -0.18741953166E+02 -0.46787592843E+03  0.46833701930E+03  0.00000000000E+00 0. -1.
         -5    1    5    5    0  502 -0.39979751517E+02  0.41972289068E+00  0.65816780404E+01  0.40791729364E+02  0.47000000000E+01 0.  1.
         13    1    6    6    0    0  0.38141930769E+02 -0.37336295069E+02  0.18840174023E+03  0.19581629537E+03  0.00000000000E+00 0. -1.
        -14    1    6    6    0    0 -0.15440126227E+02  0.23648519469E+02  0.11861278827E+03  0.12192884610E+03  0.00000000000E+00 0.  1.
</event>
<event>
12    1  0.8407180E-002  0.3028149E+03  0.7818608E-02  0.1084168E+00
         21   -1    0    0  503  502  0.00000000000E+00  0.00000000000E+00  0.30158125301E+03  0.30158125301E+03  0.00000000000E+00 0. -1.
         21   -1    0    0  501  503 -0.00000000000E+00 -0.00000000000E+00 -0.31511483214E+03  0.31511483214E+03  0.00000000000E+00 0. -1.
          6    2    1    2  501    0 -0.35871045448E+02  0.24356724924E+03 -0.71084579290E+02  0.31104643908E+03  0.17630976447E+03 0.  0.
         24    2    3    3    0    0 -0.89834436731E+02  0.11318204604E+03 -0.23743549305E+02  0.16213165831E+03  0.69588195291E+02 0.  0.
         -6    2    1    2    0  502  0.35871045448E+02 -0.24356724924E+03  0.57551000169E+02  0.30564964607E+03  0.17174938638E+03 0.  0.
        -24    2    5    5    0    0 -0.23413855934E+02 -0.15147105276E+03  0.84317234608E+02  0.19280049790E+03  0.81061380847E+02 0.  0.
          5    1    3    3  501    0  0.53963391283E+02  0.13038520319E+03 -0.47341029986E+02  0.14891478077E+03  0.47000000000E+01 0. -1.
        -13    1    4    4    0    0  0.18150028998E+01 -0.69710340622E+01 -0.70771034040E+01  0.10098264406E+02  0.00000000000E+00 0.  1.
         14    1    4    4    0    0 -0.91649439631E+02  0.12015308010E+03 -0.16666445901E+02  0.15203339390E+03  0.00000000000E+00 0. -1.
         -5    1    5    5    0  502  0.59284901382E+02 -0.92096196479E+02 -0.26766234439E+02  0.11284914817E+03  0.47000000000E+01 0.  1.
         13    1    6    6    0    0 -0.16233583035E+01 -0.14768284152E+03  0.85493917645E+02  0.17065188814E+03  0.00000000000E+00 0. -1.
        -14    1    6    6    0    0 -0.21790497630E+02 -0.37882112411E+01 -0.11766830372E+01  0.22148609761E+02  0.00000000000E+00 0.  1.
</event>
<event>
12    1  0.8407180E-002  0.2602934E+03  0.7818608E-02  0.1106983E+00
         21   -1    0    0  503  502  0.00000000000E+00  0.00000000000E+00  0.13697184980E+04  0.13697184980E+04  0.00000000000E+00 0.  1.
         21   -1    0    0  501  503 -0.00000000000E+00 -0.00000000000E+00 -0.57191612061E+02  0.57191612061E+02  0.00000000000E+00 0.  1.
          6    2    1    2  501    0 -0.18803632995E+03 -0.48725835394E+02  0.91897280039E+03  0.95512495795E+03  0.17326514084E+03 0.  0.
         24    2    3    3    0    0 -0.18194992092E+03 -0.78107138584E+02  0.64201746184E+03  0.67650935376E+03  0.79195868484E+02 0.  0.
         -6    2    1    2    0  502  0.18803632995E+03  0.48725835394E+02  0.39355408556E+03  0.47178515212E+03  0.17310269520E+03 0.  0.
        -24    2    5    5    0    0  0.28623623629E+02  0.15866818988E+02  0.76321544466E+02  0.11520318255E+03  0.79848151795E+02 0.  0.
          5    1    3    3  501    0 -0.60864090251E+01  0.29381303190E+02  0.27695533855E+03  0.27861560420E+03  0.47000000000E+01 0. -1.
        -11    1    4    4    0    0 -0.74910922646E+02 -0.36476638544E+02  0.40049870444E+03  0.40907383655E+03  0.00000000000E+00 0.  1.
         12    1    4    4    0    0 -0.10703899828E+03 -0.41630500041E+02  0.24151875741E+03  0.26743551721E+03  0.00000000000E+00 0. -1.
         -5    1    5    5    0  502  0.15941270632E+03  0.32859016406E+02  0.31723254109E+03  0.35658196957E+03  0.47000000000E+01 0.  1.
         11    1    6    6    0    0  0.14747925987E+02 -0.23735955027E+02  0.66461125717E+02  0.72097004886E+02  0.00000000000E+00 0. -1.
        -12    1    6    6    0    0  0.13875697642E+02  0.39602774015E+02  0.98604187486E+01  0.43106177662E+02  0.00000000000E+00 0.  1.
</event>
<event>
12    1  0.8407180E-002  0.2896964E+03  0.7818608E-02  0.1090821E+00
         21   -1    0    0  501  502  0.00000000000E+00  0.00000000000E+00  0.12991526985E+03  0.12991526985E+03  0.00000000000E+00 0. -1.
         21   -1    0    0  502  503 -0.00000000000E+00 -0.00000000000E+00 -0.75161370016E+03  0.75161370016E+03  0.00000000000E+00 0.  1.
         -6    2    1    2    0  503 -0.22543867824E+03  0.59358028455E+02 -0.48127821642E+03  0.56174082221E+03  0.17198272167E+03 0.  0.
        -24    2    3    3    0    0 -0.22968004622E+03  0.37033260017E+02 -0.34563232371E+03  0.42412438897E+03  0.79343608148E+02 0.  0.
          6    2    1    2  501    0  0.22543867824E+03 -0.59358028455E+02 -0.14042021389E+03  0.31978814780E+03  0.16793049103E+03 0.  0.
         24    2    5    5    0    0  0.35535201773E+02 -0.50524199754E+00 -0.50620487989E+02  0.10158397365E+03  0.80584515031E+02 0.  0.
          5    1    5    5  501    0  0.18990347647E+03 -0.58852786458E+02 -0.89799725898E+02  0.21820417416E+03  0.47000000000E+01 0. -1.
        -11    1    6    6    0    0  0.19610125388E+02 -0.39803481307E+02 -0.34556221387E+02  0.56240613248E+02  0.00000000000E+00 0.  1.
         12    1    6    6    0    0  0.15925076384E+02  0.39298239310E+02 -0.16064266602E+02  0.45343360398E+02  0.00000000000E+00 0. -1.
         -5    1    3    3    0  503  0.42413679780E+01  0.22324768439E+02 -0.13564589271E+03  0.13761643324E+03  0.47000000000E+01 0.  1.
         11    1    4    4    0    0 -0.12792209825E+03  0.81888942554E+01 -0.25260403745E+03  0.28326651928E+03  0.00000000000E+00 0. -1.
        -12    1    4    4    0    0 -0.10175794797E+03  0.28844365761E+02 -0.93028286260E+02  0.14085786970E+03  0.00000000000E+00 0.  1.
</event>
<event>
12    1  0.8407180E-002  0.1774810E+03  0.7818608E-02  0.1170598E+00
         21   -1    0    0  503  502  0.00000000000E+00  0.00000000000E+00  0.73411660791E+02  0.73411660791E+02  0.00000000000E+00 0. -1.
         21   -1    0    0  501  503 -0.00000000000E+00 -0.00000000000E+00 -0.63822203519E+03  0.63822203519E+03  0.00000000000E+00 0. -1.
          6    2    1    2  501    0 -0.17352732711E+01 -0.38469607743E+02 -0.48695196300E+03  0.51782597340E+03  0.17186798004E+03 0.  0.
         24    2    3    3    0    0 -0.23692915535E+02  0.21250135849E+02 -0.40496336700E+03  0.41393754429E+03  0.79599242717E+02 0.  0.
         -6    2    1    2    0  502  0.17352732711E+01  0.38469607743E+02 -0.77858411398E+02  0.19380772258E+03  0.17325293421E+03 0.  0.
        -24    2    5    5    0    0  0.55804352549E-01  0.18675187674E+02 -0.12251796177E+03  0.14470369911E+03  0.74697682891E+02 0.  0.
          5    1    3    3  501    0  0.21957642264E+02 -0.59719743592E+02 -0.81988596003E+02  0.10388842911E+03  0.47000000000E+01 0. -1.
        -13    1    4    4    0    0 -0.18717348953E+02 -0.36691362958E+01 -0.37115183311E+03  0.37164160818E+03  0.00000000000E+00 0.  1.
         14    1    4    4    0    0 -0.49755665815E+01  0.24919272145E+02 -0.33811533887E+02  0.42295936103E+02  0.00000000000E+00 0. -1.
         -5    1    5    5    0  502  0.16794689186E+01  0.19794420069E+02  0.44659550375E+02  0.49104023475E+02  0.47000000000E+01 0.  1.
         11    1    6    6    0    0  0.14903641861E+02  0.43312427191E+02 -0.91962156639E+02  0.10273812897E+03  0.00000000000E+00 0. -1.
        -12    1    6    6    0    0 -0.14847837509E+02 -0.24637239518E+02 -0.30555805134E+02  0.41965570139E+02  0.00000000000E+00 0.  1.
</event>
<event>
12    1  0.8407180E-002  0.1893988E+03  0.7818608E-02  0.1159507E+00
         21   -1    0    0  503  502  0.00000000000E+00  0.00000000000E+00  0.23926162832E+03  0.23926162832E+03  0.00000000000E+00 0. -1.
         21   -1    0    0  501  503 -0.00000000000E+00 -0.00000000000E+00 -0.28313846383E+03  0.28313846383E+03  0.00000000000E+00 0. -1.
          6    2    1    2  501    0 -0.71462761286E+01  0.73784073889E+02 -0.20233225057E+03  0.27714663028E+03  0.17428928893E+03 0.  0.
         24    2    3    3    0    0 -0.56004182534E+02  0.21752027114E+02 -0.53635186573E+02  0.11213955240E+03  0.78031575845E+02 0.  0.
         -6    2    1    2    0  502  0.71462761286E+01 -0.73784073889E+02  0.15845541506E+03  0.24525346188E+03  0.17188945045E+03 0.  0.
        -24    2    5    5    0    0  0.97006839832E+01  0.27321241309E+02  0.96785761589E+02  0.12670370051E+03  0.76457769911E+02 0.  0.
          5    1    3    3  501    0  0.48857906405E+02  0.52032046775E+02 -0.14869706400E+03  0.16500707788E+03  0.47000000000E+01 0. -1.
        -13    1    4    4    0    0 -0.96565264962E+01  0.44972943113E+02 -0.31627244405E+02  0.55822009143E+02  0.00000000000E+00 0.  1.
         14    1    4    4    0    0 -0.46347656038E+02 -0.23220915998E+02 -0.22007942168E+02  0.56317543257E+02  0.00000000000E+00 0. -1.
         -5    1    5    5    0  502 -0.25544078545E+01 -0.10110531520E+03  0.61669653473E+02  0.11854976137E+03  0.47000000000E+01 0.  1.
         13    1    6    6    0    0 -0.29036220973E+02  0.63169528302E+01  0.67619085993E+02  0.73860319604E+02  0.00000000000E+00 0. -1.
        -14    1    6    6    0    0  0.38736904956E+02  0.21004288479E+02  0.29166675596E+02  0.52843380904E+02  0.00000000000E+00 0.  1.
</event>
<event>
12    1  0.8407180E-002  0.1746279E+03  0.7818608E-02  0.1173909E+00
         21   -1    0    0  501  502  0.00000000000E+00  0.00000000000E+00  0.44768940973E+03  0.44768940973E+03  0.00000000000E+00 0.  1.
         21   -1    0    0  502  503 -0.00000000000E+00 -0.00000000000E+00 -0.15347840912E+03  0.15347840912E+03  0.00000000000E+00 0.  1.
         -6    2    1    2    0  503  0.17635802116E+02  0.18236826969E+02 -0.79249187890E+02  0.18889675606E+03  0.16958168325E+03 0.  0.
        -24    2    3    3    0    0  0.74767144362E+02  0.12657991371E+01 -0.68822288244E+02  0.12821054437E+03  0.78164622473E+02 0.  0.
          6    2    1    2  501    0 -0.17635802116E+02 -0.18236826969E+02  0.37346018850E+03  0.41227106279E+03  0.17277532649E+03 0.  0.
         24    2    5    5    0    0 -0.69294792230E+01 -0.52096849909E+02  0.36217074819E+03  0.37471220277E+03  0.80495245874E+02 0.  0.
          5    1    5    5  501    0 -0.10706322893E+02  0.33860022940E+02  0.11289440313E+02  0.37558860020E+02  0.47000000000E+01 0. -1.
        -13    1    6    6    0    0 -0.34939329206E+02 -0.31330700904E+02  0.29806961277E+03  0.30174138530E+03  0.00000000000E+00 0.  1.
         14    1    6    6    0    0  0.28009849983E+02 -0.20766149006E+02  0.64101135417E+02  0.72970817471E+02  0.00000000000E+00 0. -1.
         -5    1    3    3    0  503 -0.57131342246E+02  0.16971027832E+02 -0.10426899646E+02  0.60686211685E+02  0.47000000000E+01 0.  1.
         13    1    4    4    0    0  0.18970274861E+02 -0.29529718740E+02 -0.95585964896E+00  0.35111099169E+02  0.00000000000E+00 0. -1.
        -14    1    4    4    0    0  0.55796869501E+02  0.30795517877E+02 -0.67866428595E+02  0.93099445206E+02  0.00000000000E+00 0.  1.
</event>
<event>
12    1  0.8407180E-002  0.2515397E+03  0.7818608E-02  0.1112814E+00
         21   -1    0    0  501  502  0.00000000000E+00  0.00000000000E+00  0.80028371783E+03  0.80028371783E+03  0.00000000000E+00 0.  1.
         21   -1    0    0  502  503 -0.00000000000E+00 -0.00000000000E+00 -0.12131918489E+03  0.12131918489E+03  0.00000000000E+00 0.  1.
         -6    2    1    2    0  503 -0.17922545578E+03  0.45154345876E+02  0.61314963251E+03  0.66159555562E+03  0.16611901882E+03 0.  0.
        -24    2    3    3    0    0 -0.11355876695E+03  0.50376604996E+02  0.24539969592E+03  0.28796272532E+03  0.85253296333E+02 0.  0.
          6    2    1    2  501    0  0.17922545578E+03 -0.45154345876E+02  0.65814900428E+02  0.26000734710E+03  0.17062104348E+03 0.  0.
         24    2    5    5    0    0  0.88372817016E+02 -0.53582585958E+02 -0.24256617243E+02  0.13171001472E+03  0.77963428553E+02 0.  0.
          5    1    5    5  501    0  0.90852638768E+02  0.84282400815E+01  0.90071517671E+02  0.12829733239E+03  0.47000000000E+01 0. -1.
        -13    1    6    6    0    0  0.69733092225E+01  0.19014537700E+02 -0.59988244024E+01  0.21122631931E+02  0.00000000000E+00 0.  1.
         14    1    6    6    0    0  0.81399507793E+02 -0.72597123658E+02 -0.18257792840E+02  0.11058738279E+03  0.00000000000E+00 0. -1.
         -5    1    3    3    0  503 -0.65666688837E+02 -0.52222591196E+01  0.36774993659E+03  0.37363283030E+03  0.47000000000E+01 0.  1.
         11    1    4    4    0    0 -0.15659367926E+02  0.34071797771E+02  0.13220380227E+03  0.13741887986E+03  0.00000000000E+00 0. -1.
        -12    1    4    4    0    0 -0.97899399021E+02  0.16304807225E+02  0.11319589365E+03  0.15054384546E+03  0.00000000000E+00 0.  1.
</event>
<event>
12    1  0.8407180E-002  0.2330797E+03  0.7818608E-02  0.1124623E+00
         21   -1    0    0  503  502  0.00000000000E+00  0.00000000000E+00  0.47955974677E+03  0.47955974677E+03  0.00000000000E+00 0. -1.
         21   -1    0    0  501  503 -0.00000000000E+00 -0.00000000000E+00 -0.11311589506E+03  0.11311589506E+03  0.00000000000E+00 0. -1.
          6    2    1    2  501    0  0.10449008350E+03  0.11625417697E+03  0.17033622949E+03  0.28807043064E+03  0.17186311623E+03 0.  0.
         24    2    3    3    0    0  0.12417807443E+03  0.96519360578E+02  0.79546066285E+02  0.19298087443E+03  0.78599364499E+02 0.  0.
         -6    2    1    2    0  502 -0.10449008350E+03 -0.11625417697E+03  0.19610762222E+03  0.30460521120E+03  0.17289570262E+03 0.  0.
        -24    2    5    5    0    0 -0.20311372628E+02 -0.34752453223E+02  0.13297995987E+02  0.87418573072E+02  0.76451849930E+02 0.  0.
          5    1    3    3  501    0 -0.19687990929E+02  0.19734816388E+02  0.90790163203E+02  0.95089556205E+02  0.47000000000E+01 0. -1.
        -13    1    4    4    0    0 -0.59436429387E+01  0.19926768641E+02 -0.28221186338E+01  0.20984931581E+02  0.00000000000E+00 0.  1.
         14    1    4    4    0    0  0.13012171737E+03  0.76592591937E+02  0.82368184919E+02  0.17199594285E+03  0.00000000000E+00 0. -1.
         -5    1    5    5    0  502 -0.84178710873E+02 -0.81501723743E+02  0.18280962623E+03  0.21718663813E+03  0.47000000000E+01 0.  1.
         13    1    6    6    0    0  0.18542505454E+02 -0.35173802740E+02  0.24841314440E+02  0.46884025113E+02  0.00000000000E+00 0. -1.
        -14    1    6    6    0    0 -0.38853878081E+02  0.42134951650E+00 -0.11543318453E+02  0.40534547960E+02  0.00000000000E+00 0.  1.
</event>
<event>
12    1  0.8407180E-002  0.2497811E+03  0.7818608E-02  0.1113553E+00
         21   -1    0    0  501  502  0.00000000000E+00  0.00000000000E+00  0.51806760850E+02  0.51806760850E+02  0.00000000000E+00 0. -1.
         21   -1    0    0  502  503 -0.00000000000E+00 -0.00000000000E+00 -0.15270930111E+04  0.15270930111E+04  0.00000000000E+00 0. -1.
         -6    2    1    2    0  503  0.71268697966E+02  0.16591137695E+03 -0.11016666883E+04  0.11294754920E+04  0.17157966823E+03 0.  0.
        -24    2    3    3    0    0  0.69465866013E+02  0.10176666378E+03 -0.98818655140E+03  0.99902386914E+03  0.79712422721E+02 0.  0.
          6    2    1    2  501    0 -0.71268697966E+02 -0.16591137695E+03 -0.37361956191E+03  0.44942427994E+03  0.17258271652E+03 0.  0.
         24    2    5    5    0    0 -0.46632676077E+02 -0.57199847375E+01 -0.14669780397E+03  0.17052682577E+03  0.73156188483E+02 0.  0.
          5    1    5    5  501    0 -0.24636021889E+02 -0.16019139222E+03 -0.22692175794E+03  0.27889745417E+03  0.47000000000E+01 0. -1.
        -11    1    6    6    0    0 -0.36405845071E+02 -0.64154859324E+01 -0.15371953568E+03  0.15810199134E+03  0.00000000000E+00 0.  1.
         12    1    6    6    0    0 -0.10226831005E+02  0.69550119493E+00  0.70217317125E+01  0.12424834428E+02  0.00000000000E+00 0. -1.
         -5    1    3    3    0  503  0.18028319534E+01  0.64144713172E+02 -0.11348013691E+03  0.13045162285E+03  0.47000000000E+01 0.  1.
         11    1    4    4    0    0  0.39600262658E+02  0.87579824206E+02 -0.89498192316E+03  0.90012835151E+03  0.00000000000E+00 0. -1.
        -12    1    4    4    0    0  0.29865603355E+02  0.14186839577E+02 -0.93204628245E+02  0.98895517629E+02  0.00000000000E+00 0.  1.
</event>
<event>
12    1  0.8407180E-002  0.1935917E+03  0.7818608E-02  0.1155267E+00
         21   -1    0    0  501  502  0.00000000000E+00  0.00000000000E+00  0.14198677863E+03  0.14198677863E+03  0.00000000000E+00 0. -1.
         21   -1    0    0  502  503 -0.00000000000E+00 -0.00000000000E+00 -0.36193719315E+03  0.36193719315E+03  0.00000000000E+00 0. -1.
         -6    2    1    2    0  503  0.87406726433E+02  0.14264859387E+02  0.21143300565E+02  0.19474284659E+03  0.17214620269E+03 0.  0.
        -24    2    3    3    0    0  0.64003472238E+02  0.37407503077E+02 -0.47017568608E+02  0.11890559750E+03  0.80200521280E+02 0.  0.
          6    2    1    2  501    0 -0.87406726433E+02 -0.14264859387E+02 -0.24109371509E+03  0.30918112518E+03  0.17211439997E+03 0.  0.
         24    2    5    5    0    0 -0.48793895091E+02  0.16542184376E+02 -0.24183845716E+03  0.25955583596E+03  0.78923409431E+02 0.  0.
          5    1    5    5  501    0 -0.38612831342E+02 -0.30807043763E+02  0.74474207548E+00  0.49625289223E+02  0.47000000000E+01 0. -1.
        -11    1    6    6    0    0 -0.14654246189E+02  0.19837598063E+02 -0.21390393756E+03  0.21532108984E+03  0.00000000000E+00 0.  1.
         12    1    6    6    0    0 -0.34139648902E+02 -0.32954136869E+01 -0.27934519604E+02  0.44234746117E+02  0.00000000000E+00 0. -1.
         -5    1    3    3    0  503  0.23403254195E+02 -0.23142643690E+02  0.68160869173E+02  0.75837249095E+02  0.47000000000E+01 0.  1.
         11    1    4    4    0    0  0.59799573182E+02 -0.14843097802E+01 -0.28220802344E+01  0.59884524421E+02  0.00000000000E+00 0. -1.
        -12    1    4    4    0    0  0.42038990563E+01  0.38891812857E+02 -0.44195488374E+02  0.59021073077E+02  0.00000000000E+00 0.  1.
</event>
<event>
12    1  0.8407180E-002  0.3165184E+03  0.7818608E-02  0.1077317E+00
         21   -1    0    0  503  502  0.00000000000E+00  0.00000000000E+00  0.46062257849E+03  0.46062257849E+03  0.00000000000E+00 0.  1.
         21   -1    0    0  501  503 -0.00000000000E+00 -0.00000000000E+00 -0.26145115856E+03  0.26145115856E+03  0.00000000000E+00 0. -1.
          6    2    1    2  501    0  0.24318673306E+03  0.10495832220E+03 -0.48925758923E+02  0.32027747115E+03  0.17328557963E+03 0.  0.
         24    2    3    3    0    0  0.48801043866E+02  0.43781991984E+02 -0.51777137839E+02  0.11641830432E+03  0.81079867247E+02 0.  0.
         -6    2    1    2    0  502 -0.24318673306E+03 -0.10495832220E+03  0.24809717885E+03  0.40179626590E+03  0.17242967437E+03 0.  0.
        -24    2    5    5    0    0 -0.84611901852E+02 -0.10481240771E+03  0.10804722661E+03  0.19017850316E+03  0.79679640697E+02 0.  0.
          5    1    3    3  501    0  0.19438568919E+03  0.61176330214E+02  0.28513789165E+01  0.20385916684E+03  0.47000000000E+01 0. -1.
        -13    1    4    4    0    0  0.15850003426E+02  0.39494280973E+02  0.12248276637E+02  0.44283643919E+02  0.00000000000E+00 0.  1.
         14    1    4    4    0    0  0.32951040440E+02  0.42877110106E+01 -0.64025414477E+02  0.72134660398E+02  0.00000000000E+00 0. -1.
         -5    1    5    5    0  502 -0.15857483121E+03 -0.14591448760E+00  0.14004995224E+03  0.21161776274E+03  0.47000000000E+01 0.  1.
         13    1    6    6    0    0 -0.35766056317E+02 -0.32727927483E+02 -0.35730191186E+01  0.48611670280E+02  0.00000000000E+00 0. -1.
        -14    1    6    6    0    0 -0.48845845536E+02 -0.72084480227E+02  0.11162024573E+03  0.14156683288E+03  0.00000000000E+00 0.  1.
</event>
<event>
12    1  0.8407180E-002  0.1766351E+03  0.7818608E-02  0.1171106E+00
         21   -1    0    0  503  502  0.00000000000E+00  0.00000000000E+00  0.39740153075E+03  0.39740153075E+03  0.00000000000E+00 0. -1.
         21   -1    0    0  501  503 -0.00000000000E+00 -0.00000000000E+00 -0.13554775841E+03  0.13554775841E+03  0.00000000000E+00 0. -1.
          6    2    1    2  501    0  0.32858996037E+02 -0.24841580111E+02 -0.41943602851E+02  0.18154678397E+03  0.17176481370E+03 0.  0.
         24    2    3    3    0    0  0.11026300441E+02  0.20323187162E+02  0.38430461471E+02  0.86685817206E+02  0.74181664163E+02 0.  0.
         -6    2    1    2    0  502 -0.32858996037E+02  0.24841580111E+02  0.30379737519E+03  0.35140250520E+03  0.17173834097E+03 0.  0.
        -24    2    5    5    0    0 -0.10680146031E+02 -0.22182224873E+02  0.28355369204E+03  0.29541111005E+03  0.79113279880E+02 0.  0.
          5    1    3    3  501    0  0.21832695596E+02 -0.45164767273E+02 -0.80374064321E+02  0.94860966764E+02  0.47000000000E+01 0. -1.
        -13    1    4    4    0    0 -0.15808081971E+02  0.39522366787E+02  0.11492593949E+02  0.44090731993E+02  0.00000000000E+00 0.  1.
         14    1    4    4    0    0  0.26834382411E+02 -0.19199179625E+02  0.26937867521E+02  0.42595085212E+02  0.00000000000E+00 0. -1.
         -5    1    5    5    0  502 -0.22178850006E+02  0.47023804984E+02  0.20243683158E+02  0.55991395147E+02  0.47000000000E+01 0.  1.
         13    1    6    6    0    0 -0.37216827320E+02  0.95877459683E+01  0.17643796465E+03  0.18057511589E+03  0.00000000000E+00 0. -1.
        -14    1    6    6    0    0  0.26536681290E+02 -0.31769970841E+02  0.10711572738E+03  0.11483599416E+03  0.00000000000E+00 0.  1.
</event>
<event>
12    1  0.8407180E-002  0.1829945E+03  0.7818608E-02  0.1165255E+00
         21   -1    0    0  501  502  0.00000000000E+00  0.00000000000E+00  0.13665922843E+04  0.13665922843E+04  0.00000000000E+00 0.  1.
         21   -1    0    0  502  503 -0.00000000000E+00 -0.00000000000E+00 -0.40947878144E+02  0.40947878144E+02  0.00000000000E+00 0.  1.
         -6    2    1    2    0  503 -0.61435570426E+02  0.69554946951E+01  0.21586448683E+03  0.28299200488E+03  0.17223324281E+03 0.  0.
        -24    2    3    3    0    0 -0.95249555588E+02 -0.23809957948E+02  0.19392305517E+03  0.23206642101E+03  0.81297481501E+02 0.  0.
          6    2    1    2  501    0  0.61435570426E+02 -0.69554946951E+01  0.11097799193E+04  0.11245481575E+04  0.17080509690E+03 0.  0.
         24    2    5    5    0    0  0.26287548535E+02  0.59255047576E+02  0.51813346373E+03  0.52815329024E+03  0.79255383954E+02 0.  0.
          5    1    5    5  501    0  0.35148021890E+02 -0.66210542271E+02  0.59164645557E+03  0.59639486730E+03  0.47000000000E+01 0. -1.
        -11    1    6    6    0    0  0.52126182492E+02  0.47283235371E+02  0.42419304806E+03  0.42999137813E+03  0.00000000000E+00 0.  1.
         12    1    6    6    0    0 -0.25838633957E+02  0.11971812205E+02  0.93940415667E+02  0.98161912104E+02  0.00000000000E+00 0. -1.
         -5    1    3    3    0  503  0.33813985162E+02  0.30765452643E+02  0.21941431665E+02  0.50925583869E+02  0.47000000000E+01 0.  1.
         11    1    4    4    0    0  0.11369515777E+02 -0.13541660114E+02  0.13509506505E+02  0.22251948536E+02  0.00000000000E+00 0. -1.
        -12    1    4    4    0    0 -0.10661907136E+03 -0.10268297834E+02  0.18041354866E+03  0.20981447247E+03  0.00000000000E+00 0.  1.
</event>
<event>
12    1  0.8407180E-002  0.1940984E+03  0.7818608E-02  0.1157390E+00
         21   -1    0    0  501  502  0.00000000000E+00  0.00000000000E+00  0.55861473355E+02  0.55861473355E+02  0.00000000000E+00 0. -1.
         21   -1    0    0  502  503 -0.00000000000E+00 -0.00000000000E+00 -0.82325611353E+03  0.82325611353E+03  0.00000000000E+00 0. -1.
         -6    2    1    2    0  503 -0.55633064272E+02  0.35884283415E+02 -0.58459892321E+03  0.61249341528E+03  0.17032193960E+03 0.  0.
        -24    2    3    3    0    0 -0.16104937167E+02  0.28744761995E+02 -0.13202018507E+03  0.15811136258E+03  0.80524799712E+02 0.  0.
          6    2    1    2  501    0  0.55633064272E+02 -0.35884283415E+02 -0.18279571697E+03  0.26662417160E+03  0.18245946154E+03 0.  0.
         24    2    5    5    0    0  0.46157200206E+02  0.46909831885E+02 -0.65099205197E+02  0.12233551505E+03  0.79981574543E+02 0.  0.
          5    1    5    5  501    0  0.94758640652E+01 -0.82794115301E+02 -0.11769651177E+03  0.14428865656E+03  0.47000000000E+01 0. -1.
        -11    1    6    6    0    0 -0.10757661985E+02  0.34284747046E+02 -0.50947125831E+02  0.62344051857E+02  0.00000000000E+00 0.  1.
         12    1    6    6    0    0  0.56914862192E+02  0.12625084839E+02 -0.14152079366E+02  0.59991463192E+02  0.00000000000E+00 0. -1.
         -5    1    3    3    0  503 -0.39528127104E+02  0.71395214202E+01 -0.45257873814E+03  0.45438205269E+03  0.47000000000E+01 0.  1.
         11    1    4    4    0    0 -0.34170639018E+02  0.23752594516E+02 -0.13298450141E+03  0.13934380479E+03  0.00000000000E+00 0. -1.
        -12    1    4    4    0    0  0.18065701851E+02  0.49921674798E+01  0.96431634338E+00  0.18767557793E+02  0.00000000000E+00 0.  1.
</event>
<event>
12    1  0.8407180E-002  0.2124791E+03  0.7818608E-02  0.1140121E+00
         21   -1    0    0  503  502  0.00000000000E+00  0.00000000000E+00  0.63335418792E+03  0.63335418792E+03  0.00000000000E+00 0.  1.
         21   -1    0    0  501  503 -0.00000000000E+00 -0.00000000000E+00 -0.70658479679E+02  0.70658479679E+02  0.00000000000E+00 0.  1.
          6    2    1    2  501    0  0.56249485940E+02  0.11196324990E+03  0.25944766757E+03  0.33373340026E+03  0.16841946517E+03 0.  0.
         24    2    3    3    0    0 -0.88250257856E+01  0.11778785660E+03  0.18932945435E+03  0.23777886966E+03  0.82105348956E+02 0.  0.
         -6    2    1    2    0  502 -0.56249485940E+02 -0.11196324990E+03  0.30324804067E+03  0.37027926734E+03  0.17160299429E+03 0.  0.
        -24    2    5    5    0    0 -0.89821928595E+02 -0.62234711461E+02  0.27027297829E+03  0.30165360755E+03  0.77500180578E+02 0.  0.
          5    1    3    3  501    0  0.65074511726E+02 -0.58246066965E+01  0.70118213215E+02  0.95954530607E+02  0.47000000000E+01 0. -1.
        -11    1    4    4    0    0 -0.10842736902E+02  0.92539018816E+02  0.72009312423E+02  0.11775557746E+03  0.00000000000E+00 0.  1.
         12    1    4    4    0    0  0.20177111167E+01  0.25248837783E+02  0.11732014193E+03  0.12002329220E+03  0.00000000000E+00 0. -1.
         -5    1    5    5    0  502  0.33572442654E+02 -0.49728538442E+02  0.32975062385E+02  0.68625659783E+02  0.47000000000E+01 0.  1.
         11    1    6    6    0    0 -0.71714734201E+02 -0.36926902768E+02  0.25407440020E+03  0.26657156654E+03  0.00000000000E+00 0. -1.
        -12    1    6    6    0    0 -0.18107194393E+02 -0.25307808694E+02  0.16198578088E+02  0.35082041015E+02  0.00000000000E+00 0.  1.
</event>
<event>
12    1  0.8407180E-002  0.1801684E+03  0.7818608E-02  0.1167953E+00
         21   -1    0    0  501  502  0.00000000000E+00  0.00000000000E+00  0.74861547280E+02  0.74861547280E+02  0.00000000000E+00 0. -1.
         21   -1    0    0  502  503 -0.00000000000E+00 -0.00000000000E+00 -0.44685110851E+03  0.44685110851E+03  0.00000000000E+00 0. -1.
         -6    2    1    2    0  503  0.51553944476E+02  0.69638005010E+01 -0.23652802270E+03  0.29733171291E+03  0.17249445868E+03 0.  0.
        -24    2    3    3    0    0  0.14823670671E+02 -0.32099253422E+02 -0.43072947964E+02  0.96528348561E+02  0.78818398532E+02 0.  0.
          6    2    1    2  501    0 -0.51553944476E+02 -0.69638005010E+01 -0.13546153853E+03  0.22438094287E+03  0.17114518806E+03 0.  0.
         24    2    5    5    0    0 -0.36141280527E+02 -0.36370883885E+02 -0.10635553146E+02  0.95129469419E+02  0.79419566912E+02 0.  0.
          5    1    5    5  501    0 -0.15412663948E+02  0.29407083384E+02 -0.12482598538E+03  0.12925147346E+03  0.47000000000E+01 0. -1.
        -11    1    6    6    0    0  0.48545749143E+01 -0.49596570606E+02  0.30622888382E+01  0.49927590834E+02  0.00000000000E+00 0.  1.
         12    1    6    6    0    0 -0.40995855442E+02  0.13225686721E+02 -0.13697841984E+02  0.45201878586E+02  0.00000000000E+00 0. -1.
         -5    1    3    3    0  503  0.36730273804E+02  0.39063053923E+02 -0.19345507473E+03  0.20080336435E+03  0.47000000000E+01 0.  1.
         13    1    4    4    0    0 -0.53765045603E+01 -0.50444784635E+02 -0.46759482185E+02  0.68992987125E+02  0.00000000000E+00 0. -1.
        -14    1    4    4    0    0  0.20200175232E+02  0.18345531213E+02  0.36865342209E+01  0.27535361436E+02  0.00000000000E+00 0.  1.
</event>
<event>
12    1  0.8407180E-002  0.2131819E+03  0.7818608E-02  0.1139142E+00
         21   -1    0    0  503  502  0.00000000000E+00  0.00000000000E+00  0.18678671349E+04  0.18678671349E+04  0.00000000000E+00 0.  1.
         21   -1    0    0  501  503 -0.00000000000E+00 -0.00000000000E+00 -0.24338591592E+02  0.24338591592E+02  0.00000000000E+00 0. -1.
          6    2    1    2  501    0 -0.12449120986E+03 -0.20770337477E+02  0.96534613561E+03  0.98860492727E+03  0.17180533295E+03 0.  0.
         24    2    3    3    0    0 -0.83490130743E+02 -0.37225878678E+02  0.90775615002E+03  0.91586862433E+03  0.80235535526E+02 0.  0.
         -6    2    1    2    0  502  0.12449120986E+03  0.20770337477E+02  0.87818240767E+03  0.90360079919E+03  0.17134933590E+03 0.  0.
        -24    2    5    5    0    0  0.86178742500E+02  0.58466420617E+02  0.37181623042E+03  0.39436840107E+03  0.80212396537E+02 0.  0.
          5    1    3    3  501    0 -0.41001079115E+02  0.16455541201E+02  0.57589985595E+02  0.72736302942E+02  0.47000000000E+01 0. -1.
        -11    1    4    4    0    0 -0.19456369090E+02  0.25430577735E+02  0.24684818271E+03  0.24891623066E+03  0.00000000000E+00 0.  1.
         12    1    4    4    0    0 -0.64033761653E+02 -0.62656456412E+02  0.66090796731E+03  0.66695239366E+03  0.00000000000E+00 0. -1.
         -5    1    5    5    0  502  0.38312467358E+02 -0.37696083140E+02  0.50636617725E+03  0.50923239812E+03  0.47000000000E+01 0.  1.
         13    1    6    6    0    0  0.53669902576E+02 -0.10408415822E+02  0.13680305522E+03  0.14732233192E+03  0.00000000000E+00 0. -1.
        -14    1    6    6    0    0  0.32508839924E+02  0.68874836439E+02  0.23501317520E+03  0.24704606915E+03  0.00000000000E+00 0.  1.
</event>
<event>
12    1  0.8407180E-002  0.1773356E+03  0.7818608E-02  0.1171767E+00
         21   -1    0    0  501  502  0.00000000000E+00  0.00000000000E+00  0.54332562586E+02  0.54332562586E+02  0.00000000000E+00 0.  1.
         21   -1    0    0  502  503 -0.00000000000E+00 -0.00000000000E+00 -0.56476222280E+03  0.56476222280E+03  0.00000000000E+00 0.  1.
         -6    2    1    2    0  503 -0.76974799934E+01 -0.33982307373E+01 -0.28359625022E+03  0.33447683324E+03  0.17713587910E+03 0.  0.
        -24    2    3    3    0    0 -0.64870770883E+02 -0.16533963333E+01 -0.24138436868E+03  0.26323244692E+03  0.82546696104E+02 0.  0.
          6    2    1    2  501    0  0.76974799934E+01  0.33982307373E+01 -0.22683341000E+03  0.28461795215E+03  0.17170667903E+03 0.  0.
         24    2    5    5    0    0 -0.62118882945E+02  0.99373160504E+01 -0.12886426207E+03  0.16404793881E+03  0.79675732318E+02 0.  0.
          5    1    5    5  501    0  0.69816362938E+02 -0.65390853131E+01 -0.97969147932E+02  0.12057001334E+03  0.47000000000E+01 0. -1.
        -11    1    6    6    0    0 -0.34637269146E+02 -0.13809678937E+02 -0.12136151273E+03  0.12696087752E+03  0.00000000000E+00 0.  1.
         12    1    6    6    0    0 -0.27481613799E+02  0.23746994988E+02 -0.75027493366E+01  0.37087061296E+02  0.00000000000E+00 0. -1.
         -5    1    3    3    0  503  0.57173290889E+02 -0.17448344041E+01 -0.42211881540E+02  0.71244386315E+02  0.47000000000E+01 0.  1.
         11    1    4    4    0    0 -0.44356417598E+02 -0.39610008432E+02 -0.11146844747E+03  0.12633946071E+03  0.00000000000E+00 0. -1.
        -12    1    4    4    0    0 -0.20514353285E+02  0.37956612099E+02 -0.12991592120E+03  0.13689298621E+03  0.00000000000E+00 0.  1.
</event>
<event>
12    1  0.8407180E-002  0.2652487E+03  0.7818608E-02  0.1104228E+00
         21   -1    0    0  503  502  0.00000000000E+00  0.00000000000E+00  0.17566668208E+03  0.17566668208E+03  0.00000000000E+00 0. -1.
         21   -1    0    0  501  503 -0.00000000000E+00 -0.00000000000E+00 -0.40484575612E+03  0.40484575612E+03  0.00000000000E+00 0.  1.
          6    2    1    2  501    0  0.17062628719E+03  0.10660565564E+03 -0.78494534253E+02  0.27661930937E+03  0.17285472142E+03 0.  0.
         24    2    3    3    0    0  0.12181633936E+03  0.10346431726E+03  0.60351132427E+01  0.17884594735E+03  0.80033523055E+02 0.  0.
         -6    2    1    2    0  502 -0.17062628719E+03 -0.10660565564E+03 -0.15068453979E+03  0.30389312882E+03  0.17078380345E+03 0.  0.
        -24    2    5    5    0    0 -0.10004475192E+03 -0.14951737379E+02 -0.13668077997E+03  0.18727242251E+03  0.78465392256E+02 0.  0.
          5    1    3    3  501    0  0.48809947830E+02  0.31413383746E+01 -0.84529647496E+02  0.97773362015E+02  0.47000000000E+01 0. -1.
        -11    1    4    4    0    0  0.22129334512E+02 -0.11859410037E+02 -0.63780594788E+01  0.25904298776E+02  0.00000000000E+00 0.  1.
         12    1    4    4    0    0  0.99687004846E+02  0.11532372730E+03  0.12413172721E+02  0.15294164858E+03  0.00000000000E+00 0. -1.
         -5    1    5    5    0  502 -0.70581535263E+02 -0.91653918257E+02 -0.14003759821E+02  0.11662070631E+03  0.47000000000E+01 0.  1.
         13    1    6    6    0    0 -0.62907660640E+02 -0.11674537209E+02 -0.23585095719E+02  0.68190360949E+02  0.00000000000E+00 0. -1.
        -14    1    6    6    0    0 -0.37137091284E+02 -0.32772001697E+01 -0.11309568425E+03  0.11908206156E+03  0.00000000000E+00 0.  1.
</event>
<event>
12    1  0.8407180E-002  0.2074504E+03  0.7818608E-02  0.1143878E+00
         21   -1    0    0  501  502  0.00000000000E+00  0.00000000000E+00  0.41956888228E+03  0.41956888228E+03  0.00000000000E+00 0. -1.
         21   -1    0    0  502  503 -0.00000000000E+00 -0.00000000000E+00 -0.16302638629E+03  0.16302638629E+03  0.00000000000E+00 0. -1.
         -6    2    1    2    0  503  0.87602466672E+02  0.75932841264E+02 -0.49840717431E+02  0.21335357415E+03  0.17203389765E+03 0.  0.
        -24    2    3    3    0    0  0.96683460418E+02  0.10440812507E+03 -0.69943566893E+02  0.17702836539E+03  0.78728593941E+02 0.  0.
          6    2    1    2  501    0 -0.87602466672E+02 -0.75932841264E+02  0.30638321342E+03  0.36924169442E+03  0.17037830520E+03 0.  0.
         24    2    5    5    0    0 -0.43216418801E+02 -0.10766420516E+03  0.25911363561E+03  0.29689873563E+03  0.86889257858E+02 0.  0.
          5    1    5    5  501    0 -0.44386047870E+02  0.31731363900E+02  0.47269577811E+02  0.72342958793E+02  0.47000000000E+01 0. -1.
        -11    1    6    6    0    0  0.26797203348E+02 -0.34265366928E+02  0.76249447907E+02  0.87784872183E+02  0.00000000000E+00 0.  1.
         12    1    6    6    0    0 -0.70013622150E+02 -0.73398838236E+02  0.18286418770E+03  0.20911386344E+03  0.00000000000E+00 0. -1.
         -5    1    3    3    0  503 -0.90809937464E+01 -0.28475283805E+02  0.20102849462E+02  0.36325208763E+02  0.47000000000E+01 0.  1.
         13    1    4    4    0    0  0.59057922280E+02  0.15402645793E+02 -0.48718210732E+02  0.78093173443E+02  0.00000000000E+00 0. -1.
        -14    1    4    4    0    0  0.37625538139E+02  0.89005479276E+02 -0.21225356161E+02  0.98935191947E+02  0.00000000000E+00 0.  1.
</event>
<event>
12    1  0.8407180E-002  0.2621395E+03  0.7818608E-02  0.1106046E+00
         21   -1    0    0  503  502  0.00000000000E+00  0.00000000000E+00  0.12861969764E+03  0.12861969764E+03  0.00000000000E+00 0. -1.
         21   -1    0    0  501  503 -0.00000000000E+00 -0.00000000000E+00 -0.62601743110E+03  0.62601743110E+03  0.00000000000E+00 0.  1.
          6    2    1    2  501    0 -0.16766109330E+03  0.10283336249E+03 -0.39557883955E+03  0.47455214304E+03  0.17329793857E+03 0.  0.
         24    2    3    3    0    0 -0.16397557073E+03  0.63981156627E+02 -0.38924621539E+03  0.43473670501E+03  0.80633803619E+02 0.  0.
         -6    2    1    2    0  502  0.16766109330E+03 -0.10283336249E+03 -0.10181889391E+03  0.28008498571E+03  0.17145136165E+03 0.  0.
        -24    2    5    5    0    0  0.15816508836E+03 -0.12506334019E+03 -0.12074538422E+03  0.24902620186E+03  0.82325981106E+02 0.  0.
          5    1    3    3  501    0 -0.36855225739E+01  0.38852205858E+02 -0.63326241616E+01  0.39815438029E+02  0.47000000000E+01 0. -1.
        -13    1    4    4    0    0 -0.10177095964E+03  0.76793191728E+02 -0.29160373355E+03  0.31825659450E+03  0.00000000000E+00 0.  1.
         14    1    4    4    0    0 -0.62204611088E+02 -0.12812035101E+02 -0.97642481836E+02  0.11648011050E+03  0.00000000000E+00 0. -1.
         -5    1    5    5    0  502  0.94960049439E+01  0.22229977710E+02  0.18926490307E+02  0.31058783849E+02  0.47000000000E+01 0.  1.
         13    1    6    6    0    0 -0.90335646054E+01 -0.58160044352E+01 -0.13778621442E+02  0.17472309690E+02  0.00000000000E+00 0. -1.
        -14    1    6    6    0    0  0.16719865296E+03 -0.11924733576E+03 -0.10696676277E+03  0.23155389217E+03  0.00000000000E+00 0.  1.
</event>
<event>
12    1  0.8407180E-002  0.1879608E+03  0.7818608E-02  0.1160600E+00
         21   -1    0    0  501  502  0.00000000000E+00  0.00000000000E+00  0.14229167013E+03  0.14229167013E+03  0.00000000000E+00 0.  1.
         21   -1    0    0  502  503 -0.00000000000E+00 -0.00000000000E+00 -0.25353728331E+03  0.25353728331E+03  0.00000000000E+00 0.  1.
         -6    2    1    2    0  503  0.75610876491E+02  0.77404434848E+00 -0.88441083112E+02  0.20772838187E+03  0.17208036397E+03 0.  0.
        -24    2    3    3    0    0 -0.25834225162E+02 -0.56762741609E+01 -0.55519333499E+02  0.10077677199E+03  0.79836921928E+02 0.  0.
          6    2    1    2  501    0 -0.75610876491E+02 -0.77404434848E+00 -0.22804530060E+02  0.18810057157E+03  0.17071665017E+03 0.  0.
         24    2    5    5    0    0 -0.35977465253E+01 -0.54966996186E+02  0.82409119548E+01  0.92661185641E+02  0.74053144733E+02 0.  0.
          5    1    5    5  501    0 -0.72013129966E+02  0.54192951837E+02 -0.31045442015E+02  0.95439385928E+02  0.47000000000E+01 0. -1.
        -11    1    6    6    0    0  0.29476694720E+02 -0.53886174406E+01  0.13430939783E+02  0.32837522333E+02  0.00000000000E+00 0.  1.
         12    1    6    6    0    0 -0.33074441245E+02 -0.49578378745E+02 -0.51900278283E+01  0.59823663308E+02  0.00000000000E+00 0. -1.
         -5    1    3    3    0  503  0.10144510165E+03  0.64503185094E+01 -0.32921749613E+02  0.10695160988E+03  0.47000000000E+01 0.  1.
         11    1    4    4    0    0  0.20399867772E+02 -0.14154993751E+02 -0.46787084373E+02  0.52967440162E+02  0.00000000000E+00 0. -1.
        -12    1    4    4    0    0 -0.46234092934E+02  0.84787195899E+01 -0.87322491261E+01  0.47809331831E+02  0.00000000000E+00 0.  1.
</event>
<event>
12    1  0.8407180E-002  0.1993326E+03  0.7818608E-02  0.1150413E+00
         21   -1    0    0  501  502  0.00000000000E+00  0.00000000000E+00  0.13656432211E+04  0.13656432211E+04  0.00000000000E+00 0. -1.
         21   -1    0    0  502  503 -0.00000000000E+00 -0.00000000000E+00 -0.32385284475E+02  0.32385284475E+02  0.00000000000E+00 0. -1.
         -6    2    1    2    0  503 -0.60605753743E+02  0.80671722526E+02  0.44052468722E+03  0.48331208262E+03  0.17131136843E+03 0.  0.
        -24    2    3    3    0    0  0.93093438076E+01  0.24468858758E+02  0.33088169766E+03  0.34157091739E+03  0.80638730316E+02 0.  0.
          6    2    1    2  501    0  0.60605753743E+02 -0.80671722526E+02  0.89273324940E+03  0.91471642296E+03  0.17190839314E+03 0.  0.
         24    2    5    5    0    0  0.37008696352E+02 -0.12182450635E+03  0.71711368345E+03  0.73274198882E+03  0.80299023855E+02 0.  0.
          5    1    5    5  501    0  0.23597057391E+02  0.41152783825E+02  0.17561956596E+03  0.18197443414E+03  0.47000000000E+01 0. -1.
        -11    1    6    6    0    0 -0.22735295631E+02 -0.14791969243E+02  0.16208767946E+03  0.16434144898E+03  0.00000000000E+00 0.  1.
         12    1    6    6    0    0  0.59743991983E+02 -0.10703253711E+03  0.55502600399E+03  0.56840053983E+03  0.00000000000E+00 0. -1.
         -5    1    3    3    0  503 -0.69915097551E+02  0.56202863768E+02  0.10964298955E+03  0.14174116523E+03  0.47000000000E+01 0.  1.
         11    1    4    4    0    0 -0.21239260369E+02  0.38620880991E+02  0.11644786620E+03  0.12451017698E+03  0.00000000000E+00 0. -1.
        -12    1    4    4    0    0  0.30548604177E+02 -0.14152022233E+02  0.21443383146E+03  0.21706074041E+03  0.00000000000E+00 0.  1.
</event>
<event>
12    1  0.8407180E-002  0.1783248E+03  0.7818608E-02  0.1170150E+00
         21   -1    0    0  503  502  0.00000000000E+00  0.00000000000E+00  0.26781264559E+03  0.26781264559E+03  0.00000000000E+00 0. -1.
         21   -1    0    0  501  503 -0.00000000000E+00 -0.00000000000E+00 -0.28597955822E+03  0.28597955822E+03  0.00000000000E+00 0. -1.
          6    2    1    2  501    0 -0.35911484561E+02  0.22728275975E+02 -0.22207288855E+03  0.28480890730E+03  0.17318642152E+03 0.  0.
         24    2    3    3    0    0 -0.90798374800E+02  0.33140538748E+02 -0.15246935512E+03  0.19543481821E+03  0.74868042191E+02 0.  0.
         -6    2    1    2    0  502  0.35911484561E+02 -0.22728275975E+02  0.20390597591E+03  0.26898329651E+03  0.17020034528E+03 0.  0.
        -24    2    5    5    0    0  0.12916368425E+02  0.17693993256E+02  0.20588715095E+03  0.22219921513E+03  0.80641566856E+02 0.  0.
          5    1    3    3  501    0  0.54886890239E+02 -0.10412262773E+02 -0.69603533423E+02  0.89374089092E+02  0.47000000000E+01 0. -1.
        -13    1    4    4    0    0 -0.20442195076E+02  0.24780495372E+02 -0.59310429012E+01  0.32667010274E+02  0.00000000000E+00 0.  1.
         14    1    4    4    0    0 -0.70356179724E+02  0.83600433765E+01 -0.14653831222E+03  0.16276780793E+03  0.00000000000E+00 0. -1.
         -5    1    5    5    0  502  0.22995116136E+02 -0.40422269231E+02 -0.19811750423E+01  0.46784081379E+02  0.47000000000E+01 0.  1.
         11    1    6    6    0    0 -0.22499476618E+02  0.18944914615E+02  0.27300554008E+02  0.40130493231E+02  0.00000000000E+00 0. -1.
        -12    1    6    6    0    0  0.35415845043E+02 -0.12509213586E+01  0.17858659695E+03  0.18206872190E+03  0.00000000000E+00 0.  1.
</event>
<event>
12    1  0.8407180E-002  0.1731146E+03  0.7818608E-02  0.1174810E+00
         21   -1    0    0  503  502  0.00000000000E+00  0.00000000000E+00  0.86408047984E+02  0.86408047984E+02  0.00000000000E+00 0. -1.
         21   -1    0    0  501  503 -0.00000000000E+00 -0.00000000000E+00 -0.64482776985E+03  0.64482776985E+03  0.00000000000E+00 0. -1.
          6    2    1    2  501    0  0.94665339883E+00 -0.19313219354E+02 -0.52803000523E+03  0.55547408712E+03  0.17135308123E+03 0.  0.
         24    2    3    3    0    0  0.51991243449E+02 -0.75253998411E+01 -0.45851431830E+03  0.46830170852E+03  0.79444251371E+02 0.  0.
         -6    2    1    2    0  502 -0.94665339883E+00  0.19313219354E+02 -0.30389716639E+02  0.17576173072E+03  0.17203126028E+03 0.  0.
        -24    2    5    5    0    0  0.28286519717E+02  0.25636118862E+02  0.40606588031E+02  0.98579331522E+02  0.81312064441E+02 0.  0.
          5    1    3    3  501    0 -0.51044590050E+02 -0.11787819513E+02 -0.69515686932E+02  0.87172378606E+02  0.47000000000E+01 0. -1.
        -13    1    4    4    0    0  0.25400012053E+02 -0.28112991644E+02 -0.82472046817E+02  0.90758687836E+02  0.00000000000E+00 0.  1.
         14    1    4    4    0    0  0.26591231396E+02  0.20587591802E+02 -0.37604227148E+03  0.37754302068E+03  0.00000000000E+00 0. -1.
         -5    1    5    5    0  502 -0.29233173116E+02 -0.63228995073E+01 -0.70996304671E+02  0.77182399195E+02  0.47000000000E+01 0.  1.
         11    1    6    6    0    0 -0.12700611194E+02  0.31419631169E+02 -0.79139726037E+01  0.34801288911E+02  0.00000000000E+00 0. -1.
        -12    1    6    6    0    0  0.40987130911E+02 -0.57835123077E+01  0.48520560635E+02  0.63778042611E+02  0.00000000000E+00 0.  1.
</event>
<event>
12    1  0.8407180E-002  0.1830359E+03  0.7818608E-02  0.1165712E+00
         21   -1    0    0  501  502  0.00000000000E+00  0.00000000000E+00  0.72451392332E+02  0.72451392332E+02  0.00000000000E+00 0. -1.
         21   -1    0    0  502  503 -0.00000000000E+00 -0.00000000000E+00 -0.66723797428E+03  0.66723797428E+03  0.00000000000E+00 0. -1.
         -6    2    1    2    0  503  0.56323215134E+02 -0.29722354318E+02 -0.50464583503E+03  0.53566119722E+03  0.16795766278E+03 0.  0.
        -24    2    3    3    0    0  0.53851714595E+02  0.19635611464E+02 -0.45519289675E+03  0.46558980359E+03  0.79295192491E+02 0.  0.
          6    2    1    2  501    0 -0.56323215134E+02  0.29722354318E+02 -0.90140746919E+02  0.20402816939E+03  0.17159958258E+03 0.  0.
         24    2    5    5    0    0  0.74808798323E+01  0.55985110097E+02 -0.12168881316E+02  0.99805347028E+02  0.81380154260E+02 0.  0.
          5    1    5    5  501    0 -0.63804094966E+02 -0.26262755780E+02 -0.77971865603E+02  0.10422282236E+03  0.47000000000E+01 0. -1.
        -13    1    6    6    0    0  0.28931746379E+02 -0.92455001215E+01 -0.27964817856E+01  0.30501566049E+02  0.00000000000E+00 0.  1.
         14    1    6    6    0    0 -0.21450866547E+02  0.65230610219E+02 -0.93723995300E+01  0.69303780980E+02  0.00000000000E+00 0. -1.
         -5    1    3    3    0  503  0.24715005383E+01 -0.49357965781E+02 -0.49452938275E+02  0.70071393628E+02  0.47000000000E+01 0.  1.
         13    1    4    4    0    0  0.12566845571E+02 -0.72127543136E+01 -0.98230816950E+01  0.17505495320E+02  0.00000000000E+00 0. -1.
        -14    1    4    4    0    0  0.41284869024E+02  0.26848365777E+02 -0.44536981506E+03  0.44808430827E+03  0.00000000000E+00 0.  1.
</event>
<event>
12    1  0.8407180E-002  0.2115103E+03  0.7818608E-02  0.1140539E+00
         21   -1    0    0  503  502  0.00000000000E+00  0.00000000000E+00  0.24212540042E+02  0.24212540042E+02  0.00000000000E+00 0.  1.
         21   -1    0    0  501  503 -0.00000000000E+00 -0.00000000000E+00 -0.20338794464E+04  0.20338794464E+04  0.00000000000E+00 0.  1.
          6    2    1    2  501    0  0.92371923312E+02  0.82212284383E+02 -0.13239860563E+04  0.13407742821E+04  0.17159593919E+03 0.  0.
         24    2    3    3    0    0  0.57951818641E+02 -0.22516581786E+02 -0.69719010042E+03  0.70434035833E+03  0.78459508762E+02 0.  0.
         -6    2    1    2    0  502 -0.92371923312E+02 -0.82212284383E+02 -0.68568085011E+03  0.71731770439E+03  0.17057264994E+03 0.  0.
        -24    2    5    5    0    0  0.17862236228E+02 -0.37009075584E+02 -0.30465334772E+03  0.31806972682E+03  0.81645316373E+02 0.  0.
          5    1    3    3  501    0  0.34420104671E+02  0.10472886617E+03 -0.62679595588E+03  0.63643392377E+03  0.47000000000E+01 0. -1.
        -11    1    4    4    0    0  0.36301222488E+02  0.25452095219E+02 -0.23336748134E+03  0.23754151059E+03  0.00000000000E+00 0.  1.
         12    1    4    4    0    0  0.21650596153E+02 -0.47968677004E+02 -0.46382261908E+03  0.46679884774E+03  0.00000000000E+00 0. -1.
         -5    1    5    5    0  502 -0.11023415954E+03 -0.45203208798E+02 -0.38102750239E+03  0.39924797757E+03  0.47000000000E+01 0.  1.
         11    1    6    6    0    0 -0.21015167051E+02  0.30368302138E+00 -0.19248725996E+03  0.19363128548E+03  0.00000000000E+00 0. -1.
        -12    1    6    6    0    0  0.38877403280E+02 -0.37312758606E+02 -0.11216608775E+03  0.12443844134E+03  0.00000000000E+00 0.  1.
</event>
<event>
12    1  0.8407180E-002  0.1945044E+03  0.7818608E-02  0.1156536E+00
         21   -1    0    0  503  502  0.00000000000E+00  0.00000000000E+00  0.44504818820E+02  0.44504818820E+02  0.00000000000E+00 0.  1.
         21   -1    0    0  501  503 -0.00000000000E+00 -0.00000000000E+00 -0.13886473510E+04  0.13886473510E+04  0.00000000000E+00 0.  1.
          6    2    1    2  501    0 -0.62948446722E+02 -0.30927096338E+02 -0.11440478287E+04  0.11604643069E+04  0.18141935128E+03 0.  0.
         24    2    3    3    0    0 -0.88922565366E+02 -0.63781182480E+02 -0.60087404241E+03  0.61565801295E+03  0.77523623533E+02 0.  0.
         -6    2    1    2    0  502  0.62948446722E+02  0.30927096338E+02 -0.20009470353E+03  0.27268786296E+03  0.17146949581E+03 0.  0.
        -24    2    5    5    0    0  0.49876526209E+01 -0.14268716672E+02 -0.33022476131E+02  0.90102720264E+02  0.82459343406E+02 0.  0.
          5    1    3    3  501    0  0.25974118644E+02  0.32854086143E+02 -0.54317378624E+03  0.54480629390E+03  0.47000000000E+01 0. -1.
        -11    1    4    4    0    0 -0.55948064783E+02 -0.26366460854E+02 -0.49239436728E+03  0.49626362867E+03  0.00000000000E+00 0.  1.
         12    1    4    4    0    0 -0.32974500583E+02 -0.37414721626E+02 -0.10847967513E+03  0.11939438429E+03  0.00000000000E+00 0. -1.
         -5    1    5    5    0  502  0.57960794101E+02  0.45195813009E+02 -0.16707222740E+03  0.18258514270E+03  0.47000000000E+01 0.  1.
         13    1    6    6    0    0 -0.38656428659E+02 -0.10315590877E+02 -0.15501549459E+02  0.42907213001E+02  0.00000000000E+00 0. -1.
        -14    1    6    6    0    0  0.43644081280E+02 -0.39531257946E+01 -0.17520926672E+02  0.47195507263E+02  0.00000000000E+00 0.  1.
</event>
<event>
12    1  0.8407180E-002  0.1866913E+03  0.7818608E-02  0.1161936E+00
         21   -1    0    0  501  502  0.00000000000E+00  0.00000000000E+00  0.16544991597E+04  0.16544991597E+04  0.00000000000E+00 0.  1.
         21   -1    0    0  502  503 -0.00000000000E+00 -0.00000000000E+00 -0.26254972058E+02  0.26254972058E+02  0.00000000000E+00 0.  1.
         -6    2    1    2    0  503 -0.73339423576E+02  0.86495339512E+00  0.11990137112E+04  0.12134609631E+04  0.17168054712E+03 0.  0.
        -24    2    3    3    0    0 -0.73330259071E+02  0.98494255893E+01  0.40552481391E+03  0.41990728447E+03  0.79983840733E+02 0.  0.
          6    2    1    2  501    0  0.73339423576E+02 -0.86495339512E+00  0.42923047646E+03  0.46729316862E+03  0.16954257378E+03 0.  0.
         24    2    5    5    0    0  0.79868521310E+02 -0.11839490531E+02  0.15444630994E+03  0.19217229019E+03  0.80977603251E+02 0.  0.
          5    1    5    5  501    0 -0.65290977341E+01  0.10974537136E+02  0.27478416652E+03  0.27512087844E+03  0.47000000000E+01 0. -1.
        -13    1    6    6    0    0  0.51106035413E+02  0.29383936936E+02  0.54435254408E+02  0.80239887387E+02  0.00000000000E+00 0.  1.
         14    1    6    6    0    0  0.28762485897E+02 -0.41223427467E+02  0.10001105554E+03  0.11193240280E+03  0.00000000000E+00 0. -1.
         -5    1    3    3    0  503 -0.91645044577E-02 -0.89844721942E+01  0.79348889728E+03  0.79355367867E+03  0.47000000000E+01 0.  1.
         13    1    4    4    0    0 -0.67412839604E+02 -0.16611012525E+02  0.36222357471E+03  0.36881748163E+03  0.00000000000E+00 0. -1.
        -14    1    4    4    0    0 -0.59174194677E+01  0.26460438114E+02  0.43301239194E+02  0.51089802839E+02  0.00000000000E+00 0.  1.
</event>
<event>
12    1  0.8407180E-002  0.1874633E+03  0.7818608E-02  0.1160984E+00
         21   -1    0    0  503  502  0.00000000000E+00  0.00000000000E+00  0.57683523038E+02  0.57683523038E+02  0.00000000000E+00 0. -1.
         21   -1    0    0  501  503 -0.00000000000E+00 -0.00000000000E+00 -0.64944537532E+03  0.64944537532E+03  0.00000000000E+00 0. -1.
          6    2    1    2  501    0 -0.36645807638E+02 -0.67304386292E+02 -0.38779915012E+03  0.43073269414E+03  0.17108383129E+03 0.  0.
         24    2    3    3    0    0 -0.25321119211E+01 -0.41506490184E+02 -0.79494351432E+02  0.11943988250E+03  0.78850068513E+02 0.  0.
         -6    2    1    2    0  502  0.36645807638E+02  0.67304386292E+02 -0.20396270215E+03  0.27639620422E+03  0.17006258320E+03 0.  0.
        -24    2    5    5    0    0 -0.20720652596E+02  0.81679842788E+02 -0.17580083974E+03  0.21072471113E+03  0.79987664469E+02 0.  0.
          5    1    3    3  501    0 -0.34113695717E+02 -0.25797896108E+02 -0.30830479869E+03  0.31129281163E+03  0.47000000000E+01 0. -1.
        -13    1    4    4    0    0  0.97981389499E+01 -0.63326626020E+02 -0.57257008703E+02  0.85933870712E+02  0.00000000000E+00 0.  1.
         14    1    4    4    0    0 -0.12330250871E+02  0.21820135836E+02 -0.22237342729E+02  0.33506011791E+02  0.00000000000E+00 0. -1.
         -5    1    5    5    0  502  0.57366460235E+02 -0.14375456496E+02 -0.28161862417E+02  0.65671493086E+02  0.47000000000E+01 0.  1.
         13    1    6    6    0    0 -0.13778279522E+02  0.92147978428E+02 -0.11194917296E+03  0.14564926447E+03  0.00000000000E+00 0. -1.
        -14    1    6    6    0    0 -0.69423730741E+01 -0.10468135640E+02 -0.63851666775E+02  0.65075446657E+02  0.00000000000E+00 0.  1.
</event>
<event>
12    1  0.8407180E-002  0.2063865E+03  0.7818608E-02  0.1144660E+00
         21   -1    0    0  503  502  0.00000000000E+00  0.00000000000E+00  0.13844915982E+04  0.13844915982E+04  0.00000000000E+00 0. -1.
         21   -1    0    0  501  503 -0.00000000000E+00 -0.00000000000E+00 -0.50831971166E+02  0.50831971166E+02  0.00000000000E+00 0.  1.
          6    2    1    2  501    0  0.94007251758E+02 -0.61159742800E+02  0.21332101414E+03  0.29613350001E+03  0.17207939224E+03 0.  0.
         24    2    3    3    0    0  0.64300803086E+02  0.31048417231E+02  0.90021097918E+02  0.13925846309E+03  0.78679882958E+02 0.  0.
         -6    2    1    2    0  502 -0.94007251758E+02  0.61159742800E+02  0.11203386129E+04  0.11391900694E+04  0.17325567537E+03 0.  0.
        -24    2    5    5    0    0 -0.11368497944E+03  0.14396600549E+00  0.67506635951E+03  0.68930163027E+03  0.80609258001E+02 0.  0.
          5    1    3    3  501    0  0.29706448672E+02 -0.92208160031E+02  0.12329991622E+03  0.15687503692E+03  0.47000000000E+01 0. -1.
        -11    1    4    4    0    0  0.26382395463E+02 -0.26247572670E+02  0.26487626661E+02  0.45678881637E+02  0.00000000000E+00 0.  1.
         12    1    4    4    0    0  0.37918407622E+02  0.57295989901E+02  0.63533471258E+02  0.93579581456E+02  0.00000000000E+00 0. -1.
         -5    1    5    5    0  502  0.19677727686E+02  0.61015776794E+02  0.44527225343E+03  0.44988843913E+03  0.47000000000E+01 0.  1.
         11    1    6    6    0    0 -0.84187582461E+02 -0.20151417808E+02  0.29188622444E+03  0.30445228969E+03  0.00000000000E+00 0. -1.
        -12    1    6    6    0    0 -0.29497396983E+02  0.20295383813E+02  0.38318013507E+03  0.38484934058E+03  0.00000000000E+00 0.  1.
</event>
<event>
12    1  0.8407180E-002  0.2794292E+03  0.7818608E-02  0.1096127E+00
         21   -1    0    0  501  502  0.00000000000E+00  0.00000000000E+00  0.38761364581E+03  0.38761364581E+03  0.00000000000E+00 0. -1.
         21   -1    0    0  502  503 -0.00000000000E+00 -0.00000000000E+00 -0.22822820596E+03  0.22822820596E+03  0.00000000000E+00 0.  1.
         -6    2    1    2    0  503 -0.11397119411E+03  0.18770471008E+03 -0.26980001294E+02  0.28072865991E+03  0.17279516414E+03 0.  0.
        -24    2    3    3    0    0 -0.57402121934E+02  0.89381595541E+02 -0.77154164091E+02  0.15660359639E+03  0.85368894470E+02 0.  0.
          6    2    1    2  501    0  0.11397119411E+03 -0.18770471008E+03  0.18636544114E+03  0.33511319186E+03  0.17130756678E+03 0.  0.
         24    2    5    5    0    0  0.86116970279E+02 -0.98821001903E+02  0.18604117627E+03  0.24184815816E+03  0.81838190043E+02 0.  0.
          5    1    5    5  501    0  0.27854223835E+02 -0.88883708176E+02  0.32426487446E+00  0.93265033706E+02  0.47000000000E+01 0. -1.
        -11    1    6    6    0    0 -0.11329920320E+02  0.10496111572E+01  0.32210201986E+02  0.34160882454E+02  0.00000000000E+00 0.  1.
         12    1    6    6    0    0  0.97446890599E+02 -0.99870613060E+02  0.15383097428E+03  0.20768727570E+03  0.00000000000E+00 0. -1.
         -5    1    3    3    0  503 -0.56569072181E+02  0.98323114537E+02  0.50174162797E+02  0.12412506351E+03  0.47000000000E+01 0.  1.
         13    1    4    4    0    0  0.16017071209E+02  0.32907035200E+02 -0.87126167548E+00  0.36608450290E+02  0.00000000000E+00 0. -1.
        -14    1    4    4    0    0 -0.73419193143E+02  0.56474560342E+02 -0.76282902416E+02  0.11999514610E+03  0.00000000000E+00 0.  1.
</event>
<event>
12    1  0.8407180E-002  0.1749682E+03  0.7818608E-02  0.1173986E+00
         21   -1    0    0  503  502  0.00000000000E+00  0.00000000000E+00  0.20639454161E+03  0.20639454161E+03  0.00000000000E+00 0. -1.
         21   -1    0    0  501  503 -0.00000000000E+00 -0.00000000000E+00 -0.20361135524E+03  0.20361135524E+03  0.00000000000E+00 0. -1.
          6    2    1    2  501    0 -0.39740068049E+02  0.11714469811E+01 -0.10926777436E+03  0.20223366328E+03  0.16546408297E+03 0.  0.
         24    2    3    3    0    0 -0.51721153271E+02 -0.12298298551E+02 -0.44783511169E+01  0.95801085222E+02  0.79570512491E+02 0.  0.
         -6    2    1    2    0  502  0.39740068049E+02 -0.11714469811E+01  0.11205096073E+03  0.20777223357E+03  0.17039142568E+03 0.  0.
        -24    2    5    5    0    0  0.90243320112E+02  0.14736299990E+02  0.65442649114E+02  0.13707527752E+03  0.78395637772E+02 0.  0.
          5    1    3    3  501    0  0.11981085222E+02  0.13469745532E+02 -0.10478942324E+03  0.10643257805E+03  0.47000000000E+01 0. -1.
        -11    1    4    4    0    0  0.15897420187E+02 -0.14381470656E+02  0.14084234763E+02  0.25649957811E+02  0.00000000000E+00 0.  1.
         12    1    4    4    0    0 -0.67618573458E+02  0.20831721052E+01 -0.18562585880E+02  0.70151127411E+02  0.00000000000E+00 0. -1.
         -5    1    5    5    0  502 -0.50503252063E+02 -0.15907746971E+02  0.46608311618E+02  0.70696956049E+02  0.47000000000E+01 0.  1.
         11    1    6    6    0    0  0.17679089405E+02  0.25843505640E+02  0.54500431065E+02  0.62854864348E+02  0.00000000000E+00 0. -1.
        -12    1    6    6    0    0  0.72564230707E+02 -0.11107205650E+02  0.10942218049E+02  0.74220413171E+02  0.00000000000E+00 0.  1.
</event>
<event>
12    1  0.8407180E-002  0.1734411E+03  0.7818608E-02  0.1174418E+00
         21   -1    0    0  501  502  0.00000000000E+00  0.00000000000E+00  0.15840179391E+04  0.15840179391E+04  0.00000000000E+00 0.  1.
         21   -1    0    0  502  503 -0.00000000000E+00 -0.00000000000E+00 -0.61319369402E+02  0.61319369402E+02  0.00000000000E+00 0.  1.
         -6    2    1    2    0  503 -0.10846143574E+02  0.11928752590E+02  0.77158327059E+02  0.18942920917E+03  0.17225006207E+03 0.  0.
        -24    2    3    3    0    0  0.52243829014E+02 -0.23857297811E+02  0.56972983733E+02  0.11399364640E+03  0.80312154846E+02 0.  0.
          6    2    1    2  501    0  0.10846143574E+02 -0.11928752590E+02  0.14455402427E+04  0.14559080994E+04  0.17269008845E+03 0.  0.
         24    2    5    5    0    0  0.42630071975E+02  0.15838707032E+02  0.13227758265E+04  0.13260064373E+04  0.80554311051E+02 0.  0.
          5    1    5    5  501    0 -0.31783928401E+02 -0.27767459623E+02  0.12276441619E+03  0.12990166204E+03  0.47000000000E+01 0. -1.
        -11    1    6    6    0    0  0.48184110981E+02  0.42857153235E+02  0.98292413276E+03  0.98503720483E+03  0.00000000000E+00 0.  1.
         12    1    6    6    0    0 -0.55540390054E+01 -0.27018446203E+02  0.33985169373E+03  0.34096923251E+03  0.00000000000E+00 0. -1.
         -5    1    3    3    0  503 -0.63089972588E+02  0.35786050401E+02  0.20185343326E+02  0.75435562765E+02  0.47000000000E+01 0.  1.
         13    1    4    4    0    0  0.55205249632E+02  0.22516218641E+01  0.66124521819E+02  0.86169262349E+02  0.00000000000E+00 0. -1.
        -14    1    4    4    0    0 -0.29614206179E+01 -0.26108919675E+02 -0.91515380863E+01  0.27824384054E+02  0.00000000000E+00 0.  1.
</event>
<event>
12    1  0.8407180E-002  0.1778652E+03  0.7818608E-02  0.1169997E+00
         21   -1    0    0  501  502  0.00000000000E+00  0.00000000000E+00  0.47533721741E+02  0.47533721741E+02  0.00000000000E+00 0. -1.
         21   -1    0    0  502  503 -0.00000000000E+00 -0.00000000000E+00 -0.22647976320E+04  0.22647976320E+04  0.00000000000E+00 0. -1.
         -6    2    1    2    0  503  0.44499478614E+02 -0.11564107625E+02 -0.20802775696E+04  0.20878290413E+04  0.17135170526E+03 0.  0.
        -24    2    3    3    0    0  0.56608960140E+02 -0.42983655691E+02 -0.78669106991E+03  0.79379583085E+03  0.78592700512E+02 0.  0.
          6    2    1    2  501    0 -0.44499478614E+02  0.11564107625E+02 -0.13698634062E+03  0.22450231242E+03  0.17181995978E+03 0.  0.
         24    2    5    5    0    0 -0.76420419460E+02 -0.45851663540E+02 -0.10315059828E+03  0.15045864487E+03  0.63681255739E+02 0.  0.
          5    1    5    5  501    0  0.31920940846E+02  0.57415771165E+02 -0.33835742347E+02  0.74043667542E+02  0.47000000000E+01 0. -1.
        -13    1    6    6    0    0 -0.55029416428E+02 -0.28833351938E+02 -0.10611507751E+03  0.12296344388E+03  0.00000000000E+00 0.  1.
         14    1    6    6    0    0 -0.21391003032E+02 -0.17018311602E+02  0.29644792318E+01  0.27495200993E+02  0.00000000000E+00 0. -1.
         -5    1    3    3    0  503 -0.12109481526E+02  0.31419548066E+02 -0.12935864997E+04  0.12940332105E+04  0.47000000000E+01 0.  1.
         11    1    4    4    0    0  0.12464602667E+02  0.17013064105E+02 -0.36261227704E+03  0.36322510119E+03  0.00000000000E+00 0. -1.
        -12    1    4    4    0    0  0.44144357473E+02 -0.59996719796E+02 -0.42407879287E+03  0.43057072967E+03  0.00000000000E+00 0.  1.
</event>
<event>
12    1  0.8407180E-002  0.2343227E+03  0.7818608E-02  0.1123670E+00
         21   -1    0    0  503  502  0.00000000000E+00  0.00000000000E+00  0.11833453292E+03  0.11833453292E+03  0.00000000000E+00 0.  1.
         21   -1    0    0  501  503 -0.00000000000E+00 -0.00000000000E+00 -0.46528336606E+03  0.46528336606E+03  0.00000000000E+00 0.  1.
          6    2    1    2  501    0  0.12294981330E+03  0.10192279819E+03 -0.19119236224E+03  0.30242628679E+03  0.17147077356E+03 0.  0.
         24    2    3    3    0    0  0.13423355527E+03  0.64513900719E+02 -0.20015810500E+03  0.26206265234E+03  0.80205211860E+02 0.  0.
         -6    2    1    2    0  502 -0.12294981330E+03 -0.10192279819E+03 -0.15575647091E+03  0.28119161218E+03  0.17118332615E+03 0.  0.
        -24    2    5    5    0    0 -0.24271789387E+02 -0.43334831378E+02 -0.62825770009E+01  0.92685810634E+02  0.78001034278E+02 0.  0.
          5    1    3    3  501    0 -0.11283741965E+02  0.37408897469E+02  0.89657427672E+01  0.40363634449E+02  0.47000000000E+01 0. -1.
        -11    1    4    4    0    0  0.43485725877E+02  0.63451792608E+02 -0.74739119565E+02  0.10725238614E+03  0.00000000000E+00 0.  1.
         12    1    4    4    0    0  0.90747829391E+02  0.10621081117E+01 -0.12541898544E+03  0.15481026620E+03  0.00000000000E+00 0. -1.
         -5    1    5    5    0  502 -0.98678023916E+02 -0.58587966810E+02 -0.14947389390E+03  0.18850580155E+03  0.47000000000E+01 0.  1.
         13    1    6    6    0    0 -0.28839769333E+02  0.15842283200E+02 -0.52707359525E+01  0.33324028712E+02  0.00000000000E+00 0. -1.
        -14    1    6    6    0    0  0.45679799457E+01 -0.59177114578E+02 -0.10118410483E+01  0.59361781921E+02  0.00000000000E+00 0.  1.
</event>
<event>
12    1  0.8407180E-002  0.1759819E+03  0.7818608E-02  0.1171954E+00
         21   -1    0    0  503  502  0.00000000000E+00  0.00000000000E+00  0.13828791280E+03  0.13828791280E+03  0.00000000000E+00 0.  1.
         21   -1    0    0  501  503 -0.00000000000E+00 -0.00000000000E+00 -0.29983058619E+03  0.29983058619E+03  0.00000000000E+00 0.  1.
          6    2    1    2  501    0 -0.34486333748E+02 -0.30899968623E+00 -0.19186608077E+03  0.26035022382E+03  0.17256953206E+03 0.  0.
         24    2    3    3    0    0 -0.70256331411E+02 -0.24986064116E+02 -0.18572762039E+03  0.21621156800E+03  0.81807320318E+02 0.  0.
         -6    2    1    2    0  502  0.34486333748E+02  0.30899968623E+00  0.30323407383E+02  0.17776827517E+03  0.17173423633E+03 0.  0.
        -24    2    5    5    0    0 -0.82385477613E+01 -0.61984881450E+02  0.36908943507E+02  0.10179852848E+03  0.71348938966E+02 0.  0.
          5    1    3    3  501    0  0.35769997663E+02  0.24677064430E+02 -0.61384603827E+01  0.44138655820E+02  0.47000000000E+01 0. -1.
        -11    1    4    4    0    0 -0.80701349714E+01  0.27812318834E+02 -0.53822342880E+02  0.61118710314E+02  0.00000000000E+00 0.  1.
         12    1    4    4    0    0 -0.62186196439E+02 -0.52798382951E+02 -0.13190527751E+03  0.15509285769E+03  0.00000000000E+00 0. -1.
         -5    1    5    5    0  502  0.42724881509E+02  0.62293881136E+02 -0.65855361248E+01  0.75969746695E+02  0.47000000000E+01 0.  1.
         11    1    6    6    0    0 -0.18958252015E+02 -0.19935688770E+02  0.49485623028E+02  0.56618670884E+02  0.00000000000E+00 0. -1.
        -12    1    6    6    0    0  0.10719704254E+02 -0.42049192679E+02 -0.12576679521E+02  0.45179857592E+02  0.00000000000E+00 0.  1.
</event>
<event>
12    1  0.8407180E-002  0.2090492E+03  0.7818608E-02  0.1143216E+00
         21   -1    0    0  501  502  0.00000000000E+00  0.00000000000E+00  0.20787404036E+04  0.20787404036E+04  0.00000000000E+00 0. -1.
         21   -1    0    0  502  503 -0.00000000000E+00 -0.00000000000E+00 -0.29917410264E+02  0.29917410264E+02  0.00000000000E+00 0.  1.
         -6    2    1    2    0  503  0.70188632657E+02 -0.73495849686E+02  0.44294498822E+03  0.48979773766E+03  0.18268409115E+03 0.  0.
        -24    2    3    3    0    0  0.10440522093E+02  0.85272847320E+01  0.11385387042E+03  0.14538419973E+03  0.89398784311E+02 0.  0.
          6    2    1    2  501    0 -0.70188632657E+02  0.73495849686E+02  0.16058780051E+04  0.16188600762E+04  0.17758292405E+03 0.  0.
         24    2    5    5    0    0 -0.88528663780E+02  0.23991361755E+02  0.64181537010E+03  0.65334161169E+03  0.80717919464E+02 0.  0.
          5    1    5    5  501    0  0.18340031122E+02  0.49504487931E+02  0.96406263498E+03  0.96551846446E+03  0.47000000000E+01 0. -1.
        -13    1    6    6    0    0  0.12495760946E+02  0.16446189270E+02  0.94716319840E+02  0.96942263370E+02  0.00000000000E+00 0.  1.
         14    1    6    6    0    0 -0.10102442473E+03  0.75451724855E+01  0.54709905026E+03  0.55639934832E+03  0.00000000000E+00 0. -1.
         -5    1    3    3    0  503  0.59748110564E+02 -0.82023134418E+02  0.32909111780E+03  0.34441353793E+03  0.47000000000E+01 0.  1.
         13    1    4    4    0    0 -0.29998906791E+02 -0.16470192760E+02  0.80023508857E+02  0.87034266976E+02  0.00000000000E+00 0. -1.
        -14    1    4    4    0    0  0.40439428884E+02  0.24997477492E+02  0.33830361562E+02  0.58349932758E+02  0.00000000000E+00 0.  1.
</event>
<event>
12    1  0.8407180E-002  0.3616524E+03  0.7818608E-02  0.1058009E+00
         21   -1    0    0  503  502  0.00000000000E+00  0.00000000000E+00  0.66679181599E+02  0.66679181599E+02  0.00000000000E+00 0. -1.
         21   -1    0    0  501  503 -0.00000000000E+00 -0.00000000000E+00 -0.21139224824E+04  0.21139224824E+04  0.00000000000E+00 0.  1.
          6    2    1    2  501    0 -0.94016855409E+02  0.30353682447E+03 -0.13214520911E+04  0.13700467382E+04  0.17268081238E+03 0.  0.
         24    2    3    3    0    0 -0.81900197968E+02  0.89036810418E+02 -0.48032522767E+03  0.50190299450E+03  0.80988243019E+02 0.  0.
         -6    2    1    2    0  502  0.94016855409E+02 -0.30353682447E+03 -0.72579120972E+03  0.81055492579E+03  0.17103401620E+03 0.  0.
        -24    2    5    5    0    0  0.98180261629E+02 -0.24753480077E+03 -0.69071199397E+03  0.74417569720E+03  0.76168026918E+02 0.  0.
          5    1    3    3  501    0 -0.12116657441E+02  0.21450001405E+03 -0.84112686344E+03  0.86814374375E+03  0.47000000000E+01 0. -1.
        -13    1    4    4    0    0 -0.27340627969E+01  0.61800401119E+02 -0.20302076401E+03  0.21223617810E+03  0.00000000000E+00 0.  1.
         14    1    4    4    0    0 -0.79166135171E+02  0.27236409298E+02 -0.27730446367E+03  0.28966681639E+03  0.00000000000E+00 0. -1.
         -5    1    5    5    0  502 -0.41634062199E+01 -0.56002023703E+02 -0.35079215755E+02  0.66379228589E+02  0.47000000000E+01 0.  1.
         11    1    6    6    0    0  0.36099422803E+02 -0.43337791670E+02 -0.22378829828E+03  0.23078677380E+03  0.00000000000E+00 0. -1.
        -12    1    6    6    0    0  0.62080838826E+02 -0.20419700910E+03 -0.46692369568E+03  0.51338892339E+03  0.00000000000E+00 0.  1.
</event>
<event>
12    1  0.8407180E-002  0.2199955E+03  0.7818608E-02  0.1134011E+00
         21   -1    0    0  501  502  0.00000000000E+00  0.00000000000E+00  0.13066703218E+04  0.13066703218E+04  0.00000000000E+00 0. -1.
         21   -1    0    0  502  503 -0.00000000000E+00 -0.00000000000E+00 -0.55749315676E+02  0.55749315676E+02  0.00000000000E+00 0.  1.
         -6    2    1    2    0  503 -0.83335706892E+02 -0.10888530499E+03  0.22900633457E+03  0.31709307717E+03  0.17118197520E+03 0.  0.
        -24    2    3    3    0    0 -0.10131245488E+03 -0.55747241177E+02  0.89198997669E+02  0.16637811858E+03  0.79707269075E+02 0.  0.
          6    2    1    2  501    0  0.83335706892E+02  0.10888530499E+03  0.10219146716E+04  0.10453265603E+04  0.17203828658E+03 0.  0.
         24    2    5    5    0    0  0.10606445767E+03  0.28958226057E+02  0.57042664564E+03  0.58623129611E+03  0.78691336536E+02 0.  0.
          5    1    5    5  501    0 -0.22728750779E+02  0.79927078934E+02  0.45148802596E+03  0.45909526424E+03  0.47000000000E+01 0. -1.
        -11    1    6    6    0    0 -0.62752213235E+01 -0.11623587517E+02  0.10039784891E+03  0.10126309424E+03  0.00000000000E+00 0.  1.
         12    1    6    6    0    0  0.11233967899E+03  0.40581813574E+02  0.47002879673E+03  0.48496820187E+03  0.00000000000E+00 0. -1.
         -5    1    3    3    0  503  0.17976747986E+02 -0.53138063814E+02  0.13980733690E+03  0.15071495860E+03  0.47000000000E+01 0.  1.
         11    1    4    4    0    0  0.18813854039E+01  0.84754087075E+01  0.29905942762E+02  0.31140609761E+02  0.00000000000E+00 0. -1.
        -12    1    4    4    0    0 -0.10319384028E+03 -0.64222649884E+02  0.59293054908E+02  0.13523750882E+03  0.00000000000E+00 0.  1.
</event>
<event>
12    1  0.8407180E-002  0.1892127E+03  0.7818608E-02  0.1162271E+00
         21   -1    0    0  501  502  0.00000000000E+00  0.00000000000E+00  0.15401483028E+03  0.15401483028E+03  0.00000000000E+00 0. -1.
         21   -1    0    0  502  503 -0.00000000000E+00 -0.00000000000E+00 -0.26868668054E+03  0.26868668054E+03  0.00000000000E+00 0. -1.
         -6    2    1    2    0  503  0.63957378147E+01 -0.40743649622E+02 -0.14869385270E+03  0.23045440237E+03  0.17116781034E+03 0.  0.
        -24    2    3    3    0    0 -0.57756493738E+02 -0.50882905901E+01 -0.75205810867E+02  0.12648615850E+03  0.83553162926E+02 0.  0.
          6    2    1    2  501    0 -0.63957378147E+01  0.40743649622E+02  0.34022002436E+02  0.19224710845E+03  0.18466321672E+03 0.  0.
         24    2    5    5    0    0 -0.47287978599E+01 -0.31909637125E+02 -0.32894214868E+02  0.93347417337E+02  0.81185740627E+02 0.  0.
          5    1    5    5  501    0 -0.16669399548E+01  0.72653286747E+02  0.66916217304E+02  0.98899691112E+02  0.47000000000E+01 0. -1.
        -11    1    6    6    0    0  0.89797532771E+01 -0.56861302555E+02 -0.29475583904E+02  0.64673439244E+02  0.00000000000E+00 0.  1.
         12    1    6    6    0    0 -0.13708551137E+02  0.24951665430E+02 -0.34186309635E+01  0.28673978093E+02  0.00000000000E+00 0. -1.
         -5    1    3    3    0  503  0.64152231553E+02 -0.35655359032E+02 -0.73488041828E+02  0.10396824387E+03  0.47000000000E+01 0.  1.
         13    1    4    4    0    0 -0.34389215325E+02  0.38653120143E+02 -0.43791333621E+02  0.67781728569E+02  0.00000000000E+00 0. -1.
        -14    1    4    4    0    0 -0.23367278413E+02 -0.43741410733E+02 -0.31414477246E+02  0.58704429935E+02  0.00000000000E+00 0.  1.
</event>
<event>
12    1  0.8407180E-002  0.1818292E+03  0.7818608E-02  0.1166970E+00
         21   -1    0    0  503  502  0.00000000000E+00  0.00000000000E+00  0.11355175540E+03  0.11355175540E+03  0.00000000000E+00 0. -1.
         21   -1    0    0  501  503 -0.00000000000E+00 -0.00000000000E+00 -0.33142098291E+03  0.33142098291E+03  0.00000000000E+00 0. -1.
          6    2    1    2  501    0  0.17408364006E+02 -0.39467344168E+02 -0.24727829692E+02  0.17970783040E+03  0.17269254863E+03 0.  0.
         24    2    3    3    0    0 -0.26620540750E+02 -0.49718410089E+02  0.35650311893E+02  0.10413509201E+03  0.79953731355E+02 0.  0.
         -6    2    1    2    0  502 -0.17408364006E+02  0.39467344168E+02 -0.19314139782E+03  0.26526490791E+03  0.17663847096E+03 0.  0.
        -24    2    5    5    0    0 -0.69926925662E+02  0.56896487283E+02 -0.16119781881E+03  0.20119887488E+03  0.79807676747E+02 0.  0.
          5    1    3    3  501    0  0.44028904756E+02  0.10251065922E+02 -0.60378141585E+02  0.75572738390E+02  0.47000000000E+01 0. -1.
        -11    1    4    4    0    0 -0.47234045249E+02 -0.29467477230E+02 -0.31446281229E+01  0.55760881726E+02  0.00000000000E+00 0.  1.
         12    1    4    4    0    0  0.20613504499E+02 -0.20250932860E+02  0.38794940016E+02  0.48374210280E+02  0.00000000000E+00 0. -1.
         -5    1    5    5    0  502  0.52518561656E+02 -0.17429143115E+02 -0.31943579018E+02  0.64066033034E+02  0.47000000000E+01 0.  1.
         13    1    6    6    0    0 -0.43099097076E+02 -0.11846878356E+02 -0.44112580878E+02  0.62799685408E+02  0.00000000000E+00 0. -1.
        -14    1    6    6    0    0 -0.26827828586E+02  0.68743365640E+02 -0.11708523793E+03  0.13839918947E+03  0.00000000000E+00 0.  1.
</event>
<event>
12    1  0.8407180E-002  0.2487735E+03  0.7818608E-02  0.1114153E+00
         21   -1    0    0  503  502  0.00000000000E+00  0.00000000000E+00  0.93258656754E+03  0.93258656754E+03  0.00000000000E+00 0.  1.
         21   -1    0    0  501  503 -0.00000000000E+00 -0.00000000000E+00 -0.11963554471E+03  0.11963554471E+03  0.00000000000E+00 0. -1.
          6    2    1    2  501    0  0.86250002550E+02  0.15653757874E+03  0.55208324217E+02  0.25482585932E+03  0.17304676542E+03 0.  0.
         24    2    3    3    0    0  0.34913885893E+02  0.13041258975E+03  0.95970118660E+02  0.18410439293E+03  0.80360069854E+02 0.  0.
         -6    2    1    2    0  502 -0.86250002550E+02 -0.15653757874E+03  0.75774269862E+03  0.79739625293E+03  0.17240565646E+03 0.  0.
        -24    2    5    5    0    0 -0.19964323287E+02 -0.45294041645E+02  0.50052231373E+03  0.50938005161E+03  0.80593585501E+02 0.  0.
          5    1    3    3  501    0  0.51336116656E+02  0.26124988991E+02 -0.40761794444E+02  0.70721466397E+02  0.47000000000E+01 0. -1.
        -13    1    4    4    0    0  0.56841995578E+02  0.66165613284E+02  0.68336123868E+02  0.11080941597E+03  0.00000000000E+00 0.  1.
         14    1    4    4    0    0 -0.21928109684E+02  0.64246976461E+02  0.27633994792E+02  0.73294976956E+02  0.00000000000E+00 0. -1.
         -5    1    5    5    0  502 -0.66285679263E+02 -0.11124353709E+03  0.25722038488E+03  0.28801620131E+03  0.47000000000E+01 0.  1.
         11    1    6    6    0    0  0.79697425741E+01  0.21095932472E+02  0.11798659100E+03  0.12012239932E+03  0.00000000000E+00 0. -1.
        -12    1    6    6    0    0 -0.27934065861E+02 -0.66389974116E+02  0.38253572274E+03  0.38925765229E+03  0.00000000000E+00 0.  1.
</event>
<event>
12    1  0.8407180E-002  0.2059661E+03  0.7818608E-02  0.1145373E+00
         21   -1    0    0  501  502  0.00000000000E+00  0.00000000000E+00  0.14943608732E+03  0.14943608732E+03  0.00000000000E+00 0.  1.
         21   -1    0    0  502  503 -0.00000000000E+00 -0.00000000000E+00 -0.59745989146E+03  0.59745989146E+03  0.00000000000E+00 0. -1.
         -6    2    1    2    0  503  0.90847641662E+02 -0.66975850778E+02 -0.49549413146E+03  0.53553025181E+03  0.16893536547E+03 0.  0.
        -24    2    3    3    0    0  0.10618126926E+02 -0.33292591469E+02 -0.38377897999E+03  0.39384855906E+03  0.81297236881E+02 0.  0.
          6    2    1    2  501    0 -0.90847641662E+02  0.66975850778E+02  0.47470327323E+02  0.21136572697E+03  0.17228749222E+03 0.  0.
         24    2    5    5    0    0 -0.31128967052E+02  0.80473846094E+02  0.78955463305E+02  0.14235906234E+03  0.81160858486E+02 0.  0.
          5    1    5    5  501    0 -0.59718674610E+02 -0.13497995316E+02 -0.31485135982E+02  0.69006664624E+02  0.47000000000E+01 0. -1.
        -11    1    6    6    0    0 -0.28466936481E+02  0.39176302505E+02  0.87588950714E+02  0.10008483121E+03  0.00000000000E+00 0.  1.
         12    1    6    6    0    0 -0.26620305716E+01  0.41297543589E+02 -0.86334874082E+01  0.42274231135E+02  0.00000000000E+00 0. -1.
         -5    1    3    3    0  503  0.80229514736E+02 -0.33683259309E+02 -0.11171515147E+03  0.14168169275E+03  0.47000000000E+01 0.  1.
         11    1    4    4    0    0  0.43916124473E+02 -0.91777176010E+01 -0.15325269213E+03  0.15968482750E+03  0.00000000000E+00 0. -1.
        -12    1    4    4    0    0 -0.33297997547E+02 -0.24114873868E+02 -0.23052628786E+03  0.23416373156E+03  0.00000000000E+00 0.  1.
</event>
<event>
12    1  0.8407180E-002  0.2381087E+03  0.7818608E-02  0.1121593E+00
         21   -1    0    0  503  502  0.00000000000E+00  0.00000000000E+00  0.38800056269E+02  0.38800056269E+02  0.00000000000E+00 0. -1.
         21   -1    0    0  501  503 -0.00000000000E+00 -0.00000000000E+00 -0.18010316526E+04  0.18010316526E+04  0.00000000000E+00 0.  1.
          6    2    1    2  501    0  0.15987726544E+03  0.20117080702E+02 -0.12965650640E+04  0.13182475995E+04  0.17530068924E+03 0.  0.
         24    2    3    3    0    0  0.13400839979E+03  0.60940684997E+02 -0.11835957543E+04  0.11952845164E+04  0.78320797709E+02 0.  0.
         -6    2    1    2    0  502 -0.15987726544E+03 -0.20117080702E+02 -0.46566653238E+03  0.52158410935E+03  0.17099481513E+03 0.  0.
        -24    2    5    5    0    0 -0.13727218900E+03 -0.60397061241E+02 -0.26126413125E+03  0.31197519278E+03  0.81105584007E+02 0.  0.
          5    1    3    3  501    0  0.25868865658E+02 -0.40823604294E+02 -0.11296930969E+03  0.12296308312E+03  0.47000000000E+01 0. -1.
        -13    1    4    4    0    0  0.98263883820E+02  0.55709557209E+01 -0.60591544827E+03  0.61385695147E+03  0.00000000000E+00 0.  1.
         14    1    4    4    0    0  0.35744515966E+02  0.55369729276E+02 -0.57768030601E+03  0.58142756496E+03  0.00000000000E+00 0. -1.
         -5    1    5    5    0  502 -0.22605076447E+02  0.40279980538E+02 -0.20440240113E+03  0.20960891656E+03  0.47000000000E+01 0.  1.
         11    1    6    6    0    0 -0.13693887760E+02  0.13861325302E+02 -0.90991221079E+01  0.21504718651E+02  0.00000000000E+00 0. -1.
        -12    1    6    6    0    0 -0.12357830124E+03 -0.74258386543E+02 -0.25216500914E+03  0.29047047413E+03  0.00000000000E+00 0.  1.
</event>
<event>
12    1  0.8407180E-002  0.1950053E+03  0.7818608E-02  0.1154321E+00
         21   -1    0    0  501  502  0.00000000000E+00  0.00000000000E+00  0.82427325078E+03  0.82427325078E+03  0.00000000000E+00 0.  1.
         21   -1    0    0  502  503 -0.00000000000E+00 -0.00000000000E+00 -0.84332529611E+02  0.84332529611E+02  0.00000000000E+00 0.  1.
         -6    2    1    2    0  503 -0.17694035907E+02 -0.87522229426E+02  0.63638366590E+02  0.20512655493E+03  0.17336044036E+03 0.  0.
        -24    2    3    3    0    0  0.45871202303E+02 -0.20590951053E+02  0.63532234194E+02  0.11270125105E+03  0.78339471146E+02 0.  0.
          6    2    1    2  501    0  0.17694035907E+02  0.87522229426E+02  0.67630235458E+03  0.70347922547E+03  0.17182818832E+03 0.  0.
         24    2    5    5    0    0 -0.21944327023E+02  0.99814417655E+02  0.61974954279E+03  0.63317553973E+03  0.79857979296E+02 0.  0.
          5    1    5    5  501    0  0.39638362931E+02 -0.12292188229E+02  0.56552811786E+02  0.70303685737E+02  0.47000000000E+01 0. -1.
        -13    1    6    6    0    0  0.22778761293E+02  0.61734408247E+02  0.23782542041E+03  0.24676089585E+03  0.00000000000E+00 0.  1.
         14    1    6    6    0    0 -0.44723088316E+02  0.38080009408E+02  0.38192412238E+03  0.38641464387E+03  0.00000000000E+00 0. -1.
         -5    1    3    3    0  503 -0.63565238211E+02 -0.66931278373E+02  0.10613239556E+00  0.92425303881E+02  0.47000000000E+01 0.  1.
         11    1    4    4    0    0  0.90601297307E+01  0.18411296476E+02  0.54604450465E+02  0.58332733514E+02  0.00000000000E+00 0. -1.
        -12    1    4    4    0    0  0.36811072573E+02 -0.39002247529E+02  0.89277837296E+01  0.54368517531E+02  0.00000000000E+00 0.  1.
</event>
<event>
12    1  0.8407180E-002  0.1901903E+03  0.7818608E-02  0.1158810E+00
         21   -1    0    0  501  502  0.00000000000E+00  0.00000000000E+00  0.15496123262E+03  0.15496123262E+03  0.00000000000E+00 0. -1.
         21   -1    0    0  502  503 -0.00000000000E+00 -0.00000000000E+00 -0.33738373806E+03  0.33738373806E+03  0.00000000000E+00 0.  1.
         -6    2    1    2    0  503 -0.36795721919E+02 -0.68239128047E+02 -0.22931155948E+03  0.29645993475E+03  0.17115547859E+03 0.  0.
        -24    2    3    3    0    0  0.45739320367E+02 -0.19627815925E+02 -0.12783344437E+03  0.15683547157E+03  0.76017360239E+02 0.  0.
          6    2    1    2  501    0  0.36795721919E+02  0.68239128047E+02  0.46889054035E+02  0.19588503594E+03  0.17367170227E+03 0.  0.
         24    2    5    5    0    0 -0.72863248795E+01  0.10549976829E+03  0.32180539412E+02  0.13613545382E+03  0.79460575328E+02 0.  0.
          5    1    5    5  501    0  0.44082046798E+02 -0.37260640239E+02  0.14708514624E+02  0.59749582119E+02  0.47000000000E+01 0. -1.
        -11    1    6    6    0    0 -0.26272999382E+02  0.55036308303E+01 -0.58615818396E+01  0.27475781890E+02  0.00000000000E+00 0.  1.
         12    1    6    6    0    0  0.18986674502E+02  0.99996137455E+02  0.38042121251E+02  0.10865967193E+03  0.00000000000E+00 0. -1.
         -5    1    3    3    0  503 -0.82535042286E+02 -0.48611312122E+02 -0.10147811511E+03  0.13962446318E+03  0.47000000000E+01 0.  1.
         13    1    4    4    0    0 -0.96988433185E+01 -0.22883552137E+02 -0.10417495481E+02  0.26949002435E+02  0.00000000000E+00 0. -1.
        -14    1    4    4    0    0  0.55438163686E+02  0.32557362123E+01 -0.11741594889E+03  0.12988646914E+03  0.00000000000E+00 0.  1.
</event>
<event>
12    1  0.8407180E-002  0.2445331E+03  0.7818608E-02  0.1117023E+00
         21   -1    0    0  503  502  0.00000000000E+00  0.00000000000E+00  0.10148010884E+04  0.10148010884E+04  0.00000000000E+00 0.  1.
         21   -1    0    0  501  503 -0.00000000000E+00 -0.00000000000E+00 -0.60647218116E+02  0.60647218116E+02  0.00000000000E+00 0.  1.
          6    2    1    2  501    0  0.33297586038E+02 -0.16918962846E+03  0.37727818537E+03  0.44888464888E+03  0.17153640789E+03 0.  0.
         24    2    3    3    0    0 -0.21542314535E+02 -0.16060839715E+03  0.32844465811E+03  0.37480458672E+03  0.79645817430E+02 0.  0.
         -6    2    1    2    0  502 -0.33297586038E+02  0.16918962846E+03  0.57687568492E+03  0.62656365764E+03  0.17338570186E+03 0.  0.
        -24    2    5    5    0    0 -0.42071456369E+02  0.10716416795E+03  0.20384463350E+03  0.24828017416E+03  0.82681581624E+02 0.  0.
          5    1    3    3  501    0  0.54839900573E+02 -0.85812313103E+01  0.48833527257E+02  0.74080062162E+02  0.47000000000E+01 0. -1.
        -13    1    4    4    0    0 -0.31948250703E+01 -0.13949399523E+03  0.20332668648E+03  0.24659789749E+03  0.00000000000E+00 0.  1.
         14    1    4    4    0    0 -0.18347489465E+02 -0.21114401921E+02  0.12511797163E+03  0.12820668923E+03  0.00000000000E+00 0. -1.
         -5    1    5    5    0  502  0.87738703312E+01  0.62025460503E+02  0.37303105141E+03  0.37828348347E+03  0.47000000000E+01 0.  1.
         13    1    6    6    0    0 -0.36035363380E+02  0.11603695417E+02  0.24851528542E+02  0.45285666962E+02  0.00000000000E+00 0. -1.
        -14    1    6    6    0    0 -0.60360929886E+01  0.95560472536E+02  0.17899310496E+03  0.20299450720E+03  0.00000000000E+00 0.  1.
</event>
<event>
12    1  0.8407180E-002  0.3422946E+03  0.7818608E-02  0.1065873E+00
         21   -1    0    0  503  502  0.00000000000E+00  0.00000000000E+00  0.70592135568E+03  0.70592135568E+03  0.00000000000E+00 0.  1.
         21   -1    0    0  501  503 -0.00000000000E+00 -0.00000000000E+00 -0.16609923522E+03  0.16609923522E+03  0.00000000000E+00 0.  1.
          6    2    1    2  501    0  0.29525991158E+03 -0.21918034839E+02  0.29025684585E+03  0.44879241876E+03  0.17177538513E+03 0.  0.
         24    2    3    3    0    0  0.13915686602E+03  0.43242407388E+02  0.99012592611E+02  0.19342895532E+03  0.79854418181E+02 0.  0.
         -6    2    1    2    0  502 -0.29525991158E+03  0.21918034839E+02  0.24956527461E+03  0.42322817213E+03  0.17082284320E+03 0.  0.
        -24    2    5    5    0    0 -0.13800722912E+03  0.35855269438E+02  0.19941127107E+03  0.25751707799E+03  0.78858067404E+02 0.  0.
          5    1    3    3  501    0  0.15610304556E+03 -0.65160442228E+02  0.19124425324E+03  0.25536346344E+03  0.47000000000E+01 0. -1.
        -11    1    4    4    0    0  0.64530408869E+02  0.92554366105E+00  0.84650050752E+02  0.10644557949E+03  0.00000000000E+00 0.  1.
         12    1    4    4    0    0  0.74626457149E+02  0.42316863727E+02  0.14362541859E+02  0.86983375831E+02  0.00000000000E+00 0. -1.
         -5    1    5    5    0  502 -0.15725268246E+03 -0.13937234598E+02  0.50154003540E+02  0.16571109414E+03  0.47000000000E+01 0.  1.
         13    1    6    6    0    0 -0.12164213715E+03  0.25814526009E+02  0.20292801128E+03  0.23799785092E+03  0.00000000000E+00 0. -1.
        -14    1    6    6    0    0 -0.16365091967E+02  0.10040743429E+02 -0.35167402099E+01  0.19519227069E+02  0.00000000000E+00 0.  1.
</event>
<event>
12    1  0.8407180E-002  0.1757326E+03  0.7818608E-02  0.1172623E+00
         21   -1    0    0  503  502  0.00000000000E+00  0.00000000000E+00  0.39100458885E+02  0.39100458885E+02  0.00000000000E+00 0.  1.
         21   -1    0    0  501  503 -0.00000000000E+00 -0.00000000000E+00 -0.77950821016E+03  0.77950821016E+03  0.00000000000E+00 0.  1.
          6    2    1    2  501    0 -0.29807197101E+02 -0.21017058986E+01 -0.35959924068E+03  0.40024189840E+03  0.17317354638E+03 0.  0.
         24    2    3    3    0    0 -0.67148513436E+02 -0.24785292968E+02 -0.14964981158E+03  0.18574301307E+03  0.83559363286E+02 0.  0.
         -6    2    1    2    0  502  0.29807197101E+02  0.21017058986E+01 -0.38080851059E+03  0.41836677065E+03  0.17065388034E+03 0.  0.
        -24    2    5    5    0    0 -0.21446524690E+01 -0.53760525564E+02 -0.29392348877E+03  0.31014197399E+03  0.83079679439E+02 0.  0.
          5    1    3    3  501    0  0.37341316334E+02  0.22683587069E+02 -0.20994942910E+03  0.21449888533E+03  0.47000000000E+01 0. -1.
        -13    1    4    4    0    0 -0.31623111564E+02 -0.54944859089E+02 -0.88324337299E+02  0.10872050076E+03  0.00000000000E+00 0.  1.
         14    1    4    4    0    0 -0.35525401872E+02  0.30159566121E+02 -0.61325474282E+02  0.77022512311E+02  0.00000000000E+00 0. -1.
         -5    1    5    5    0  502  0.31951849570E+02  0.55862231463E+02 -0.86885021820E+02  0.10822479666E+03  0.47000000000E+01 0.  1.
         11    1    6    6    0    0 -0.33034259562E+02 -0.27362197856E+02 -0.23297322822E+03  0.23688916658E+03  0.00000000000E+00 0. -1.
        -12    1    6    6    0    0  0.30889607093E+02 -0.26398327708E+02 -0.60950260557E+02  0.73252807414E+02  0.00000000000E+00 0.  1.
</event>
<event>
12    1  0.8407180E-002  0.1851921E+03  0.7818608E-02  0.1164930E+00
         21   -1    0    0  501  502  0.00000000000E+00  0.00000000000E+00  0.97838545862E+02  0.97838545862E+02  0.00000000000E+00 0.  1.
         21   -1    0    0  502  503 -0.00000000000E+00 -0.00000000000E+00 -0.16184314425E+04  0.16184314425E+04  0.00000000000E+00 0.  1.
         -6    2    1    2    0  503 -0.22048863843E+02  0.32989224833E+02 -0.15283398822E+04  0.15395190503E+04  0.18089131948E+03 0.  0.
        -24    2    3    3    0    0 -0.75412220200E+02  0.26808815805E+02 -0.69246863151E+03  0.70191014220E+03  0.82215123510E+02 0.  0.
          6    2    1    2  501    0  0.22048863843E+02 -0.32989224833E+02  0.77469855761E+01  0.17675093802E+03  0.17206521134E+03 0.  0.
         24    2    5    5    0    0  0.60164518473E+02 -0.62194993216E+02 -0.22072220275E+02  0.12003184888E+03  0.80202714254E+02 0.  0.
          5    1    5    5  501    0 -0.38115654630E+02  0.29205768383E+02  0.29819205851E+02  0.56719089135E+02  0.47000000000E+01 0. -1.
        -13    1    6    6    0    0  0.24764931007E+02 -0.18560701557E+02  0.30234294306E+02  0.43265621483E+02  0.00000000000E+00 0.  1.
         14    1    6    6    0    0  0.35399587465E+02 -0.43634291659E+02 -0.52306514581E+02  0.76766227398E+02  0.00000000000E+00 0. -1.
         -5    1    3    3    0  503  0.53363356357E+02  0.61804090272E+01 -0.83587125069E+03  0.83760890813E+03  0.47000000000E+01 0.  1.
         11    1    4    4    0    0 -0.78971084130E+02  0.44760492772E+01 -0.63870215844E+03  0.64358131914E+03  0.00000000000E+00 0. -1.
        -12    1    4    4    0    0  0.35588639295E+01  0.22332766528E+02 -0.53766473072E+02  0.58328823062E+02  0.00000000000E+00 0.  1.
</event>
<event>
12    1  0.8407180E-002  0.1936025E+03  0.7818608E-02  0.1156385E+00
         21   -1    0    0  501  502  0.00000000000E+00  0.00000000000E+00  0.27052211252E+03  0.27052211252E+03  0.00000000000E+00 0. -1.
         21   -1    0    0  502  503 -0.00000000000E+00 -0.00000000000E+00 -0.28041745130E+03  0.28041745130E+03  0.00000000000E+00 0.  1.
         -6    2    1    2    0  503 -0.69879876170E+02  0.55123921655E+02 -0.20331767855E+03  0.27727166103E+03  0.16619161160E+03 0.  0.
        -24    2    3    3    0    0 -0.48955847773E+02  0.35951418450E+02 -0.35027639005E+02  0.10654079898E+03  0.80217372394E+02 0.  0.
          6    2    1    2  501    0  0.69879876170E+02 -0.55123921655E+02  0.19342233977E+03  0.27366790279E+03  0.17193043844E+03 0.  0.
         24    2    5    5    0    0  0.62748395420E+02 -0.80800446358E+02  0.20550295070E+03  0.24403391725E+03  0.82795028602E+02 0.  0.
          5    1    5    5  501    0  0.71314807495E+01  0.25676524702E+02 -0.12080610932E+02  0.29633985540E+02  0.47000000000E+01 0. -1.
        -13    1    6    6    0    0 -0.21130173746E+01 -0.64556646860E+01 -0.69939933397E+01  0.97496867539E+01  0.00000000000E+00 0.  1.
         14    1    6    6    0    0  0.64861412795E+02 -0.74344781672E+02  0.21249694404E+03  0.23428423049E+03  0.00000000000E+00 0. -1.
         -5    1    3    3    0  503 -0.20924028397E+02  0.19172503205E+02 -0.16829003955E+03  0.17073086205E+03  0.47000000000E+01 0.  1.
         13    1    4    4    0    0  0.10916211400E+02  0.31743702278E+02 -0.32105678464E+02  0.46449982726E+02  0.00000000000E+00 0. -1.
        -14    1    4    4    0    0 -0.59872059173E+02  0.42077161726E+01 -0.29219605411E+01  0.60090816257E+02  0.00000000000E+00 0.  1.
</event>
<event>
12    1  0.8407180E-002  0.3421059E+03  0.7818608E-02  0.1065920E+00
         21   -1    0    0  503  502  0.00000000000E+00  0.00000000000E+00  0.46413355459E+03  0.46413355459E+03  0.00000000000E+00 0. -1.
         21   -1    0    0  501  503 -0.00000000000E+00 -0.00000000000E+00 -0.25378395297E+03  0.25378395297E+03  0.00000000000E+00 0.  1.
          6    2    1    2  501    0  0.65199441161E+02 -0.28786844788E+03  0.75375249933E+02  0.35014786159E+03  0.17263512465E+03 0.  0.
         24    2    3    3    0    0  0.29912744933E+02 -0.86352211238E+02 -0.38166547408E+02  0.11612270418E+03  0.60632667672E+02 0.  0.
         -6    2    1    2    0  502 -0.65199441161E+02  0.28786844788E+03  0.13497435169E+03  0.36776964597E+03  0.17296596911E+03 0.  0.
        -24    2    5    5    0    0  0.23014820501E+02  0.19304630366E+03  0.10480505984E+03  0.23470849024E+03  0.79419251438E+02 0.  0.
          5    1    3    3  501    0  0.35286696228E+02 -0.20151623664E+03  0.11354179734E+03  0.23402515742E+03  0.47000000000E+01 0. -1.
        -11    1    4    4    0    0  0.14652289453E+02 -0.38924796709E+02  0.14098243798E+02  0.43915713170E+02  0.00000000000E+00 0.  1.
         12    1    4    4    0    0  0.15260455480E+02 -0.47427414529E+02 -0.52264791206E+02  0.72206991006E+02  0.00000000000E+00 0. -1.
         -5    1    5    5    0  502 -0.88214261662E+02  0.94822144214E+02  0.30169291850E+02  0.13306115573E+03  0.47000000000E+01 0.  1.
         11    1    6    6    0    0 -0.18069225632E+02  0.13956862554E+03  0.85053405952E+02  0.16443837756E+03  0.00000000000E+00 0. -1.
        -12    1    6    6    0    0  0.41084046134E+02  0.53477678124E+02  0.19751653892E+02  0.70270112678E+02  0.00000000000E+00 0.  1.
</event>
<event>
12    1  0.8407180E-002  0.3096752E+03  0.7818608E-02  0.1080536E+00
         21   -1    0    0  501  502  0.00000000000E+00  0.00000000000E+00  0.26909231900E+03  0.26909231900E+03  0.00000000000E+00 0. -1.
         21   -1    0    0  502  503 -0.00000000000E+00 -0.00000000000E+00 -0.18377417024E+04  0.18377417024E+04  0.00000000000E+00 0.  1.
         -6    2    1    2    0  503  0.22257440825E+03  0.12938403382E+03 -0.17302750044E+04  0.17577685682E+04  0.17210215810E+03 0.  0.
        -24    2    3    3    0    0  0.22209605218E+03  0.67089178570E+02 -0.13181152648E+04  0.13409009407E+04  0.82218412176E+02 0.  0.
          6    2    1    2  501    0 -0.22257440825E+03 -0.12938403382E+03  0.16162562098E+03  0.34906545330E+03  0.17159328049E+03 0.  0.
         24    2    5    5    0    0 -0.19933857106E+03 -0.14177119412E+03  0.89946335525E+02  0.27255822597E+03  0.79766571130E+02 0.  0.
          5    1    5    5  501    0 -0.23235837190E+02  0.12387160306E+02  0.71679285456E+02  0.76507227331E+02  0.47000000000E+01 0. -1.
        -13    1    6    6    0    0 -0.81830773822E+02 -0.76267032919E+02  0.20921475432E+01  0.11188079789E+03  0.00000000000E+00 0.  1.
         14    1    6    6    0    0 -0.11750779724E+03 -0.65504161205E+02  0.87854187982E+02  0.16067742808E+03  0.00000000000E+00 0. -1.
         -5    1    3    3    0  503  0.47835607012E+00  0.62294855247E+02 -0.41215973965E+03  0.41686762744E+03  0.47000000000E+01 0.  1.
         11    1    4    4    0    0  0.18790743957E+03  0.53691182808E+02 -0.88947942849E+03  0.91069512059E+03  0.00000000000E+00 0. -1.
        -12    1    4    4    0    0  0.34188612614E+02  0.13397995763E+02 -0.42863583629E+03  0.43020582013E+03  0.00000000000E+00 0.  1.
</event>
<event>
12    1  0.8407180E-002  0.2340803E+03  0.7818608E-02  0.1124590E+00
         21   -1    0    0  503  502  0.00000000000E+00  0.00000000000E+00  0.85010909230E+03  0.85010909230E+03  0.00000000000E+00 0.  1.
         21   -1    0    0  501  503 -0.00000000000E+00 -0.00000000000E+00 -0.63433416044E+02  0.63433416044E+02  0.00000000000E+00 0. -1.
          6    2    1    2  501    0  0.14281896519E+03  0.54731802955E+02  0.42424087827E+03  0.48453475647E+03  0.17720265337E+03 0.  0.
         24    2    3    3    0    0  0.10900981070E+03  0.68145194011E+01  0.39707529394E+03  0.41973364566E+03  0.81104671486E+02 0.  0.
         -6    2    1    2    0  502 -0.14281896519E+03 -0.54731802955E+02  0.36243479798E+03  0.42900775187E+03  0.17116027957E+03 0.  0.
        -24    2    5    5    0    0 -0.18763221251E+02 -0.66934907840E+02  0.14604277996E+03  0.17923517764E+03  0.77229624927E+02 0.  0.
          5    1    3    3  501    0  0.33809154493E+02  0.47917283553E+02  0.27165584329E+02  0.64801110813E+02  0.47000000000E+01 0. -1.
        -13    1    4    4    0    0  0.11443820114E+03  0.24570868072E+02  0.33031870161E+03  0.35044296836E+03  0.00000000000E+00 0.  1.
         14    1    4    4    0    0 -0.54283904480E+01 -0.17756348671E+02  0.66756592327E+02  0.69290677295E+02  0.00000000000E+00 0. -1.
         -5    1    5    5    0  502 -0.12405574394E+03  0.12203104885E+02  0.21639201803E+03  0.24977257423E+03  0.47000000000E+01 0.  1.
         13    1    6    6    0    0 -0.19204726587E+02 -0.62443069597E+02  0.47948544498E+02  0.81037160510E+02  0.00000000000E+00 0. -1.
        -14    1    6    6    0    0  0.44150533569E+00 -0.44918382427E+01  0.98094235460E+02  0.98198017130E+02  0.00000000000E+00 0.  1.
</event>
<event>
12    1  0.8407180E-002  0.1866357E+03  0.7818608E-02  0.1162306E+00
         21   -1    0    0  501  502  0.00000000000E+00  0.00000000000E+00  0.83929518133E+02  0.83929518133E+02  0.00000000000E+00 0.  1.
         21   -1    0    0  502  503 -0.00000000000E+00 -0.00000000000E+00 -0.57322258803E+03  0.57322258803E+03  0.00000000000E+00 0.  1.
         -6    2    1    2    0  503  0.67244743135E+02 -0.26565600947E+02 -0.42278930452E+03  0.46215114380E+03  0.17206189893E+03 0.  0.
        -24    2    3    3    0    0 -0.33296149209E+01  0.33657936620E+02 -0.14192939348E+03  0.16632688157E+03  0.79854466166E+02 0.  0.
          6    2    1    2  501    0 -0.67244743135E+02  0.26565600947E+02 -0.66503765373E+02  0.19500096236E+03  0.16844891772E+03 0.  0.
         24    2    5    5    0    0 -0.90809699019E+02  0.71403496476E+01 -0.94649394302E+02  0.15320486252E+03  0.78840573501E+02 0.  0.
          5    1    5    5  501    0  0.23564955884E+02  0.19425251299E+02  0.28145628929E+02  0.41796099838E+02  0.47000000000E+01 0. -1.
        -11    1    6    6    0    0 -0.20177289413E+02  0.31756967825E+02 -0.75135482011E+01  0.38367713251E+02  0.00000000000E+00 0.  1.
         12    1    6    6    0    0 -0.70632409606E+02 -0.24616618178E+02 -0.87135846101E+02  0.11483714927E+03  0.00000000000E+00 0. -1.
         -5    1    3    3    0  503  0.70574358056E+02 -0.60223537566E+02 -0.28085991104E+03  0.29582426223E+03  0.47000000000E+01 0.  1.
         13    1    4    4    0    0  0.28224718409E+02  0.17673966548E+02 -0.18852028331E+02  0.38267516185E+02  0.00000000000E+00 0. -1.
        -14    1    4    4    0    0 -0.31554333330E+02  0.15983970072E+02 -0.12307736515E+03  0.12805936538E+03  0.00000000000E+00 0.  1.
</event>
<event>
12    1  0.8407180E-002  0.3140086E+03  0.7818608E-02  0.1079217E+00
         21   -1    0    0  503  502  0.00000000000E+00  0.00000000000E+00  0.71389448126E+02  0.71389448126E+02  0.00000000000E+00 0.  1.
         21   -1    0    0  501  503 -0.00000000000E+00 -0.00000000000E+00 -0.16782872648E+04  0.16782872648E+04  0.00000000000E+00 0. -1.
          6    2    1    2  501    0 -0.19457454139E+03  0.16457636038E+03 -0.11819855932E+04  0.12213285519E+04  0.17207224768E+03 0.  0.
         24    2    3    3    0    0 -0.71759197773E+02  0.12118158036E+03 -0.46218471246E+03  0.48982180990E+03  0.80475705308E+02 0.  0.
         -6    2    1    2    0  502  0.19457454139E+03 -0.16457636038E+03 -0.42491222341E+03  0.52834816103E+03  0.18345776384E+03 0.  0.
        -24    2    5    5    0    0  0.15589820779E+02 -0.50949040029E+02 -0.89279585305E+02  0.13133675578E+03  0.80247441546E+02 0.  0.
          5    1    3    3  501    0 -0.12281534361E+03  0.43394780025E+02 -0.71980088079E+03  0.73150674197E+03  0.47000000000E+01 0. -1.
        -13    1    4    4    0    0 -0.94458877456E+01  0.62133413287E+01 -0.20818208323E+01  0.11496276952E+02  0.00000000000E+00 0.  1.
         14    1    4    4    0    0 -0.62313310028E+02  0.11496823903E+03 -0.46010289162E+03  0.47832553295E+03  0.00000000000E+00 0. -1.
         -5    1    5    5    0  502  0.17898472061E+03 -0.11362732035E+03 -0.33563263810E+03  0.39701140525E+03  0.47000000000E+01 0.  1.
         13    1    6    6    0    0 -0.17513770500E+02  0.14078591637E+02 -0.29017171095E+02  0.36700614681E+02  0.00000000000E+00 0. -1.
        -14    1    6    6    0    0  0.33103591279E+02 -0.65027631666E+02 -0.60262414210E+02  0.94636141099E+02  0.00000000000E+00 0.  1.
</event>
<event>
12    1  0.8407180E-002  0.3774725E+03  0.7818608E-02  0.1051910E+00
         21   -1    0    0  503  502  0.00000000000E+00  0.00000000000E+00  0.47924137843E+03  0.47924137843E+03  0.00000000000E+00 0.  1.
         21   -1    0    0  501  503 -0.00000000000E+00 -0.00000000000E+00 -0.32824724347E+03  0.32824724347E+03  0.00000000000E+00 0. -1.
          6    2    1    2  501    0 -0.22886577020E+03  0.24639102122E+03 -0.49046317035E+02  0.38064558505E+03  0.17145682867E+03 0.  0.
         24    2    3    3    0    0 -0.29205012384E+02  0.86042712573E+02 -0.25251906654E+02  0.12342143715E+03  0.79617279680E+02 0.  0.
         -6    2    1    2    0  502  0.22886577020E+03 -0.24639102122E+03  0.20004045200E+03  0.42684303685E+03  0.17056001749E+03 0.  0.
        -24    2    5    5    0    0  0.91947361258E+02 -0.12732396004E+03  0.16582839324E+03  0.24213740421E+03  0.80409940124E+02 0.  0.
          5    1    3    3  501    0 -0.19966075782E+03  0.16034830864E+03 -0.23794410382E+02  0.25722414790E+03  0.47000000000E+01 0. -1.
        -11    1    4    4    0    0 -0.15090966940E+01  0.92248876100E+02 -0.16542882508E+02  0.93732595591E+02  0.00000000000E+00 0.  1.
         12    1    4    4    0    0 -0.27695915690E+02 -0.62061635267E+01 -0.87090241457E+01  0.29688841561E+02  0.00000000000E+00 0. -1.
         -5    1    5    5    0  502  0.13691840894E+03 -0.11906706117E+03  0.34212058757E+02  0.18470563264E+03  0.47000000000E+01 0.  1.
         11    1    6    6    0    0 -0.99279167660E+01 -0.30652677850E+02  0.52831392560E+02  0.61881388402E+02  0.00000000000E+00 0. -1.
        -12    1    6    6    0    0  0.10187527802E+03 -0.96671282194E+02  0.11299700068E+03  0.18025601581E+03  0.00000000000E+00 0.  1.
</event>
<event>
12    1  0.8407180E-002  0.1756915E+03  0.7818608E-02  0.1172820E+00
         21   -1    0    0  503  502  0.00000000000E+00  0.00000000000E+00  0.65599466614E+02  0.65599466614E+02  0.00000000000E+00 0. -1.
         21   -1    0    0  501  503 -0.00000000000E+00 -0.00000000000E+00 -0.48324913930E+03  0.48324913930E+03  0.00000000000E+00 0. -1.
          6    2    1    2  501    0  0.14738605271E+02  0.32762232578E+02 -0.26419650166E+03  0.31557757982E+03  0.16881595607E+03 0.  0.
         24    2    3    3    0    0  0.23244621825E+02 -0.42591955201E+02 -0.16885097296E+03  0.19366176552E+03  0.81485221126E+02 0.  0.
         -6    2    1    2    0  502 -0.14738605271E+02 -0.32762232578E+02 -0.15345317103E+03  0.23327102610E+03  0.17197937536E+03 0.  0.
        -24    2    5    5    0    0 -0.12823457993E+02 -0.54167291382E+02 -0.22051281929E+02  0.10004043355E+03  0.80145447656E+02 0.  0.
          5    1    3    3  501    0 -0.85060165538E+01  0.75354187779E+02 -0.95345528698E+02  0.12191581430E+03  0.47000000000E+01 0. -1.
        -11    1    4    4    0    0 -0.60005849842E+00 -0.41381662262E+02 -0.26101502253E+02  0.48929443709E+02  0.00000000000E+00 0.  1.
         12    1    4    4    0    0  0.23844680323E+02 -0.12102929385E+01 -0.14274947071E+03  0.14473232181E+03  0.00000000000E+00 0. -1.
         -5    1    5    5    0  502 -0.19151472784E+01  0.21405058804E+02 -0.13140188910E+03  0.13323059255E+03  0.47000000000E+01 0.  1.
         13    1    6    6    0    0 -0.46702026500E+02 -0.36812574014E+02 -0.11903556821E+02  0.60646018416E+02  0.00000000000E+00 0. -1.
        -14    1    6    6    0    0  0.33878568507E+02 -0.17354717368E+02 -0.10147725108E+02  0.39394415136E+02  0.00000000000E+00 0.  1.
</event>
<event>
12    1  0.8407180E-002  0.1943870E+03  0.7818608E-02  0.1154891E+00
         21   -1    0    0  501  502  0.00000000000E+00  0.00000000000E+00  0.41592259112E+02  0.41592259112E+02  0.00000000000E+00 0.  1.
         21   -1    0    0  502  503 -0.00000000000E+00 -0.00000000000E+00 -0.12419948783E+04  0.12419948783E+04  0.00000000000E+00 0.  1.
         -6    2    1    2    0  503 -0.79474825839E+02 -0.43999883037E+02 -0.93454193288E+03  0.95424203454E+03  0.17016756014E+03 0.  0.
        -24    2    3    3    0    0 -0.20549104965E+02 -0.10870210611E+02 -0.79337239605E+03  0.79765102616E+03  0.79164218771E+02 0.  0.
          6    2    1    2  501    0  0.79474825839E+02  0.43999883037E+02 -0.26586068630E+03  0.32934510286E+03  0.17185474858E+03 0.  0.
         24    2    5    5    0    0  0.41905255294E+02  0.86396968679E+02 -0.12234277064E+03  0.17498038015E+03  0.80186615419E+02 0.  0.
          5    1    5    5  501    0  0.37569570545E+02 -0.42397085642E+02 -0.14351791566E+03  0.15436472271E+03  0.47000000000E+01 0. -1.
        -11    1    6    6    0    0  0.34310643829E+02  0.10141044696E+03 -0.11330179580E+03  0.15588006917E+03  0.00000000000E+00 0.  1.
         12    1    6    6    0    0  0.75946114651E+01 -0.15013478285E+02 -0.90409748405E+01  0.19100310982E+02  0.00000000000E+00 0. -1.
         -5    1    3    3    0  503 -0.58925720875E+02 -0.33129672426E+02 -0.14116953683E+03  0.15659100838E+03  0.47000000000E+01 0.  1.
         13    1    4    4    0    0  0.11799186450E+01  0.12353918530E+02 -0.19427742739E+02  0.23053171127E+02  0.00000000000E+00 0. -1.
        -14    1    4    4    0    0 -0.21729023610E+02 -0.23224129141E+02 -0.77394465331E+03  0.77459785504E+03  0.00000000000E+00 0.  1.
</event>
<event>
12    1  0.8407180E-002  0.2613182E+03  0.7818608E-02  0.1106407E+00
         21   -1    0    0  503  502  0.00000000000E+00  0.00000000000E+00  0.20131130310E+03  0.20131130310E+03  0.00000000000E+00 0. -1.
         21   -1    0    0  501  503 -0.00000000000E+00 -0.00000000000E+00 -0.56911412101E+03  0.56911412101E+03  0.00000000000E+00 0.  1.
          6    2    1    2  501    0 -0.70147571741E+02  0.18363765153E+03 -0.42890734620E+03  0.50205822224E+03  0.17163180943E+03 0.  0.
         24    2    3    3    0    0 -0.10819710392E+03  0.17529410442E+03 -0.34554395421E+03  0.40992285008E+03  0.78749491351E+02 0.  0.
         -6    2    1    2    0  502  0.70147571741E+02 -0.18363765153E+03  0.61104528287E+02  0.26836720187E+03  0.17217352520E+03 0.  0.
        -24    2    5    5    0    0  0.37654322423E+02 -0.20185930691E+03  0.34786654196E+02  0.22251351638E+03  0.78339810302E+02 0.  0.
          5    1    3    3  501    0  0.38049532179E+02  0.83435471102E+01 -0.83363391996E+02  0.92135372157E+02  0.47000000000E+01 0. -1.
        -11    1    4    4    0    0 -0.39862237131E+02  0.13459475210E+03 -0.20546817379E+03  0.24884114547E+03  0.00000000000E+00 0.  1.
         12    1    4    4    0    0 -0.68334866790E+02  0.40699352322E+02 -0.14007578042E+03  0.16108170461E+03  0.00000000000E+00 0. -1.
         -5    1    5    5    0  502  0.32493249319E+02  0.18221655381E+02  0.26317874091E+02  0.45853685487E+02  0.47000000000E+01 0.  1.
         11    1    6    6    0    0  0.11964428495E+02 -0.95107833422E+02  0.55518431092E+02  0.11077429178E+03  0.00000000000E+00 0. -1.
        -12    1    6    6    0    0  0.25689893928E+02 -0.10675147349E+03 -0.20731776896E+02  0.11173922461E+03  0.00000000000E+00 0.  1.
</event>
<event>
12    1  0.8407180E-002  0.2480181E+03  0.7818608E-02  0.1114719E+00
         21   -1    0    0  501  502  0.00000000000E+00  0.00000000000E+00  0.13024250442E+03  0.13024250442E+03  0.00000000000E+00 0. -1.
         21   -1    0    0  502  503 -0.00000000000E+00 -0.00000000000E+00 -0.49829364285E+03  0.49829364285E+03  0.00000000000E+00 0. -1.
         -6    2    1    2    0  503 -0.19638771095E+02  0.17683825583E+03 -0.25797414086E+03  0.35718776064E+03  0.17139133276E+03 0.  0.
        -24    2    3    3    0    0  0.98549793054E+01  0.98149096427E+02 -0.23896823847E+03  0.27090230737E+03  0.80943655684E+02 0.  0.
          6    2    1    2  501    0  0.19638771095E+02 -0.17683825583E+03 -0.11007699758E+03  0.27134838664E+03  0.17278759065E+03 0.  0.
         24    2    5    5    0    0 -0.49687030022E+02 -0.13558589158E+03 -0.90675143661E+02  0.18824395720E+03  0.79758828964E+02 0.  0.
          5    1    5    5  501    0  0.69325801117E+02 -0.41252364246E+02 -0.19401853916E+02  0.83104429435E+02  0.47000000000E+01 0. -1.
        -13    1    6    6    0    0 -0.43290215495E+01  0.10714150124E+02 -0.38691825779E+01  0.12186222313E+02  0.00000000000E+00 0.  1.
         14    1    6    6    0    0 -0.45358008473E+02 -0.14630004170E+03 -0.86805961083E+02  0.17605773489E+03  0.00000000000E+00 0. -1.
         -5    1    3    3    0  503 -0.29493750400E+02  0.78689159400E+02 -0.19005902385E+02  0.86285453265E+02  0.47000000000E+01 0.  1.
         11    1    4    4    0    0 -0.33532135731E+02  0.63309431616E+02 -0.14388715751E+03  0.16073581541E+03  0.00000000000E+00 0. -1.
        -12    1    4    4    0    0  0.43387115037E+02  0.34839664811E+02 -0.95081080962E+02  0.11016649197E+03  0.00000000000E+00 0.  1.
</event>
<event>
12    1  0.8407180E-002  0.2075300E+03  0.7818608E-02  0.1148567E+00
         21   -1    0    0  501  502  0.00000000000E+00  0.00000000000E+00  0.33614702578E+02  0.33614702578E+02  0.00000000000E+00 0.  1.
         21   -1    0    0  502  503 -0.00000000000E+00 -0.00000000000E+00 -0.13782294022E+04  0.13782294022E+04  0.00000000000E+00 0.  1.
         -6    2    1    2    0  503 -0.35756900538E+02 -0.65744772400E+02 -0.93175124846E+03  0.94975654834E+03  0.16815522911E+03 0.  0.
        -24    2    3    3    0    0 -0.50266604400E+02 -0.37697283398E+02 -0.89652408914E+03  0.90221461002E+03  0.79296553720E+02 0.  0.
          6    2    1    2  501    0  0.35756900538E+02  0.65744772400E+02 -0.41286345118E+03  0.46208755646E+03  0.19356587890E+03 0.  0.
         24    2    5    5    0    0  0.47397870247E+02  0.11743089213E+03 -0.34537191708E+03  0.37615639608E+03  0.78583081331E+02 0.  0.
          5    1    5    5  501    0 -0.11640969709E+02 -0.51686119732E+02 -0.67491534106E+02  0.85931160382E+02  0.47000000000E+01 0. -1.
        -13    1    6    6    0    0  0.30677936172E+02  0.63671488893E+02 -0.28489233820E+03  0.29352825865E+03  0.00000000000E+00 0.  1.
         14    1    6    6    0    0  0.16719934075E+02  0.53759403238E+02 -0.60479578883E+02  0.82628137422E+02  0.00000000000E+00 0. -1.
         -5    1    3    3    0  503  0.14509703862E+02 -0.28047489002E+02 -0.35227159312E+02  0.47541938314E+02  0.47000000000E+01 0.  1.
         11    1    4    4    0    0 -0.51306283564E+02  0.51020826949E+01 -0.64640269158E+03  0.64845570833E+03  0.00000000000E+00 0. -1.
        -12    1    4    4    0    0  0.10396791641E+01 -0.42799366093E+02 -0.25012139756E+03  0.25375890169E+03  0.00000000000E+00 0.  1.
</event>
<event>
12    1  0.8407180E-002  0.2789651E+03  0.7818608E-02  0.1096292E+00
         21   -1    0    0  503  502  0.00000000000E+00  0.00000000000E+00  0.17968177125E+04  0.17968177125E+04  0.00000000000E+00 0. -1.
         21   -1    0    0  501  503 -0.00000000000E+00 -0.00000000000E+00 -0.43880400408E+02  0.43880400408E+02  0.00000000000E+00 0.  1.
          6    2    1    2  501    0  0.57035657845E+02  0.21181763772E+03  0.76830090006E+03  0.81737860465E+03  0.17234190550E+03 0.  0.
         24    2    3    3    0    0  0.99252963935E+02  0.19251601368E+03  0.59687454436E+03  0.63971617459E+03  0.77871663402E+02 0.  0.
         -6    2    1    2    0  502 -0.57035657845E+02 -0.21181763772E+03  0.98463641205E+03  0.10233195083E+04  0.17191327514E+03 0.  0.
        -24    2    5    5    0    0  0.18812407874E+02 -0.17669503770E+03  0.71908305582E+03  0.74488243978E+03  0.78704287657E+02 0.  0.
          5    1    3    3  501    0 -0.42217306089E+02  0.19301624037E+02  0.17142635570E+03  0.17766243006E+03  0.47000000000E+01 0. -1.
        -13    1    4    4    0    0  0.47131521878E+02  0.37603816126E+02  0.10131981480E+03  0.11790306278E+03  0.00000000000E+00 0.  1.
         14    1    4    4    0    0  0.52121442057E+02  0.15491219755E+03  0.49555472956E+03  0.52181311181E+03  0.00000000000E+00 0. -1.
         -5    1    5    5    0  502 -0.75848065719E+02 -0.35122600023E+02  0.26555335623E+03  0.27843706849E+03  0.47000000000E+01 0.  1.
         13    1    6    6    0    0 -0.36070606617E+01 -0.44731906081E+02  0.78126104499E+02  0.90097960645E+02  0.00000000000E+00 0. -1.
        -14    1    6    6    0    0  0.22419468535E+02 -0.13196313161E+03  0.64095695132E+03  0.65478447914E+03  0.00000000000E+00 0.  1.
</event>
<event>
12    1  0.8407180E-002  0.2141313E+03  0.7818608E-02  0.1140083E+00
         21   -1    0    0  501  502  0.00000000000E+00  0.00000000000E+00  0.14281088345E+04  0.14281088345E+04  0.00000000000E+00 0. -1.
         21   -1    0    0  502  503 -0.00000000000E+00 -0.00000000000E+00 -0.42682930788E+02  0.42682930788E+02  0.00000000000E+00 0.  1.
         -6    2    1    2    0  503  0.10695876057E+03 -0.38923572857E+02  0.31519686694E+03  0.38105283440E+03  0.18137523725E+03 0.  0.
        -24    2    3    3    0    0  0.37552950408E+02  0.46720944862E+02  0.10855080372E+03  0.14679478151E+03  0.78564369252E+02 0.  0.
          6    2    1    2  501    0 -0.10695876057E+03  0.38923572857E+02  0.10702290368E+04  0.10897389309E+04  0.17083771647E+03 0.  0.
         24    2    5    5    0    0 -0.81435567213E+02  0.86689066891E+02  0.89149122667E+03  0.90291743701E+03  0.79727942954E+02 0.  0.
          5    1    5    5  501    0 -0.25523193352E+02 -0.47765494034E+02  0.17873781008E+03  0.18682149387E+03  0.47000000000E+01 0. -1.
        -11    1    6    6    0    0  0.46791025518E+01  0.25500482993E+02  0.69729124563E+02  0.74393006701E+02  0.00000000000E+00 0.  1.
         12    1    6    6    0    0 -0.86114669765E+02  0.61188583898E+02  0.82176210211E+03  0.82852443031E+03  0.00000000000E+00 0. -1.
         -5    1    3    3    0  503  0.69405810157E+02 -0.85644517719E+02  0.20664606322E+03  0.23425805289E+03  0.47000000000E+01 0.  1.
         13    1    4    4    0    0  0.19701695670E+02  0.65829385790E+02  0.95272552850E+02  0.11746711954E+03  0.00000000000E+00 0. -1.
        -14    1    4    4    0    0  0.17851254738E+02 -0.19108440928E+02  0.13278250870E+02  0.29327661969E+02  0.00000000000E+00 0.  1.
</event>
<event>
12    1  0.8407180E-002  0.2068723E+03  0.7818608E-02  0.1144128E+00
         21   -1    0    0  503  502  0.00000000000E+00  0.00000000000E+00  0.30932186871E+03  0.30932186871E+03  0.00000000000E+00 0.  1.
         21   -1    0    0  501  503 -0.00000000000E+00 -0.00000000000E+00 -0.19228134990E+03  0.19228134990E+03  0.00000000000E+00 0. -1.
          6    2    1    2  501    0  0.51600098707E+02 -0.10302251515E+03 -0.74518014585E+02  0.21988422112E+03  0.17181364144E+03 0.  0.
         24    2    3    3    0    0  0.31748932501E+02  0.11007514270E+02 -0.63159246744E+02  0.10348822455E+03  0.74776748304E+02 0.  0.
         -6    2    1    2    0  502 -0.51600098707E+02  0.10302251515E+03  0.19155853340E+03  0.28171899749E+03  0.17144886414E+03 0.  0.
        -24    2    5    5    0    0 -0.15013171716E+02  0.64023249114E+02  0.27498950562E+02  0.10910039276E+03  0.82597407140E+02 0.  0.
          5    1    3    3  501    0  0.19851166206E+02 -0.11403002942E+03 -0.11358767841E+02  0.11639599656E+03  0.47000000000E+01 0. -1.
        -13    1    4    4    0    0 -0.15727467935E+02 -0.19672831196E+02 -0.23397186362E+02  0.34377345223E+02  0.00000000000E+00 0.  1.
         14    1    4    4    0    0  0.47476400435E+02  0.30680345466E+02 -0.39762060383E+02  0.69110879332E+02  0.00000000000E+00 0. -1.
         -5    1    5    5    0  502 -0.36586926991E+02  0.38999266034E+02  0.16405958284E+03  0.17261860473E+03  0.47000000000E+01 0.  1.
         13    1    6    6    0    0 -0.43372014958E+02  0.61947413568E+02  0.28061368939E+02  0.80660115026E+02  0.00000000000E+00 0. -1.
        -14    1    6    6    0    0  0.28358843241E+02  0.20758355460E+01 -0.56241837712E+00  0.28440277735E+02  0.00000000000E+00 0.  1.
</event>
<event>
12    1  0.8407180E-002  0.2121633E+03  0.7818608E-02  0.1139927E+00
         21   -1    0    0  501  502  0.00000000000E+00  0.00000000000E+00  0.15374114361E+03  0.15374114361E+03  0.00000000000E+00 0. -1.
         21   -1    0    0  502  503 -0.00000000000E+00 -0.00000000000E+00 -0.89940349295E+03  0.89940349295E+03  0.00000000000E+00 0. -1.
         -6    2    1    2    0  503 -0.51226785527E+02 -0.11206462015E+03 -0.80553172469E+03  0.83300338020E+03  0.17271539973E+03 0.  0.
        -24    2    3    3    0    0 -0.54720923191E+02 -0.14506466397E+03 -0.72710990174E+03  0.74771982842E+03  0.79737045551E+02 0.  0.
          6    2    1    2  501    0  0.51226785527E+02  0.11206462015E+03  0.59869375343E+02  0.22014125636E+03  0.17232285978E+03 0.  0.
         24    2    5    5    0    0  0.37141536009E+02 -0.50850973052E+00  0.59238476797E+02  0.10659130322E+03  0.80453443117E+02 0.  0.
          5    1    5    5  501    0  0.14085249518E+02  0.11257312988E+03  0.63089854585E+00  0.11354995314E+03  0.47000000000E+01 0. -1.
        -11    1    6    6    0    0  0.51363513891E+02 -0.23788546277E+02  0.55107848215E+02  0.78999876127E+02  0.00000000000E+00 0.  1.
         12    1    6    6    0    0 -0.14221977882E+02  0.23280036547E+02  0.41306285822E+01  0.27591427092E+02  0.00000000000E+00 0. -1.
         -5    1    3    3    0  503  0.34941376641E+01  0.33000043823E+02 -0.78421822948E+02  0.85283551784E+02  0.47000000000E+01 0.  1.
         11    1    4    4    0    0 -0.74706011346E+01 -0.11994331670E+03 -0.47210591110E+03  0.48716136998E+03  0.00000000000E+00 0. -1.
        -12    1    4    4    0    0 -0.47250322056E+02 -0.25121347275E+02 -0.25500399064E+03  0.26055845844E+03  0.00000000000E+00 0.  1.
</event>
<event>
12    1  0.8407180E-002  0.1795791E+03  0.7818608E-02  0.1168312E+00
         21   -1    0    0  501  502  0.00000000000E+00  0.00000000000E+00  0.53766333245E+02  0.53766333245E+02  0.00000000000E+00 0. -1.
         21   -1    0    0  502  503 -0.00000000000E+00 -0.00000000000E+00 -0.59981100064E+03  0.59981100064E+03  0.00000000000E+00 0. -1.
         -6    2    1    2    0  503 -0.44156771049E+02 -0.10790732970E+02 -0.28915404951E+03  0.34038026551E+03  0.17373082758E+03 0.  0.
        -24    2    3    3    0    0 -0.57292201393E+02 -0.58634565217E+02 -0.25639854342E+03  0.28074315463E+03  0.79725135474E+02 0.  0.
          6    2    1    2  501    0  0.44156771049E+02  0.10790732970E+02 -0.25689061788E+03  0.31319706837E+03  0.17330133795E+03 0.  0.
         24    2    5    5    0    0  0.69239593081E+02 -0.31299427500E+01 -0.76344601145E+02  0.13032583681E+03  0.79701993860E+02 0.  0.
          5    1    5    5  501    0 -0.25082822033E+02  0.13920675720E+02 -0.18054601674E+03  0.18287123156E+03  0.47000000000E+01 0. -1.
        -13    1    6    6    0    0 -0.53761413527E+01 -0.20316587976E+01  0.12823052224E+02  0.14052088872E+02  0.00000000000E+00 0.  1.
         14    1    6    6    0    0  0.74615734434E+02 -0.10982839524E+01 -0.89167653370E+02  0.11627374794E+03  0.00000000000E+00 0. -1.
         -5    1    3    3    0  503  0.13135430345E+02  0.47843832247E+02 -0.32755506093E+02  0.59637110878E+02  0.47000000000E+01 0.  1.
         13    1    4    4    0    0 -0.26105853607E+02 -0.28121231230E+02 -0.26238631973E+02  0.46484245140E+02  0.00000000000E+00 0. -1.
        -14    1    4    4    0    0 -0.31186347786E+02 -0.30513333987E+02 -0.23015991145E+03  0.23425890949E+03  0.00000000000E+00 0.  1.
</event>
<event>
12    1  0.8407180E-002  0.2081347E+03  0.7818608E-02  0.1143259E+00
         21   -1    0    0  501  502  0.00000000000E+00  0.00000000000E+00  0.37229998883E+03  0.37229998883E+03  0.00000000000E+00 0. -1.
         21   -1    0    0  502  503 -0.00000000000E+00 -0.00000000000E+00 -0.11667893218E+03  0.11667893218E+03  0.00000000000E+00 0. -1.
         -6    2    1    2    0  503  0.10884254879E+03  0.41755430355E+02  0.14956552130E+03  0.25630038654E+03  0.17242339338E+03 0.  0.
        -24    2    3    3    0    0  0.12060816225E+03 -0.14105756842E+02  0.12279048411E+03  0.19307148087E+03  0.86335349423E+02 0.  0.
          6    2    1    2  501    0 -0.10884254879E+03 -0.41755430355E+02  0.10605553535E+03  0.23267853448E+03  0.17117624671E+03 0.  0.
         24    2    5    5    0    0 -0.43410266887E+02 -0.65002034758E+02  0.83723234676E+01  0.11273734883E+03  0.80807785678E+02 0.  0.
          5    1    5    5  501    0 -0.65432281901E+02  0.23246604403E+02  0.97683211885E+02  0.11994118565E+03  0.47000000000E+01 0. -1.
        -13    1    6    6    0    0  0.20365736302E+02 -0.37799038678E+02  0.60751875016E+01  0.43364022453E+02  0.00000000000E+00 0.  1.
         14    1    6    6    0    0 -0.63776003189E+02 -0.27202996081E+02  0.22971359660E+01  0.69373326373E+02  0.00000000000E+00 0. -1.
         -5    1    3    3    0  503 -0.11765613460E+02  0.55861187197E+02  0.26775037189E+02  0.63228905665E+02  0.47000000000E+01 0.  1.
         11    1    4    4    0    0  0.10366732438E+03 -0.16687192029E+02  0.46425231912E+02  0.11480713689E+03  0.00000000000E+00 0. -1.
        -12    1    4    4    0    0  0.16940837865E+02  0.25814351873E+01  0.76365252201E+02  0.78264343982E+02  0.00000000000E+00 0.  1.
</event>
<event>
12    1  0.8407180E-002  0.1771385E+03  0.7818608E-02  0.1170732E+00
         21   -1    0    0  501  502  0.00000000000E+00  0.00000000000E+00  0.16351005816E+03  0.16351005816E+03  0.00000000000E+00 0. -1.
         21   -1    0    0  502  503 -0.00000000000E+00 -0.00000000000E+00 -0.21456614689E+03  0.21456614689E+03  0.00000000000E+00 0. -1.
         -6    2    1    2    0  503  0.26296429031E+02  0.32611598024E+02 -0.87701087266E+02  0.19718702511E+03  0.17156987981E+03 0.  0.
        -24    2    3    3    0    0  0.52506977306E+02  0.75799860927E+02 -0.79146761500E+02  0.14573330432E+03  0.80444916252E+02 0.  0.
          6    2    1    2  501    0 -0.26296429031E+02 -0.32611598024E+02  0.36644998532E+02  0.18088917994E+03  0.17211339575E+03 0.  0.
         24    2    5    5    0    0 -0.59671408376E+02 -0.49606710904E+02 -0.20095869315E+02  0.11273979115E+03  0.79277448249E+02 0.  0.
          5    1    5    5  501    0  0.33374979345E+02  0.16995112880E+02  0.56740867848E+02  0.68149388788E+02  0.47000000000E+01 0. -1.
        -13    1    6    6    0    0 -0.46076233815E+02 -0.23732925877E+01  0.19039474487E+02  0.49911455890E+02  0.00000000000E+00 0.  1.
         14    1    6    6    0    0 -0.13595174561E+02 -0.47233418316E+02 -0.39135343802E+02  0.62828335261E+02  0.00000000000E+00 0. -1.
         -5    1    3    3    0  503 -0.26210548275E+02 -0.43188262903E+02 -0.85543257654E+01  0.51453720786E+02  0.47000000000E+01 0.  1.
         11    1    4    4    0    0  0.44955203917E+02  0.50553534595E+02 -0.93746761992E+02  0.11560746344E+03  0.00000000000E+00 0. -1.
        -12    1    4    4    0    0  0.75517733887E+01  0.25246326332E+02  0.14600000491E+02  0.30125840883E+02  0.00000000000E+00 0.  1.
</event>
<event>
12    1  0.8407180E-002  0.1785964E+03  0.7818608E-02  0.1169272E+00
         21   -1    0    0  501  502  0.00000000000E+00  0.00000000000E+00  0.43050849883E+02  0.43050849883E+02  0.00000000000E+00 0.  1.
         21   -1    0    0  502  503 -0.00000000000E+00 -0.00000000000E+00 -0.91888916427E+03  0.91888916427E+03  0.00000000000E+00 0.  1.
         -6    2    1    2    0  503 -0.37155725858E+02  0.31828844727E+02 -0.65022121228E+03  0.67419058414E+03  0.17132336536E+03 0.  0.
        -24    2    3    3    0    0  0.21096548748E+02 -0.70548032121E+01 -0.17173872432E+03  0.19058656548E+03  0.79587781060E+02 0.  0.
          6    2    1    2  501    0  0.37155725858E+02 -0.31828844727E+02 -0.22561710210E+03  0.28774943001E+03  0.17176447360E+03 0.  0.
         24    2    5    5    0    0  0.78494792313E+02  0.68135178340E+00 -0.95165099669E+02  0.14701689564E+03  0.79972962604E+02 0.  0.
          5    1    5    5  501    0 -0.41339066455E+02 -0.32510196511E+02 -0.13045200243E+03  0.14073253438E+03  0.47000000000E+01 0. -1.
        -13    1    6    6    0    0 -0.64515405052E+01  0.64750918249E+01  0.87645287313E+01  0.12663575834E+02  0.00000000000E+00 0.  1.
         14    1    6    6    0    0  0.84946332818E+02 -0.57937400415E+01 -0.10392962840E+03  0.13435331980E+03  0.00000000000E+00 0. -1.
         -5    1    3    3    0  503 -0.58252274606E+02  0.38883647940E+02 -0.47848248796E+03  0.48360401866E+03  0.47000000000E+01 0.  1.
         11    1    4    4    0    0  0.20777422691E+02  0.25144115302E+02 -0.27099938521E+02  0.42406774174E+02  0.00000000000E+00 0. -1.
        -12    1    4    4    0    0  0.31912605700E+00 -0.32198918514E+02 -0.14463878580E+03  0.14817979131E+03  0.00000000000E+00 0.  1.
</event>
<event>
12    1  0.8407180E-002  0.1814259E+03  0.7818608E-02  0.1166876E+00
         21   -1    0    0  503  502  0.00000000000E+00  0.00000000000E+00  0.46510674139E+03  0.46510674139E+03  0.00000000000E+00 0. -1.
         21   -1    0    0  501  503 -0.00000000000E+00 -0.00000000000E+00 -0.92407879659E+02  0.92407879659E+02  0.00000000000E+00 0.  1.
          6    2    1    2  501    0 -0.64487254218E+02 -0.10332295515E+02  0.48510084384E+02  0.18601266165E+03  0.16727856922E+03 0.  0.
         24    2    3    3    0    0  0.10000758108E+02  0.37568413804E+02  0.37897898864E+02  0.96694967914E+02  0.80014156266E+02 0.  0.
         -6    2    1    2    0  502  0.64487254218E+02  0.10332295515E+02  0.32418877734E+03  0.37150195939E+03  0.16926305028E+03 0.  0.
        -24    2    5    5    0    0 -0.13472040914E+02  0.49084979864E+02  0.17927836476E+03  0.20238501785E+03  0.78918516485E+02 0.  0.
          5    1    3    3  501    0 -0.74488012326E+02 -0.47900709318E+02  0.10612185520E+02  0.89317693739E+02  0.47000000000E+01 0. -1.
        -11    1    4    4    0    0  0.14874359920E+02 -0.19722326424E+01 -0.20865032805E+02  0.25699919816E+02  0.00000000000E+00 0.  1.
         12    1    4    4    0    0 -0.48736018123E+01  0.39540646446E+02  0.58762931669E+02  0.70995048097E+02  0.00000000000E+00 0. -1.
         -5    1    5    5    0  502  0.77959295131E+02 -0.38752684350E+02  0.14491041258E+03  0.16911694154E+03  0.47000000000E+01 0.  1.
         11    1    6    6    0    0 -0.23040566900E+02 -0.12708167890E+02  0.87187954722E+02  0.91071975398E+02  0.00000000000E+00 0. -1.
        -12    1    6    6    0    0  0.95685259861E+01  0.61793147755E+02  0.92090410042E+02  0.11131304246E+03  0.00000000000E+00 0.  1.
</event>
<event>
12    1  0.8407180E-002  0.1857812E+03  0.7818608E-02  0.1163091E+00
         21   -1    0    0  503  502  0.00000000000E+00  0.00000000000E+00  0.11975235416E+03  0.11975235416E+03  0.00000000000E+00 0.  1.
         21   -1    0    0  501  503 -0.00000000000E+00 -0.00000000000E+00 -0.29439011764E+03  0.29439011764E+03  0.00000000000E+00 0.  1.
          6    2    1    2  501    0 -0.53235295489E+02 -0.27771617203E+02 -0.47609091478E+02  0.19178449682E+03  0.17581071703E+03 0.  0.
         24    2    3    3    0    0 -0.83603949841E+02  0.23525647064E+02 -0.55888149987E+02  0.13141648130E+03  0.81263335826E+02 0.  0.
         -6    2    1    2    0  502  0.53235295489E+02  0.27771617203E+02 -0.12702867200E+03  0.22235797498E+03  0.17234130706E+03 0.  0.
        -24    2    5    5    0    0  0.96713543659E+02 -0.50539485407E+01 -0.70154796556E+02  0.14346181831E+03  0.79249895326E+02 0.  0.
          5    1    3    3  501    0  0.30368654352E+02 -0.51297264267E+02  0.82790585091E+01  0.60368015524E+02  0.47000000000E+01 0. -1.
        -13    1    4    4    0    0 -0.21381887247E+02  0.26155245997E+02  0.15081320054E+02  0.36996326980E+02  0.00000000000E+00 0.  1.
         14    1    4    4    0    0 -0.62222062594E+02 -0.26295989330E+01 -0.70969470041E+02  0.94420154320E+02  0.00000000000E+00 0. -1.
         -5    1    5    5    0  502 -0.43478248169E+02  0.32825565744E+02 -0.56873875444E+02  0.78896156676E+02  0.47000000000E+01 0.  1.
         11    1    6    6    0    0  0.18718318293E+02  0.29441684421E+02 -0.39826531211E+02  0.52946584494E+02  0.00000000000E+00 0. -1.
        -12    1    6    6    0    0  0.77995225366E+02 -0.34495632962E+02 -0.30328265346E+02  0.90515233813E+02  0.00000000000E+00 0.  1.
</event>
<event>
12    1  0.8407180E-002  0.2210193E+03  0.7818608E-02  0.1133967E+00
         21   -1    0    0  501  502  0.00000000000E+00  0.00000000000E+00  0.48431320975E+02  0.48431320975E+02  0.00000000000E+00 0. -1.
         21   -1    0    0  502  503 -0.00000000000E+00 -0.00000000000E+00 -0.20875592041E+04  0.20875592041E+04  0.00000000000E+00 0.  1.
         -6    2    1    2    0  503 -0.10620037022E+02  0.13295988588E+03 -0.17896075562E+04  0.18026589647E+04  0.17056676485E+03 0.  0.
        -24    2    3    3    0    0  0.19055069928E+01 -0.28293036097E+01 -0.80945103725E+03  0.81305071649E+03  0.76346905392E+02 0.  0.
          6    2    1    2  501    0  0.10620037022E+02 -0.13295988588E+03 -0.24952032684E+03  0.33333156032E+03  0.17623398980E+03 0.  0.
         24    2    5    5    0    0 -0.62916781527E+02 -0.93441452097E+02 -0.15739027247E+03  0.20891529447E+03  0.78638896392E+02 0.  0.
          5    1    5    5  501    0  0.73536818549E+02 -0.39518433779E+02 -0.92130054372E+02  0.12441626585E+03  0.47000000000E+01 0. -1.
        -11    1    6    6    0    0 -0.43887647065E+02 -0.70781737555E+02 -0.15877575469E+03  0.17929283369E+03  0.00000000000E+00 0.  1.
         12    1    6    6    0    0 -0.19029134462E+02 -0.22659714542E+02  0.13854822154E+01  0.29622460776E+02  0.00000000000E+00 0. -1.
         -5    1    3    3    0  503 -0.12525544015E+02  0.13578918949E+03 -0.98015651900E+03  0.98960824823E+03  0.47000000000E+01 0.  1.
         13    1    4    4    0    0  0.25151126953E+02 -0.15309785862E+01 -0.97000072362E+02  0.10021944482E+03  0.00000000000E+00 0. -1.
        -14    1    4    4    0    0 -0.23245619961E+02 -0.12983250235E+01 -0.71245096489E+03  0.71283127167E+03  0.00000000000E+00 0.  1.
</event>
<event>
12    1  0.8407180E-002  0.2412346E+03  0.7818608E-02  0.1120382E+00
         21   -1    0    0  501  502  0.00000000000E+00  0.00000000000E+00  0.46754958818E+03  0.46754958818E+03  0.00000000000E+00 0. -1.
         21   -1    0    0  502  503 -0.00000000000E+00 -0.00000000000E+00 -0.23941878980E+03  0.23941878980E+03  0.00000000000E+00 0. -1.
         -6    2    1    2    0  503 -0.81806044107E+02 -0.13872267140E+03 -0.13637270659E+03  0.26986779429E+03  0.16821088811E+03 0.  0.
        -24    2    3    3    0    0 -0.82881345856E+02 -0.88018345066E+02 -0.15775708328E+03  0.21462771329E+03  0.81001305104E+02 0.  0.
          6    2    1    2  501    0  0.81806044107E+02  0.13872267140E+03  0.36450350497E+03  0.43710058368E+03  0.17960486270E+03 0.  0.
         24    2    5    5    0    0  0.14286272640E+00  0.12144922645E+03  0.15886173365E+03  0.21511437870E+03  0.79291932042E+02 0.  0.
          5    1    5    5  501    0  0.81663181381E+02  0.17273444952E+02  0.20564177132E+03  0.22198620499E+03  0.47000000000E+01 0. -1.
        -13    1    6    6    0    0 -0.33023319642E+02  0.90560332586E+02  0.85323466663E+02  0.12873153243E+03  0.00000000000E+00 0.  1.
         14    1    6    6    0    0  0.33166182369E+02  0.30888893867E+02  0.73538266991E+02  0.86382846267E+02  0.00000000000E+00 0. -1.
         -5    1    3    3    0  503  0.10753017490E+01 -0.50704326338E+02  0.21384376682E+02  0.55240081004E+02  0.47000000000E+01 0.  1.
         11    1    4    4    0    0 -0.24173084225E+02 -0.60877338256E+02 -0.31311372985E+02  0.72600209313E+02  0.00000000000E+00 0. -1.
        -12    1    4    4    0    0 -0.58708261631E+02 -0.27141006810E+02 -0.12644571029E+03  0.14202750398E+03  0.00000000000E+00 0.  1.
</event>
<event>
12    1  0.8407180E-002  0.2463209E+03  0.7818608E-02  0.1115853E+00
         21   -1    0    0  501  502  0.00000000000E+00  0.00000000000E+00  0.50465416001E+02  0.50465416001E+02  0.00000000000E+00 0.  1.
         21   -1    0    0  502  503 -0.00000000000E+00 -0.00000000000E+00 -0.15264888659E+04  0.15264888659E+04  0.00000000000E+00 0. -1.
         -6    2    1    2    0  503  0.14635440499E+03 -0.99182999936E+02 -0.11062152616E+04  0.11333076329E+04  0.17151415849E+03 0.  0.
        -24    2    3    3    0    0  0.76000476593E+02  0.17101821773E+02 -0.47804384568E+03  0.49058432329E+03  0.77964832539E+02 0.  0.
          6    2    1    2  501    0 -0.14635440499E+03  0.99182999936E+02 -0.36980818831E+03  0.44364664897E+03  0.16972735095E+03 0.  0.
         24    2    5    5    0    0 -0.13718004179E+03  0.12819206494E+03 -0.26163655505E+03  0.33117937801E+03  0.77295045803E+02 0.  0.
          5    1    5    5  501    0 -0.91743632056E+01 -0.29009065004E+02 -0.10817163326E+03  0.11246727095E+03  0.47000000000E+01 0. -1.
        -13    1    6    6    0    0 -0.18650441887E+02  0.26599747574E+02 -0.81742043390E+01  0.33499301039E+02  0.00000000000E+00 0.  1.
         14    1    6    6    0    0 -0.11852959990E+03  0.10159231737E+03 -0.25346235071E+03  0.29768007697E+03  0.00000000000E+00 0. -1.
         -5    1    3    3    0  503  0.70353928400E+02 -0.11628482171E+03 -0.62817141589E+03  0.64272330963E+03  0.47000000000E+01 0.  1.
         11    1    4    4    0    0 -0.76319677131E+01  0.18021882334E+02 -0.38889891886E+02  0.43536867881E+02  0.00000000000E+00 0. -1.
        -12    1    4    4    0    0  0.83632444306E+02 -0.92006056170E+00 -0.43915395379E+03  0.44704745541E+03  0.00000000000E+00 0.  1.
</event>
<event>
12    1  0.8407180E-002  0.2322907E+03  0.7818608E-02  0.1126291E+00
         21   -1    0    0  501  502  0.00000000000E+00  0.00000000000E+00  0.25187546919E+03  0.25187546919E+03  0.00000000000E+00 0. -1.
         21   -1    0    0  502  503 -0.00000000000E+00 -0.00000000000E+00 -0.26427230197E+03  0.26427230197E+03  0.00000000000E+00 0. -1.
         -6    2    1    2    0  503  0.37223917444E+02 -0.14058850130E+03 -0.12547756487E+03  0.25779485546E+03  0.17193842354E+03 0.  0.
        -24    2    3    3    0    0 -0.11218640177E+02 -0.48542654311E+01 -0.52757651706E+02  0.96299530615E+02  0.79629190646E+02 0.  0.
          6    2    1    2  501    0 -0.37223917444E+02  0.14058850130E+03  0.11308073209E+03  0.25835291570E+03  0.18113042360E+03 0.  0.
         24    2    5    5    0    0 -0.11930247408E+02  0.18479993879E+02 -0.11868273413E+02  0.81761292725E+02  0.77847364100E+02 0.  0.
          5    1    5    5  501    0 -0.25293670036E+02  0.12210850742E+03  0.12494900550E+03  0.17659162298E+03  0.47000000000E+01 0. -1.
        -13    1    6    6    0    0  0.24431988173E+02 -0.16310416199E+02  0.23403954303E+01  0.29469122373E+02  0.00000000000E+00 0.  1.
         14    1    6    6    0    0 -0.36362235581E+02  0.34790410078E+02 -0.14208668843E+02  0.52292170352E+02  0.00000000000E+00 0. -1.
         -5    1    3    3    0  503  0.48442557621E+02 -0.13573423587E+03 -0.72719913161E+02  0.16149532484E+03  0.47000000000E+01 0.  1.
         11    1    4    4    0    0 -0.30753243965E+01 -0.28252311298E+02 -0.63290979606E+02  0.69378662522E+02  0.00000000000E+00 0. -1.
        -12    1    4    4    0    0 -0.81433157801E+01  0.23398045867E+02  0.10533327900E+02  0.26920868094E+02  0.00000000000E+00 0.  1.
</event>
<event>
12    1  0.8407180E-002  0.2510257E+03  0.7818608E-02  0.1112689E+00
         21   -1    0    0  503  502  0.00000000000E+00  0.00000000000E+00  0.33389387470E+03  0.33389387470E+03  0.00000000000E+00 0.  1.
         21   -1    0    0  501  503 -0.00000000000E+00 -0.00000000000E+00 -0.18884860782E+03  0.18884860782E+03  0.00000000000E+00 0.  1.
          6    2    1    2  501    0 -0.42372465417E+02 -0.17728981291E+03  0.82361761755E+02  0.26400874677E+03  0.17230802356E+03 0.  0.
         24    2    3    3    0    0  0.82164223155E+01 -0.15292426328E+03  0.97131159930E+02  0.20575807559E+03  0.97203824740E+02 0.  0.
         -6    2    1    2    0  502  0.42372465417E+02  0.17728981291E+03  0.62683505119E+02  0.25873373575E+03  0.17258858773E+03 0.  0.
        -24    2    5    5    0    0 -0.44891060193E-01  0.83829641571E+02 -0.30940292371E+02  0.11973178896E+03  0.79693091126E+02 0.  0.
          5    1    3    3  501    0 -0.50588887732E+02 -0.24365549628E+02 -0.14769398175E+02  0.58250671182E+02  0.47000000000E+01 0. -1.
        -11    1    4    4    0    0  0.23449357190E+02 -0.31329242530E+02  0.70074862679E+02  0.80261324245E+02  0.00000000000E+00 0.  1.
         12    1    4    4    0    0 -0.15232934875E+02 -0.12159502075E+03  0.27056297251E+02  0.12549675134E+03  0.00000000000E+00 0. -1.
         -5    1    5    5    0  502  0.42417356477E+02  0.93460171336E+02  0.93623797490E+02  0.13900194680E+03  0.47000000000E+01 0.  1.
         11    1    6    6    0    0 -0.20507290550E+02  0.62473352521E+02  0.12743824912E+02  0.66976666193E+02  0.00000000000E+00 0. -1.
        -12    1    6    6    0    0  0.20462399489E+02  0.21356289050E+02 -0.43684117283E+02  0.52755122762E+02  0.00000000000E+00 0.  1.
</event>
<event>
12    1  0.8407180E-002  0.2160909E+03  0.7818608E-02  0.1137234E+00
         21   -1    0    0  503  502  0.00000000000E+00  0.00000000000E+00  0.47899017130E+03  0.47899017130E+03  0.00000000000E+00 0. -1.
         21   -1    0    0  501  503 -0.00000000000E+00 -0.00000000000E+00 -0.18093810293E+03  0.18093810293E+03  0.00000000000E+00 0.  1.
          6    2    1    2  501    0  0.12211813750E+03 -0.36883822264E+02 -0.76714847837E+02  0.22732509645E+03  0.17180883489E+03 0.  0.
         24    2    3    3    0    0  0.20332199437E+02  0.29407615653E+02 -0.56133520009E+02  0.10403433044E+03  0.79962263903E+02 0.  0.
         -6    2    1    2    0  502 -0.12211813750E+03  0.36883822264E+02  0.37476691621E+03  0.43260317778E+03  0.17441907031E+03 0.  0.
        -24    2    5    5    0    0 -0.46633705304E+02 -0.12064785555E+02  0.71017420822E+02  0.11577560376E+03  0.77719076453E+02 0.  0.
          5    1    3    3  501    0  0.10178593807E+03 -0.66291437917E+02 -0.20581327827E+02  0.12329076601E+03  0.47000000000E+01 0. -1.
        -11    1    4    4    0    0  0.29794922762E+02 -0.15125623017E+02 -0.22468737443E+01  0.33489854219E+02  0.00000000000E+00 0.  1.
         12    1    4    4    0    0 -0.94627233249E+01  0.44533238670E+02 -0.53886646265E+02  0.70544476218E+02  0.00000000000E+00 0. -1.
         -5    1    5    5    0  502 -0.75484432199E+02  0.48948607818E+02  0.30374949539E+03  0.31682757402E+03  0.47000000000E+01 0.  1.
         11    1    6    6    0    0 -0.96172685638E+01  0.18996155047E+02  0.63371306332E+02  0.66852585794E+02  0.00000000000E+00 0. -1.
        -12    1    6    6    0    0 -0.37016436740E+02 -0.31060940601E+02  0.76461144900E+01  0.48923017965E+02  0.00000000000E+00 0.  1.
</event>
<event>
12    1  0.8407180E-002  0.3394096E+03  0.7818608E-02  0.1067366E+00
         21   -1    0    0  503  502  0.00000000000E+00  0.00000000000E+00  0.26553390470E+03  0.26553390470E+03  0.00000000000E+00 0.  1.
         21   -1    0    0  501  503 -0.00000000000E+00 -0.00000000000E+00 -0.53988311649E+03  0.53988311649E+03  0.00000000000E+00 0. -1.
          6    2    1    2  501    0  0.26467324880E+03  0.12122368875E+03 -0.31928995552E+03  0.46598812338E+03  0.17450428101E+03 0.  0.
         24    2    3    3    0    0  0.21471074085E+03  0.12321028383E+03 -0.32412989489E+03  0.41553305650E+03  0.79536507347E+02 0.  0.
         -6    2    1    2    0  502 -0.26467324880E+03 -0.12122368875E+03  0.44940743730E+02  0.33942889781E+03  0.16865703329E+03 0.  0.
        -24    2    5    5    0    0 -0.17571984424E+03 -0.14511378711E+03  0.51406765288E+02  0.24697704863E+03  0.80121983011E+02 0.  0.
          5    1    3    3  501    0  0.49962507951E+02 -0.19865950834E+01  0.48399393761E+01  0.50455066881E+02  0.47000000000E+01 0. -1.
        -13    1    4    4    0    0  0.87946421654E+02  0.63144873213E+02 -0.82425737782E+02  0.13607295964E+03  0.00000000000E+00 0.  1.
         14    1    4    4    0    0  0.12676431920E+03  0.60065410619E+02 -0.24170415711E+03  0.27946009686E+03  0.00000000000E+00 0. -1.
         -5    1    5    5    0  502 -0.88953404559E+02  0.23890098365E+02 -0.64660215573E+01  0.92451849182E+02  0.47000000000E+01 0.  1.
         13    1    6    6    0    0 -0.31548888202E+02 -0.27814382363E+02 -0.21612003372E+02  0.47286899907E+02  0.00000000000E+00 0. -1.
        -14    1    6    6    0    0 -0.14417095604E+03 -0.11729940475E+03  0.73018768660E+02  0.19969014872E+03  0.00000000000E+00 0.  1.
</event>
<event>
12    1  0.8407180E-002  0.2617719E+03  0.7818608E-02  0.1106829E+00
         21   -1    0    0  501  502  0.00000000000E+00  0.00000000000E+00  0.29514523434E+03  0.29514523434E+03  0.00000000000E+00 0. -1.
         21   -1    0    0  502  503 -0.00000000000E+00 -0.00000000000E+00 -0.22784002296E+03  0.22784002296E+03  0.00000000000E+00 0. -1.
         -6    2    1    2    0  503  0.17071622935E+03  0.93301927257E+02  0.37605881487E+02  0.26445932451E+03  0.17514351659E+03 0.  0.
        -24    2    3    3    0    0  0.11627438879E+03  0.11598466374E+03  0.71738465007E+02  0.19615453847E+03  0.79737192634E+02 0.  0.
          6    2    1    2  501    0 -0.17071622935E+03 -0.93301927257E+02  0.29699329894E+02  0.25852593279E+03  0.16764345240E+03 0.  0.
         24    2    5    5    0    0 -0.12600470348E+03 -0.16413475784E+02 -0.27950727142E+02  0.15242893192E+03  0.79415040472E+02 0.  0.
          5    1    5    5  501    0 -0.44711525870E+02 -0.76888451473E+02  0.57650057036E+02  0.10609700086E+03  0.47000000000E+01 0. -1.
        -13    1    6    6    0    0 -0.10278379322E+03 -0.35097410681E+02 -0.45595205242E+02  0.11779328982E+03  0.00000000000E+00 0.  1.
         14    1    6    6    0    0 -0.23220910258E+02  0.18683934897E+02  0.17644478100E+02  0.34635642103E+02  0.00000000000E+00 0. -1.
         -5    1    3    3    0  503  0.54441840563E+02 -0.22682736486E+02 -0.34132583520E+02  0.68304786041E+02  0.47000000000E+01 0.  1.
         11    1    4    4    0    0  0.93593102910E+02  0.11872343260E+03  0.38816553459E+02  0.15608218087E+03  0.00000000000E+00 0. -1.
        -12    1    4    4    0    0  0.22681285878E+02 -0.27387688601E+01  0.32921911548E+02  0.40072357604E+02  0.00000000000E+00 0.  1.
</event>
<event>
12    1  0.8407180E-002  0.2549406E+03  0.7818608E-02  0.1110924E+00
         21   -1    0    0  503  502  0.00000000000E+00  0.00000000000E+00  0.93873504449E+03  0.93873504449E+03  0.00000000000E+00 0. -1.
         21   -1    0    0  501  503 -0.00000000000E+00 -0.00000000000E+00 -0.11306479281E+03  0.11306479281E+03  0.00000000000E+00 0. -1.
          6    2    1    2  501    0 -0.10781214801E+03  0.14519568299E+03  0.78669690969E+02  0.26249347816E+03  0.17323007874E+03 0.  0.
         24    2    3    3    0    0 -0.92544285884E+02  0.15903495562E+03  0.10728301113E+03  0.22692038199E+03  0.78272941200E+02 0.  0.
         -6    2    1    2    0  502  0.10781214801E+03 -0.14519568299E+03  0.74700056071E+03  0.78930635914E+03  0.17969264106E+03 0.  0.
        -24    2    5    5    0    0 -0.26894057979E+01 -0.79732721746E+02  0.47913560735E+03  0.49220416135E+03  0.79557943672E+02 0.  0.
          5    1    3    3  501    0 -0.15267862125E+02 -0.13839272630E+02 -0.28613320160E+02  0.35573096174E+02  0.47000000000E+01 0. -1.
        -11    1    4    4    0    0 -0.18470390550E+02 -0.56803494473E+01  0.92365268650E+01  0.21418102751E+02  0.00000000000E+00 0.  1.
         12    1    4    4    0    0 -0.74073895334E+02  0.16471530507E+03  0.98046484264E+02  0.20550227924E+03  0.00000000000E+00 0. -1.
         -5    1    5    5    0  502  0.11050155381E+03 -0.65462961249E+02  0.26786495336E+03  0.29710219778E+03  0.47000000000E+01 0.  1.
         11    1    6    6    0    0  0.15147193648E+02 -0.11669345969E+02  0.19854769235E+02  0.27564886579E+02  0.00000000000E+00 0. -1.
        -12    1    6    6    0    0 -0.17836599446E+02 -0.68063375777E+02  0.45928083811E+03  0.46463927477E+03  0.00000000000E+00 0.  1.
</event>
<event>
12    1  0.8407180E-002  0.4499871E+03  0.7818608E-02  0.1027733E+00
         21   -1    0    0  503  502  0.00000000000E+00  0.00000000000E+00  0.73175301132E+03  0.73175301132E+03  0.00000000000E+00 0.  1.
         21   -1    0    0  501  503 -0.00000000000E+00 -0.00000000000E+00 -0.36459078368E+03  0.36459078368E+03  0.00000000000E+00 0. -1.
          6    2    1    2  501    0 -0.35334899894E+03 -0.21891627589E+03 -0.85615296372E+02  0.45805934207E+03  0.17236162852E+03 0.  0.
         24    2    3    3    0    0 -0.24807206491E+03 -0.14904899593E+03  0.85132699762E+01  0.30043019930E+03  0.80190250728E+02 0.  0.
         -6    2    1    2    0  502  0.35334899894E+03  0.21891627589E+03  0.45277752401E+03  0.63828445292E+03  0.17210376431E+03 0.  0.
        -24    2    5    5    0    0  0.97774272401E+02  0.41081213607E+02  0.89680515446E+02  0.15994850628E+03  0.79331301227E+02 0.  0.
          5    1    3    3  501    0 -0.10527693403E+03 -0.69867279962E+02 -0.94128566348E+02  0.15762914277E+03  0.47000000000E+01 0. -1.
        -11    1    4    4    0    0 -0.17769136499E+03 -0.93366611350E+02 -0.29656185648E+02  0.20290646775E+03  0.00000000000E+00 0.  1.
         12    1    4    4    0    0 -0.70380699916E+02 -0.55682384582E+02  0.38169455624E+02  0.97523731553E+02  0.00000000000E+00 0. -1.
         -5    1    5    5    0  502  0.25557472653E+03  0.17783506229E+03  0.36309700857E+03  0.47833594664E+03  0.47000000000E+01 0.  1.
         13    1    6    6    0    0  0.11086088125E+03  0.29866128733E+02  0.81946514453E+02  0.14105797343E+03  0.00000000000E+00 0. -1.
        -14    1    6    6    0    0 -0.13086608848E+02  0.11215084875E+02  0.77340009930E+01  0.18890532847E+02  0.00000000000E+00 0.  1.
</event>
<event>
12    1  0.8407180E-002  0.2183482E+03  0.7818608E-02  0.1137418E+00
         21   -1    0    0  501  502  0.00000000000E+00  0.00000000000E+00  0.13324861530E+04  0.13324861530E+04  0.00000000000E+00 0. -1.
         21   -1    0    0  502  503 -0.00000000000E+00 -0.00000000000E+00 -0.34504775504E+02  0.34504775504E+02  0.00000000000E+00 0.  1.
         -6    2    1    2    0  503 -0.82409163218E+02 -0.78193644918E+02  0.53818099398E+03  0.57643886554E+03  0.17244554832E+03 0.  0.
        -24    2    3    3    0    0 -0.29535141546E+02  0.27152241636E+02  0.16156821752E+03  0.18178371053E+03  0.73016845245E+02 0.  0.
          6    2    1    2  501    0  0.82409163218E+02  0.78193644918E+02  0.75980038348E+03  0.79055206293E+03  0.18646829537E+03 0.  0.
         24    2    5    5    0    0  0.84127405221E+02  0.56628399414E+02  0.75740431331E+03  0.76828452330E+03  0.79470868780E+02 0.  0.
          5    1    5    5  501    0 -0.17182420024E+01  0.21565245505E+02  0.23960701742E+01  0.22267539638E+02  0.47000000000E+01 0. -1.
        -11    1    6    6    0    0  0.34707455932E+01 -0.16518116165E+02  0.17314080081E+03  0.17396157950E+03  0.00000000000E+00 0.  1.
         12    1    6    6    0    0  0.80656659628E+02  0.73146515579E+02  0.58426351250E+03  0.59432294380E+03  0.00000000000E+00 0. -1.
         -5    1    3    3    0  503 -0.52874021672E+02 -0.10534588655E+03  0.37661277646E+03  0.39465515501E+03  0.47000000000E+01 0.  1.
         13    1    4    4    0    0  0.15058246702E+02 -0.96669988302E+01  0.12324519550E+02  0.21727757414E+02  0.00000000000E+00 0. -1.
        -14    1    4    4    0    0 -0.44593388248E+02  0.36819240466E+02  0.14924369797E+03  0.16005595312E+03  0.00000000000E+00 0.  1.
</event>
<event>
12    1  0.8407180E-002  0.2612698E+03  0.7818608E-02  0.1106463E+00
         21   -1    0    0  503  502  0.00000000000E+00  0.00000000000E+00  0.89237575711E+03  0.89237575711E+03  0.00000000000E+00 0. -1.
         21   -1    0    0  501  503 -0.00000000000E+00 -0.00000000000E+00 -0.12245042662E+03  0.12245042662E+03  0.00000000000E+00 0. -1.
          6    2    1    2  501    0 -0.17033483439E+03 -0.97444922362E+02  0.73335877552E+02  0.27085120598E+03  0.17167631212E+03 0.  0.
         24    2    3    3    0    0 -0.44807377141E+02  0.11523846379E+02  0.35103300982E+02  0.10021957059E+03  0.81677539796E+02 0.  0.
         -6    2    1    2    0  502  0.17033483439E+03  0.97444922362E+02  0.69658945293E+03  0.74397497775E+03  0.17248893554E+03 0.  0.
        -24    2    5    5    0    0  0.62099760661E+02 -0.90608335748E+01  0.19788075781E+03  0.22263942379E+03  0.80455203284E+02 0.  0.
          5    1    3    3  501    0 -0.12552745725E+03 -0.10896876874E+03  0.38232576570E+02  0.17063163539E+03  0.47000000000E+01 0. -1.
        -11    1    4    4    0    0 -0.46767975745E+01  0.39346173964E+02  0.32622709554E+02  0.51324799267E+02  0.00000000000E+00 0.  1.
         12    1    4    4    0    0 -0.40130579566E+02 -0.27822327585E+02  0.24805914275E+01  0.48894771320E+02  0.00000000000E+00 0. -1.
         -5    1    5    5    0  502  0.10823507373E+03  0.10650575594E+03  0.49870869513E+03  0.52133555397E+03  0.47000000000E+01 0.  1.
         13    1    6    6    0    0  0.28479081776E+02  0.32598560904E+02  0.54551540200E+02  0.69639032231E+02  0.00000000000E+00 0. -1.
        -14    1    6    6    0    0  0.33620678885E+02 -0.41659394479E+02  0.14332921761E+03  0.15300039156E+03  0.00000000000E+00 0.  1.
</event>
<event>
12    1  0.8407180E-002  0.2969391E+03  0.7818608E-02  0.1087700E+00
         21   -1    0    0  501  502  0.00000000000E+00  0.00000000000E+00  0.10007901591E+04  0.10007901591E+04  0.00000000000E+00 0.  1.
         21   -1    0    0  502  503 -0.00000000000E+00 -0.00000000000E+00 -0.13338363985E+03  0.13338363985E+03  0.00000000000E+00 0. -1.
         -6    2    1    2    0  503 -0.23318573950E+03  0.65009372716E+02  0.92273684723E+02  0.30411130128E+03  0.15927160144E+03 0.  0.
        -24    2    3    3    0    0 -0.13402979588E+03  0.94086315728E+02  0.80109930863E+02  0.19996036908E+03  0.82160374804E+02 0.  0.
          6    2    1    2  501    0  0.23318573950E+03 -0.65009372716E+02  0.77513283453E+03  0.83006249769E+03  0.17196229601E+03 0.  0.
         24    2    5    5    0    0  0.34949780114E+02 -0.11197491409E+02  0.17746701443E+03  0.19806587058E+03  0.79929199493E+02 0.  0.
          5    1    5    5  501    0  0.19823595938E+03 -0.53811881307E+02  0.59766582010E+03  0.63199662711E+03  0.47000000000E+01 0. -1.
        -13    1    6    6    0    0  0.35720950178E+02  0.29701982936E+02  0.10571270986E+03  0.11547021736E+03  0.00000000000E+00 0.  1.
         14    1    6    6    0    0 -0.77117006461E+00 -0.40899474345E+02  0.71754304576E+02  0.82595653216E+02  0.00000000000E+00 0. -1.
         -5    1    3    3    0  503 -0.99155943620E+02 -0.29076943012E+02  0.12163753860E+02  0.10415093220E+03  0.47000000000E+01 0.  1.
         13    1    4    4    0    0 -0.11491141476E+03  0.86834610689E+02  0.96824354570E+02  0.17355067990E+03  0.00000000000E+00 0. -1.
        -14    1    4    4    0    0 -0.19118381121E+02  0.72517050389E+01 -0.16714423707E+02  0.26409689179E+02  0.00000000000E+00 0.  1.
</event>
<event>
12    1  0.8407180E-002  0.1776130E+03  0.7818608E-02  0.1170137E+00
         21   -1    0    0  503  502  0.00000000000E+00  0.00000000000E+00  0.42053115134E+03  0.42053115134E+03  0.00000000000E+00 0. -1.
         21   -1    0    0  501  503 -0.00000000000E+00 -0.00000000000E+00 -0.16644053031E+03  0.16644053031E+03  0.00000000000E+00 0. -1.
          6    2    1    2  501    0 -0.19683935121E+01  0.47236241200E+02 -0.90480011958E+02  0.19931807814E+03  0.17118973875E+03 0.  0.
         24    2    3    3    0    0  0.49746043359E+02  0.71825362815E+02 -0.34033129480E+02  0.11877400061E+03  0.72907185833E+02 0.  0.
         -6    2    1    2    0  502  0.19683935121E+01 -0.47236241200E+02  0.34457063299E+03  0.38765360351E+03  0.17120530990E+03 0.  0.
        -24    2    5    5    0    0 -0.34799790790E+02 -0.79774889077E+02  0.29791453139E+03  0.31975997495E+03  0.76930586890E+02 0.  0.
          5    1    3    3  501    0 -0.51714436871E+02 -0.24589121615E+02 -0.56446882478E+02  0.80544077524E+02  0.47000000000E+01 0. -1.
        -11    1    4    4    0    0  0.21977042169E+02  0.11032256888E+02  0.20890762192E+02  0.32266468965E+02  0.00000000000E+00 0.  1.
         12    1    4    4    0    0  0.27769001191E+02  0.60793105927E+02 -0.54923891672E+02  0.86507531648E+02  0.00000000000E+00 0. -1.
         -5    1    5    5    0  502  0.36768184302E+02  0.32538647877E+02  0.46656101604E+02  0.67893628563E+02  0.47000000000E+01 0.  1.
         13    1    6    6    0    0  0.10862695751E+02  0.35261574160E+01  0.62579751938E+01  0.13022833741E+02  0.00000000000E+00 0. -1.
        -14    1    6    6    0    0 -0.45662486541E+02 -0.83301046493E+02  0.29165655620E+03  0.30673714121E+03  0.00000000000E+00 0.  1.
</event>
<event>
12    1  0.8407180E-002  0.1960479E+03  0.7818608E-02  0.1153296E+00
         21   -1    0    0  501  502  0.00000000000E+00  0.00000000000E+00  0.72712472373E+03  0.72712472373E+03  0.00000000000E+00 0.  1.
         21   -1    0    0  502  503 -0.00000000000E+00 -0.00000000000E+00 -0.70272842819E+02  0.70272842819E+02  0.00000000000E+00 0.  1.
         -6    2    1    2    0  503  0.65771934649E+02  0.64406109610E+02  0.12920888594E+03  0.23479718152E+03  0.17309155353E+03 0.  0.
        -24    2    3    3    0    0 -0.15879961751E+02  0.15506362673E+02  0.45914229762E+02  0.10823373031E+03  0.95466242269E+02 0.  0.
          6    2    1    2  501    0 -0.65771934649E+02 -0.64406109610E+02  0.52764299497E+03  0.56260038503E+03  0.17215681440E+03 0.  0.
         24    2    5    5    0    0 -0.16823315914E+02  0.56952608974E+01  0.40586170538E+03  0.41372815149E+03  0.78305807491E+02 0.  0.
          5    1    5    5  501    0 -0.48948618735E+02 -0.70101370507E+02  0.12178128959E+03  0.14887223353E+03  0.47000000000E+01 0. -1.
        -11    1    6    6    0    0 -0.22514448800E+02 -0.29364455141E+02  0.29509990399E+03  0.29741070082E+03  0.00000000000E+00 0.  1.
         12    1    6    6    0    0  0.56911328854E+01  0.35059716038E+02  0.11076180140E+03  0.11631745067E+03  0.00000000000E+00 0. -1.
         -5    1    3    3    0  503  0.81651896400E+02  0.48899746937E+02  0.83294656177E+02  0.12656345122E+03  0.47000000000E+01 0.  1.
         11    1    4    4    0    0 -0.10405490025E+02  0.49775911288E+02  0.52300506992E+02  0.72946957434E+02  0.00000000000E+00 0. -1.
        -12    1    4    4    0    0 -0.54744717260E+01 -0.34269548615E+02 -0.63862772299E+01  0.35286772874E+02  0.00000000000E+00 0.  1.
</event>
<event>
12    1  0.8407180E-002  0.2946680E+03  0.7818608E-02  0.1088033E+00
         21   -1    0    0  503  502  0.00000000000E+00  0.00000000000E+00  0.17438756808E+04  0.17438756808E+04  0.00000000000E+00 0. -1.
         21   -1    0    0  501  503 -0.00000000000E+00 -0.00000000000E+00 -0.70133682048E+02  0.70133682048E+02  0.00000000000E+00 0.  1.
          6    2    1    2  501    0 -0.21759510495E+03 -0.98706684729E+02  0.34761926105E+03  0.45570644334E+03  0.17244875338E+03 0.  0.
         24    2    3    3    0    0 -0.14410400074E+03 -0.18419475758E+02  0.12482272153E+03  0.20769965645E+03  0.80331783016E+02 0.  0.
         -6    2    1    2    0  502  0.21759510495E+03  0.98706684729E+02  0.13261227377E+04  0.13583029195E+04  0.17115684732E+03 0.  0.
        -24    2    5    5    0    0  0.42039701290E+02  0.39629699047E+02  0.64647664367E+03  0.65385228736E+03  0.79075365021E+02 0.  0.
          5    1    3    3  501    0 -0.73491104207E+02 -0.80287208970E+02  0.22279653952E+03  0.24800678689E+03  0.47000000000E+01 0. -1.
        -11    1    4    4    0    0 -0.86619851753E+02  0.46309044188E+01  0.11644393393E+03  0.14520204455E+03  0.00000000000E+00 0.  1.
         12    1    4    4    0    0 -0.57484148990E+02 -0.23050380177E+02  0.83787876033E+01  0.62497611900E+02  0.00000000000E+00 0. -1.
         -5    1    5    5    0  502  0.17555540366E+03  0.59076985682E+02  0.67964609408E+03  0.70445063218E+03  0.47000000000E+01 0.  1.
         11    1    6    6    0    0  0.59538613330E+02  0.60546228851E+01  0.41722579472E+03  0.42149598897E+03  0.00000000000E+00 0. -1.
        -12    1    6    6    0    0 -0.17498912040E+02  0.33575076162E+02  0.22925084895E+03  0.23235629840E+03  0.00000000000E+00 0.  1.
</event>
<event>
12    1  0.8407180E-002  0.2367597E+03  0.7818608E-02  0.1122169E+00
         21   -1    0    0  503  502  0.00000000000E+00  0.00000000000E+00  0.45017966770E+03  0.45017966770E+03  0.00000000000E+00 0.  1.
         21   -1    0    0  501  503 -0.00000000000E+00 -0.00000000000E+00 -0.55389451572E+03  0.55389451572E+03  0.00000000000E+00 0. -1.
          6    2    1    2  501    0  0.51271692644E+02  0.15223628384E+03 -0.49416468817E+03  0.54744934425E+03  0.17232925723E+03 0.  0.
         24    2    3    3    0    0  0.10090335998E+03  0.10701678702E+03 -0.37541096782E+03  0.41094791058E+03  0.79439975414E+02 0.  0.
         -6    2    1    2    0  502 -0.51271692644E+02 -0.15223628384E+03  0.39044984014E+03  0.45662483918E+03  0.17392669002E+03 0.  0.
        -24    2    5    5    0    0 -0.67061895010E+02 -0.16446786306E+03  0.26205678641E+03  0.32660250160E+03  0.80302297656E+02 0.  0.
          5    1    3    3  501    0 -0.49631667338E+02  0.45219496814E+02 -0.11875372035E+03  0.13650143367E+03  0.47000000000E+01 0. -1.
        -11    1    4    4    0    0  0.94877426009E+02  0.93815155040E+02 -0.23863187325E+03  0.27340113426E+03  0.00000000000E+00 0.  1.
         12    1    4    4    0    0  0.60259339729E+01  0.13201631983E+02 -0.13677909456E+03  0.13754677632E+03  0.00000000000E+00 0. -1.
         -5    1    5    5    0  502  0.15790202367E+02  0.12231579218E+02  0.12839305373E+03  0.13002233757E+03  0.47000000000E+01 0.  1.
         11    1    6    6    0    0 -0.81760547619E+02 -0.10344719923E+03  0.18589269901E+03  0.22790832745E+03  0.00000000000E+00 0. -1.
        -12    1    6    6    0    0  0.14698652609E+02 -0.61020663824E+02  0.76164087394E+02  0.98694174147E+02  0.00000000000E+00 0.  1.
</event>
<event>
12    1  0.8407180E-002  0.1747368E+03  0.7818608E-02  0.1173037E+00
         21   -1    0    0  503  502  0.00000000000E+00  0.00000000000E+00  0.81713728924E+02  0.81713728924E+02  0.00000000000E+00 0. -1.
         21   -1    0    0  501  503 -0.00000000000E+00 -0.00000000000E+00 -0.37393154148E+03  0.37393154148E+03  0.00000000000E+00 0. -1.
          6    2    1    2  501    0  0.24885712912E+02  0.13455890769E+02 -0.13691014435E+03  0.22198500924E+03  0.17243142694E+03 0.  0.
         24    2    3    3    0    0 -0.43655868726E+02 -0.27349190898E+02 -0.64606797595E+02  0.11422199585E+03  0.78859450434E+02 0.  0.
         -6    2    1    2    0  502 -0.24885712912E+02 -0.13455890769E+02 -0.15530766820E+03  0.23366026116E+03  0.17226806478E+03 0.  0.
        -24    2    5    5    0    0 -0.60688991183E+02 -0.58295934700E+02 -0.10326863596E+03  0.15605449365E+03  0.81283603280E+02 0.  0.
          5    1    3    3  501    0  0.68541581638E+02  0.40805081667E+02 -0.72303346759E+02  0.10776301339E+03  0.47000000000E+01 0. -1.
        -11    1    4    4    0    0 -0.45996234867E+02 -0.47657105827E+02 -0.66292962526E+02  0.93710246175E+02  0.00000000000E+00 0.  1.
         12    1    4    4    0    0  0.23403661411E+01  0.20307914929E+02  0.16861649302E+01  0.20511749672E+02  0.00000000000E+00 0. -1.
         -5    1    5    5    0  502  0.35803278271E+02  0.44840043931E+02 -0.52039032242E+02  0.77605767513E+02  0.47000000000E+01 0.  1.
         11    1    6    6    0    0 -0.47565089953E+02 -0.70124513234E+02 -0.10846423533E+03  0.13763856830E+03  0.00000000000E+00 0. -1.
        -12    1    6    6    0    0 -0.13123901229E+02  0.11828578534E+02  0.51955993706E+01  0.18415925348E+02  0.00000000000E+00 0.  1.
</event>
<event>
12    1  0.8407180E-002  0.1993288E+03  0.7818608E-02  0.1150727E+00
         21   -1    0    0  501  502  0.00000000000E+00  0.00000000000E+00  0.54719186387E+02  0.54719186387E+02  0.00000000000E+00 0.  1.
         21   -1    0    0  502  503 -0.00000000000E+00 -0.00000000000E+00 -0.83348402255E+03  0.83348402255E+03  0.00000000000E+00 0.  1.
         -6    2    1    2    0  503 -0.32851608043E+02 -0.92837713961E+02 -0.55568845102E+03  0.59035720066E+03  0.17330291543E+03 0.  0.
        -24    2    3    3    0    0  0.27061789315E+02 -0.10813816304E+03 -0.39306729063E+03  0.41631280768E+03  0.79926567073E+02 0.  0.
          6    2    1    2  501    0  0.32851608043E+02  0.92837713961E+02 -0.22307638515E+03  0.29784600827E+03  0.17102953473E+03 0.  0.
         24    2    5    5    0    0  0.35711236777E+02  0.79256895575E+02 -0.24444769655E+03  0.27193386718E+03  0.81464126120E+02 0.  0.
          5    1    5    5  501    0 -0.28596287340E+01  0.13580818387E+02  0.21371311406E+02  0.25912141088E+02  0.47000000000E+01 0. -1.
        -13    1    6    6    0    0  0.87282077063E+01  0.48777106804E+02 -0.40597561238E+02  0.64058955161E+02  0.00000000000E+00 0.  1.
         14    1    6    6    0    0  0.26983029071E+02  0.30479788771E+02 -0.20385013531E+03  0.20787491202E+03  0.00000000000E+00 0. -1.
         -5    1    3    3    0  503 -0.59913397358E+02  0.15300449082E+02 -0.16262116039E+03  0.17404439299E+03  0.47000000000E+01 0.  1.
         13    1    4    4    0    0  0.16138698687E+02 -0.54039188703E+02 -0.76897051952E+02  0.95361670025E+02  0.00000000000E+00 0. -1.
        -14    1    4    4    0    0  0.10923090627E+02 -0.54098974340E+02 -0.31617023868E+03  0.32095113765E+03  0.00000000000E+00 0.  1.
</event>
<event>
12    1  0.8407180E-002  0.2075949E+03  0.7818608E-02  0.1143510E+00
         21   -1    0    0  503  502  0.00000000000E+00  0.00000000000E+00  0.30811734931E+03  0.30811734931E+03  0.00000000000E+00 0. -1.
         21   -1    0    0  501  503 -0.00000000000E+00 -0.00000000000E+00 -0.15116750878E+03  0.15116750878E+03  0.00000000000E+00 0. -1.
          6    2    1    2  501    0  0.65575391655E+02  0.95639822173E+02  0.14152039590E+03  0.25124421868E+03  0.17218747745E+03 0.  0.
         24    2    3    3    0    0  0.21070506823E+02 -0.11131867761E+02  0.95976740797E+02  0.12683685127E+03  0.79423972006E+02 0.  0.
         -6    2    1    2    0  502 -0.65575391655E+02 -0.95639822173E+02  0.15429444632E+02  0.20804063941E+03  0.17203410217E+03 0.  0.
        -24    2    5    5    0    0 -0.92838025289E+02 -0.62812296538E+02 -0.34573675318E+02  0.14213692452E+03  0.80270061363E+02 0.  0.
          5    1    3    3  501    0  0.44504884832E+02  0.10677168993E+03  0.45543655100E+02  0.12440736741E+03  0.47000000000E+01 0. -1.
        -13    1    4    4    0    0  0.17709411332E+02  0.21203785723E+02  0.23497157324E+01  0.27726250066E+02  0.00000000000E+00 0.  1.
         14    1    4    4    0    0  0.33610954902E+01 -0.32335653484E+02  0.93627025065E+02  0.99110601207E+02  0.00000000000E+00 0. -1.
         -5    1    5    5    0  502  0.27262633634E+02 -0.32827525635E+02  0.50003119949E+02  0.65903714893E+02  0.47000000000E+01 0.  1.
         13    1    6    6    0    0 -0.72754953277E+02 -0.64593116100E+01 -0.14201744946E-02  0.73041124956E+02  0.00000000000E+00 0. -1.
        -14    1    6    6    0    0 -0.20083072012E+02 -0.56352984928E+02 -0.34572255143E+02  0.69095799564E+02  0.00000000000E+00 0.  1.
</event>
<event>
12    1  0.8407180E-002  0.1820711E+03  0.7818608E-02  0.1165947E+00
         21   -1    0    0  501  502  0.00000000000E+00  0.00000000000E+00  0.35886034361E+02  0.35886034361E+02  0.00000000000E+00 0. -1.
         21   -1    0    0  502  503 -0.00000000000E+00 -0.00000000000E+00 -0.99628855352E+03  0.99628855352E+03  0.00000000000E+00 0. -1.
         -6    2    1    2    0  503  0.61260300390E+01  0.57274271719E+02 -0.62284032758E+03  0.64890674915E+03  0.17271949799E+03 0.  0.
        -24    2    3    3    0    0  0.23285716570E+02  0.73637726243E+02 -0.22531726660E+03  0.25064943096E+03  0.78054642952E+02 0.  0.
          6    2    1    2  501    0 -0.61260300390E+01 -0.57274271719E+02 -0.33756219159E+03  0.38326783874E+03  0.17212824457E+03 0.  0.
         24    2    5    5    0    0  0.18094201781E+02  0.24755162804E+02 -0.18386778866E+03  0.20731469938E+03  0.90729282215E+02 0.  0.
          5    1    5    5  501    0 -0.24220231820E+02 -0.82029434523E+02 -0.15369440293E+03  0.17595313935E+03  0.47000000000E+01 0. -1.
        -13    1    6    6    0    0  0.27161696191E+02 -0.28507686594E+02 -0.55587010986E+02  0.68120200567E+02  0.00000000000E+00 0.  1.
         14    1    6    6    0    0 -0.90674944102E+01  0.53262849398E+02 -0.12828077767E+03  0.13919449882E+03  0.00000000000E+00 0. -1.
         -5    1    3    3    0  503 -0.17159686531E+02 -0.16363454523E+02 -0.39752306097E+03  0.39825731819E+03  0.47000000000E+01 0.  1.
         11    1    4    4    0    0 -0.25068660202E+02  0.46488215442E+02 -0.89119559639E+02  0.10359482521E+03  0.00000000000E+00 0. -1.
        -12    1    4    4    0    0  0.48354376772E+02  0.27149510800E+02 -0.13619770696E+03  0.14705460575E+03  0.00000000000E+00 0.  1.
</event>
<event>
12    1  0.8407180E-002  0.2052820E+03  0.7818608E-02  0.1145837E+00
         21   -1    0    0  503  502  0.00000000000E+00  0.00000000000E+00  0.48435479805E+02  0.48435479805E+02  0.00000000000E+00 0. -1.
         21   -1    0    0  501  503 -0.00000000000E+00 -0.00000000000E+00 -0.86111094441E+03  0.86111094441E+03  0.00000000000E+00 0.  1.
          6    2    1    2  501    0  0.22124716010E+02 -0.10699517191E+03 -0.42373686872E+03  0.47084354004E+03  0.17379078058E+03 0.  0.
         24    2    3    3    0    0  0.32579058364E+02 -0.84606847456E+02 -0.13816772412E+03  0.18416888700E+03  0.81290499270E+02 0.  0.
         -6    2    1    2    0  502 -0.22124716010E+02  0.10699517191E+03 -0.38893859588E+03  0.43870288417E+03  0.17102490854E+03 0.  0.
        -24    2    5    5    0    0 -0.63756023360E+02  0.23311157642E+02 -0.15804069227E+03  0.18956013013E+03  0.79673972773E+02 0.  0.
          5    1    3    3  501    0 -0.10454342354E+02 -0.22388324459E+02 -0.28556914461E+03  0.28667465304E+03  0.47000000000E+01 0. -1.
        -11    1    4    4    0    0  0.12059111451E+02  0.13814615250E+02 -0.38281720869E+02  0.42447095497E+02  0.00000000000E+00 0.  1.
         12    1    4    4    0    0  0.20519946913E+02 -0.98421462706E+02 -0.99886003247E+02  0.14172179150E+03  0.00000000000E+00 0. -1.
         -5    1    5    5    0  502  0.41631307350E+02  0.83684014273E+02 -0.23089790361E+03  0.24914275404E+03  0.47000000000E+01 0.  1.
         11    1    6    6    0    0 -0.45235413868E+02  0.24947334127E+02 -0.29110345378E+02  0.59296073697E+02  0.00000000000E+00 0. -1.
        -12    1    6    6    0    0 -0.18520609493E+02 -0.16361764850E+01 -0.12893034689E+03  0.13026405644E+03  0.00000000000E+00 0.  1.
</event>
<event>
12    1  0.8407180E-002  0.2861761E+03  0.7818608E-02  0.1092923E+00
         21   -1    0    0  503  502  0.00000000000E+00  0.00000000000E+00  0.48478670699E+03  0.48478670699E+03  0.00000000000E+00 0. -1.
         21   -1    0    0  501  503 -0.00000000000E+00 -0.00000000000E+00 -0.18129023579E+03  0.18129023579E+03  0.00000000000E+00 0. -1.
          6    2    1    2  501    0 -0.12950429963E+03  0.18708268033E+03  0.24593169552E+03  0.37416861353E+03  0.16657868889E+03 0.  0.
         24    2    3    3    0    0 -0.36064116949E+01  0.93078212656E+02  0.84452185501E+02  0.14881369283E+03  0.79603917379E+02 0.  0.
         -6    2    1    2    0  502  0.12950429963E+03 -0.18708268033E+03  0.57564775685E+02  0.29190832925E+03  0.17356692192E+03 0.  0.
        -24    2    5    5    0    0  0.35754746280E+02 -0.45966329048E+02  0.71285939956E+02  0.12186961689E+03  0.79869975571E+02 0.  0.
          5    1    3    3  501    0 -0.12589788793E+03  0.94004467672E+02  0.16147951002E+03  0.22535492070E+03  0.47000000000E+01 0. -1.
        -11    1    4    4    0    0  0.65521881693E+00  0.32731347567E+02 -0.12076260858E+02  0.34894218742E+02  0.00000000000E+00 0.  1.
         12    1    4    4    0    0 -0.42616305118E+01  0.60346865089E+02  0.96528446359E+02  0.11391947409E+03  0.00000000000E+00 0. -1.
         -5    1    5    5    0  502  0.93749553345E+02 -0.14111635128E+03 -0.13721164271E+02  0.17003871236E+03  0.47000000000E+01 0.  1.
         13    1    6    6    0    0  0.10382829054E+02 -0.65771619069E+02  0.50234928581E+02  0.83410173622E+02  0.00000000000E+00 0. -1.
        -14    1    6    6    0    0  0.25371917226E+02  0.19805290021E+02  0.21051011375E+02  0.38459443267E+02  0.00000000000E+00 0.  1.
</event>
<event>
12    1  0.8407180E-002  0.2139550E+03  0.7818608E-02  0.1138542E+00
         21   -1    0    0  501  502  0.00000000000E+00  0.00000000000E+00  0.60165104399E+03  0.60165104399E+03  0.00000000000E+00 0. -1.
         21   -1    0    0  502  503 -0.00000000000E+00 -0.00000000000E+00 -0.86046664537E+03  0.86046664537E+03  0.00000000000E+00 0. -1.
         -6    2    1    2    0  503  0.12182905289E+03  0.35393139126E+02 -0.82744490429E+03  0.85456848128E+03  0.17183488333E+03 0.  0.
        -24    2    3    3    0    0  0.52651390471E+02 -0.85702118894E+01 -0.20253260470E+03  0.22428616565E+03  0.80244692566E+02 0.  0.
          6    2    1    2  501    0 -0.12182905289E+03 -0.35393139126E+02  0.56862930291E+03  0.60754920808E+03  0.17228396236E+03 0.  0.
         24    2    5    5    0    0 -0.79790895583E+02 -0.58094606137E+02  0.20704961439E+03  0.24279651869E+03  0.79618065694E+02 0.  0.
          5    1    5    5  501    0 -0.42038157304E+02  0.22701467011E+02  0.36157968851E+03  0.36475268939E+03  0.47000000000E+01 0. -1.
        -11    1    6    6    0    0 -0.70334575185E+02 -0.33349136321E+02  0.74920388284E+02  0.10803787271E+03  0.00000000000E+00 0.  1.
         12    1    6    6    0    0 -0.94563203985E+01 -0.24745469816E+02  0.13212922611E+03  0.13475864597E+03  0.00000000000E+00 0. -1.
         -5    1    3    3    0  503  0.69177662416E+02  0.43963351016E+02 -0.62491229960E+03  0.63028231563E+03  0.47000000000E+01 0.  1.
         11    1    4    4    0    0 -0.15236136503E+02 -0.22066358204E+02 -0.48575118337E+02  0.55485188487E+02  0.00000000000E+00 0. -1.
        -12    1    4    4    0    0  0.67887526975E+02  0.13496146315E+02 -0.15395748636E+03  0.16880097716E+03  0.00000000000E+00 0.  1.
</event>
<event>
12    1  0.8407180E-002  0.1747133E+03  0.7818608E-02  0.1173621E+00
         21   -1    0    0  503  502  0.00000000000E+00  0.00000000000E+00  0.93440668975E+03  0.93440668975E+03  0.00000000000E+00 0.  1.
         21   -1    0    0  501  503 -0.00000000000E+00 -0.00000000000E+00 -0.38057397395E+02  0.38057397395E+02  0.00000000000E+00 0.  1.
          6    2    1    2  501    0  0.23317765396E+02 -0.18930557260E+02  0.26043600039E+03  0.31361067672E+03  0.17211235306E+03 0.  0.
         24    2    3    3    0    0  0.37724452265E+02 -0.61123763537E+02  0.24241475637E+03  0.26529220698E+03  0.80347944644E+02 0.  0.
         -6    2    1    2    0  502 -0.23317765396E+02  0.18930557260E+02  0.63591329197E+03  0.65885341042E+03  0.16970567859E+03 0.  0.
        -24    2    5    5    0    0 -0.68813498412E+02 -0.12022521382E+02  0.30765339356E+03  0.32598015271E+03  0.82052488115E+02 0.  0.
          5    1    3    3  501    0 -0.14406686869E+02  0.42193206277E+02  0.18021244014E+02  0.48318469743E+02  0.47000000000E+01 0. -1.
        -11    1    4    4    0    0  0.43273811632E+02 -0.78024090200E+02  0.21278095327E+03  0.23072952888E+03  0.00000000000E+00 0.  1.
         12    1    4    4    0    0 -0.55493593671E+01  0.16900326662E+02  0.29633803100E+02  0.34562678092E+02  0.00000000000E+00 0. -1.
         -5    1    5    5    0  502  0.45495733016E+02  0.30953078643E+02  0.32825989841E+03  0.33287325772E+03  0.47000000000E+01 0.  1.
         11    1    6    6    0    0 -0.65537797598E+01 -0.22389874443E+02  0.17827417246E+02  0.29361119059E+02  0.00000000000E+00 0. -1.
        -12    1    6    6    0    0 -0.62259718652E+02  0.10367353061E+02  0.28982597631E+03  0.29661903365E+03  0.00000000000E+00 0.  1.
</event>
<event>
12    1  0.8407180E-002  0.1857504E+03  0.7818608E-02  0.1162647E+00
         21   -1    0    0  501  502  0.00000000000E+00  0.00000000000E+00  0.21296075879E+03  0.21296075879E+03  0.00000000000E+00 0. -1.
         21   -1    0    0  502  503 -0.00000000000E+00 -0.00000000000E+00 -0.22794809952E+03  0.22794809952E+03  0.00000000000E+00 0. -1.
         -6    2    1    2    0  503  0.70611062014E+02 -0.48319228281E+01 -0.12706372775E+03  0.22505198628E+03  0.17173798666E+03 0.  0.
        -24    2    3    3    0    0  0.10798400317E+03 -0.32640831758E+02 -0.94110364144E+02  0.16779741162E+03  0.81075531867E+02 0.  0.
          6    2    1    2  501    0 -0.70611062014E+02  0.48319228281E+01  0.11207638702E+03  0.21585687203E+03  0.17036373768E+03 0.  0.
         24    2    5    5    0    0 -0.53376925418E+02 -0.11382727857E+02 -0.44879420766E+01  0.96822157852E+02  0.79848143163E+02 0.  0.
          5    1    5    5  501    0 -0.17234136596E+02  0.16214650685E+02  0.11656432910E+03  0.11903471418E+03  0.47000000000E+01 0. -1.
        -13    1    6    6    0    0 -0.29195301178E+02 -0.34837312511E+02 -0.30089274763E+02  0.54510259673E+02  0.00000000000E+00 0.  1.
         14    1    6    6    0    0 -0.24181624240E+02  0.23454584654E+02  0.25601332687E+02  0.42311898179E+02  0.00000000000E+00 0. -1.
         -5    1    3    3    0  503 -0.37372941156E+02  0.27808908930E+02 -0.32953363610E+02  0.57254574662E+02  0.47000000000E+01 0.  1.
         13    1    4    4    0    0  0.40275978650E+01  0.19053084684E+02 -0.28268253592E+02  0.34326895311E+02  0.00000000000E+00 0. -1.
        -14    1    4    4    0    0  0.10395640531E+03 -0.51693916442E+02 -0.65842110552E+02  0.13347051631E+03  0.00000000000E+00 0.  1.
</event>
<event>
12    1  0.8407180E-002  0.1840074E+03  0.7818608E-02  0.1164087E+00
         21   -1    0    0  503  502  0.00000000000E+00  0.00000000000E+00  0.55603304438E+02  0.55603304438E+02  0.00000000000E+00 0.  1.
         21   -1    0    0  501  503 -0.00000000000E+00 -0.00000000000E+00 -0.72965427219E+03  0.72965427219E+03  0.00000000000E+00 0.  1.
          6    2    1    2  501    0 -0.63425962828E+02  0.10826896135E+02 -0.17667748307E+03  0.25509537089E+03  0.17239095331E+03 0.  0.
         24    2    3    3    0    0 -0.43568142173E+02 -0.46519949545E+02 -0.16328924725E+03  0.19277098875E+03  0.80218371442E+02 0.  0.
         -6    2    1    2    0  502  0.63425962828E+02 -0.10826896135E+02 -0.49737348468E+03  0.53016220574E+03  0.17190551675E+03 0.  0.
        -24    2    5    5    0    0  0.99090774437E+02  0.41032746138E+01 -0.26337825474E+03  0.29294764796E+03  0.81328967386E+02 0.  0.
          5    1    3    3  501    0 -0.19857820654E+02  0.57346845680E+02 -0.13388235815E+02  0.62324382138E+02  0.47000000000E+01 0. -1.
        -13    1    4    4    0    0 -0.10803674640E+02 -0.36236375360E+02 -0.15201752028E+02  0.40753988144E+02  0.00000000000E+00 0.  1.
         14    1    4    4    0    0 -0.32764467533E+02 -0.10283574185E+02 -0.14808749523E+03  0.15201700061E+03  0.00000000000E+00 0. -1.
         -5    1    5    5    0  502 -0.35664811610E+02 -0.14930170749E+02 -0.23399522994E+03  0.23721455778E+03  0.47000000000E+01 0.  1.
         13    1    6    6    0    0  0.19425917939E+02 -0.22287578582E+02 -0.20494587716E+02  0.35974026359E+02  0.00000000000E+00 0. -1.
        -14    1    6    6    0    0  0.79664856498E+02  0.26390853196E+02 -0.24288366703E+03  0.25697362161E+03  0.00000000000E+00 0.  1.
</event>
<event>
12    1  0.8407180E-002  0.1808289E+03  0.7818608E-02  0.1167069E+00
         21   -1    0    0  503  502  0.00000000000E+00  0.00000000000E+00  0.64440552553E+03  0.64440552553E+03  0.00000000000E+00 0. -1.
         21   -1    0    0  501  503 -0.00000000000E+00 -0.00000000000E+00 -0.73806868964E+02  0.73806868964E+02  0.00000000000E+00 0. -1.
          6    2    1    2  501    0 -0.53955346706E+02 -0.91994612057E+00  0.84075282238E+02  0.19917089195E+03  0.17230312062E+03 0.  0.
         24    2    3    3    0    0 -0.93248896692E+02  0.33563537871E+02  0.53232709784E+02  0.13829028737E+03  0.80427696598E+02 0.  0.
         -6    2    1    2    0  502  0.53955346706E+02  0.91994612057E+00  0.48652337433E+03  0.51904150255E+03  0.17258928663E+03 0.  0.
        -24    2    5    5    0    0  0.10058845294E+03  0.18301144639E+02  0.37733227006E+03  0.39895178646E+03  0.79560776331E+02 0.  0.
          5    1    3    3  501    0  0.39293549986E+02 -0.34483483992E+02  0.30842572455E+02  0.60880604582E+02  0.47000000000E+01 0. -1.
        -13    1    4    4    0    0 -0.75119876352E+02  0.54373180936E+02  0.59246711557E+02  0.11004367978E+03  0.00000000000E+00 0.  1.
         14    1    4    4    0    0 -0.18129020340E+02 -0.20809643065E+02 -0.60140017735E+01  0.28246607589E+02  0.00000000000E+00 0. -1.
         -5    1    5    5    0  502 -0.46633106231E+02 -0.17381198519E+02  0.10919110426E+03  0.12008971608E+03  0.47000000000E+01 0.  1.
         11    1    6    6    0    0  0.79713435778E+02  0.47787199898E+02  0.25565818517E+03  0.27202749119E+03  0.00000000000E+00 0. -1.
        -12    1    6    6    0    0  0.20875017159E+02 -0.29486055258E+02  0.12167408489E+03  0.12692429527E+03  0.00000000000E+00 0.  1.
</event>
<event>
12    1  0.8407180E-002  0.1892501E+03  0.7818608E-02  0.1159827E+00
         21   -1    0    0  501  502  0.00000000000E+00  0.00000000000E+00  0.62757989789E+03  0.62757989789E+03  0.00000000000E+00 0.  1.
         21   -1    0    0  502  503 -0.00000000000E+00 -0.00000000000E+00 -0.56347283957E+02  0.56347283957E+02  0.00000000000E+00 0. -1.
         -6    2    1    2    0  503 -0.55223182797E+02 -0.48977433690E+02  0.26851872862E+03  0.32850862912E+03  0.17426193749E+03 0.  0.
        -24    2    3    3    0    0 -0.54502445662E+02 -0.96781131485E+02  0.22753093381E+03  0.26535958076E+03  0.79424664111E+02 0.  0.
          6    2    1    2  501    0  0.55223182797E+02  0.48977433690E+02  0.30271388531E+03  0.35541855272E+03  0.17099199493E+03 0.  0.
         24    2    5    5    0    0  0.15016327486E+02 -0.72964739815E+01  0.26741181494E+03  0.27762607191E+03  0.72721581457E+02 0.  0.
          5    1    5    5  501    0  0.40206855311E+02  0.56273907671E+02  0.35302070363E+02  0.77792480810E+02  0.47000000000E+01 0. -1.
        -11    1    6    6    0    0 -0.92747420906E+01  0.29237189750E+02  0.10423369967E+03  0.10865310972E+03  0.00000000000E+00 0.  1.
         12    1    6    6    0    0  0.24291069576E+02 -0.36533663731E+02  0.16317811527E+03  0.16897296219E+03  0.00000000000E+00 0. -1.
         -5    1    3    3    0  503 -0.72073713531E+00  0.47803697795E+02  0.40987794816E+02  0.63149048360E+02  0.47000000000E+01 0.  1.
         13    1    4    4    0    0 -0.54846722041E+02 -0.26651441205E+02  0.14343306684E+03  0.15585732867E+03  0.00000000000E+00 0. -1.
        -14    1    4    4    0    0  0.34427637927E+00 -0.70129690280E+02  0.84097866961E+02  0.10950225209E+03  0.00000000000E+00 0.  1.
</event>
<event>
12    1  0.8407180E-002  0.2078695E+03  0.7818608E-02  0.1143450E+00
         21   -1    0    0  501  502  0.00000000000E+00  0.00000000000E+00  0.87587976236E+02  0.87587976236E+02  0.00000000000E+00 0.  1.
         21   -1    0    0  502  503 -0.00000000000E+00 -0.00000000000E+00 -0.49820787328E+03  0.49820787328E+03  0.00000000000E+00 0.  1.
         -6    2    1    2    0  503  0.40885921892E+02  0.10836850864E+03 -0.23975376446E+03  0.31671412849E+03  0.17149512920E+03 0.  0.
        -24    2    3    3    0    0 -0.10950385663E+02  0.10392904967E+03 -0.22851826783E+03  0.26328157323E+03  0.78583902664E+02 0.  0.
          6    2    1    2  501    0 -0.40885921892E+02 -0.10836850864E+03 -0.17086613259E+03  0.26908172103E+03  0.17261038513E+03 0.  0.
         24    2    5    5    0    0 -0.55017933645E+02  0.11526794119E+01 -0.94425005341E+02  0.13469444364E+03  0.78728710281E+02 0.  0.
          5    1    5    5  501    0  0.14132011753E+02 -0.10952118805E+03 -0.76441127250E+02  0.13438727739E+03  0.47000000000E+01 0. -1.
        -13    1    6    6    0    0 -0.16246318709E+02 -0.36341812650E+02 -0.25911145461E+02  0.47497975508E+02  0.00000000000E+00 0.  1.
         14    1    6    6    0    0 -0.38771614937E+02  0.37494492061E+02 -0.68513859880E+02  0.87196468136E+02  0.00000000000E+00 0. -1.
         -5    1    3    3    0  503  0.51836307555E+02  0.44394589681E+01 -0.11235496627E+02  0.53432555257E+02  0.47000000000E+01 0.  1.
         13    1    4    4    0    0  0.25814004769E+02  0.12048348141E+02 -0.29462497125E+02  0.40982487381E+02  0.00000000000E+00 0. -1.
        -14    1    4    4    0    0 -0.36764390432E+02  0.91880701532E+02 -0.19905577070E+03  0.22229908585E+03  0.00000000000E+00 0.  1.
</event>
<event>
12    1  0.8407180E-002  0.1851153E+03  0.7818608E-02  0.1163058E+00
         21   -1    0    0  503  502  0.00000000000E+00  0.00000000000E+00  0.55869344503E+03  0.55869344503E+03  0.00000000000E+00 0. -1.
         21   -1    0    0  501  503 -0.00000000000E+00 -0.00000000000E+00 -0.93153191996E+02  0.93153191996E+02  0.00000000000E+00 0.  1.
          6    2    1    2  501    0  0.77913841487E+01  0.65845706080E+02  0.41591727460E+02  0.18924525485E+03  0.17230070230E+03 0.  0.
         24    2    3    3    0    0 -0.54031270347E+02  0.66925032720E+02  0.94175612384E+01  0.11938487604E+03  0.82253996787E+02 0.  0.
         -6    2    1    2    0  502 -0.77913841487E+01 -0.65845706080E+02  0.42394852558E+03  0.46260138218E+03  0.17283322535E+03 0.  0.
        -24    2    5    5    0    0  0.42228113332E+02 -0.91093425234E+02  0.31120783345E+03  0.33661745022E+03  0.79873440632E+02 0.  0.
          5    1    3    3  501    0  0.61822654496E+02 -0.10793266394E+01  0.32174166222E+02  0.69860378807E+02  0.47000000000E+01 0. -1.
        -11    1    4    4    0    0  0.10728485169E+02  0.38718087034E+02 -0.17461520045E+02  0.43807480410E+02  0.00000000000E+00 0.  1.
         12    1    4    4    0    0 -0.64759755517E+02  0.28206945685E+02  0.26879081283E+02  0.75577395629E+02  0.00000000000E+00 0. -1.
         -5    1    5    5    0  502 -0.50019497481E+02  0.25247719154E+02  0.11274069213E+03  0.12598393196E+03  0.47000000000E+01 0.  1.
         13    1    6    6    0    0  0.52042261733E+02 -0.21332441422E+02  0.16499198424E+03  0.17431530319E+03  0.00000000000E+00 0. -1.
        -14    1    6    6    0    0 -0.98141484006E+01 -0.69760983813E+02  0.14621584921E+03  0.16230214703E+03  0.00000000000E+00 0.  1.
</event>
<event>
12    1  0.8407180E-002  0.1837752E+03  0.7818608E-02  0.1164923E+00
         21   -1    0    0  501  502  0.00000000000E+00  0.00000000000E+00  0.86748884168E+03  0.86748884168E+03  0.00000000000E+00 0.  1.
         21   -1    0    0  502  503 -0.00000000000E+00 -0.00000000000E+00 -0.66673047752E+02  0.66673047752E+02  0.00000000000E+00 0.  1.
         -6    2    1    2    0  503 -0.16343756743E+02  0.58583839943E+02  0.93733722941E+02  0.20358788542E+03  0.17018469844E+03 0.  0.
        -24    2    3    3    0    0 -0.30309921326E+02  0.52688935574E+02  0.12997049847E+03  0.16402783547E+03  0.79485753911E+02 0.  0.
          6    2    1    2  501    0  0.16343756743E+02 -0.58583839943E+02  0.70708207099E+03  0.73057400402E+03  0.17341895960E+03 0.  0.
         24    2    5    5    0    0 -0.49976782507E+02 -0.27893379052E+02  0.53225599528E+03  0.54103096125E+03  0.78373063805E+02 0.  0.
          5    1    5    5  501    0  0.66320539250E+02 -0.30690460891E+02  0.17482607571E+03  0.18954304277E+03  0.47000000000E+01 0. -1.
        -13    1    6    6    0    0  0.19071712053E+01 -0.32691185392E+02  0.34835732564E+03  0.34989309400E+03  0.00000000000E+00 0.  1.
         14    1    6    6    0    0 -0.51883953713E+02  0.47978063398E+01  0.18389866964E+03  0.19113786724E+03  0.00000000000E+00 0. -1.
         -5    1    3    3    0  503  0.13966164583E+02  0.58949043685E+01 -0.36236775529E+02  0.39560049942E+02  0.47000000000E+01 0.  1.
         13    1    4    4    0    0 -0.32596926515E+01  0.67351554037E+02  0.10301551925E+03  0.12312211269E+03  0.00000000000E+00 0. -1.
        -14    1    4    4    0    0 -0.27050228674E+02 -0.14662618463E+02  0.26954979219E+02  0.40905722780E+02  0.00000000000E+00 0.  1.
</event>
<event>
12    1  0.8407180E-002  0.2371042E+03  0.7818608E-02  0.1121845E+00
         21   -1    0    0  501  502  0.00000000000E+00  0.00000000000E+00  0.82196356948E+02  0.82196356948E+02  0.00000000000E+00 0.  1.
         21   -1    0    0  502  503 -0.00000000000E+00 -0.00000000000E+00 -0.38326457781E+04  0.38326457781E+04  0.00000000000E+00 0. -1.
         -6    2    1    2    0  503 -0.15945251815E+03 -0.30082932956E+02 -0.36494829335E+04  0.36571356295E+04  0.17200360986E+03 0.  0.
        -24    2    3    3    0    0 -0.88247391007E+02 -0.79672508670E+02 -0.26094430930E+04  0.26134717678E+04  0.83103039104E+02 0.  0.
          6    2    1    2  501    0  0.15945251815E+03  0.30082932956E+02 -0.10096648760E+03  0.25770650556E+03  0.17288239642E+03 0.  0.
         24    2    5    5    0    0  0.18745302875E+03  0.14359647406E+02 -0.82397884619E+02  0.22031488458E+03  0.80027492277E+02 0.  0.
          5    1    5    5  501    0 -0.28000510600E+02  0.15723285550E+02 -0.18568602982E+02  0.37391620974E+02  0.47000000000E+01 0. -1.
        -11    1    6    6    0    0  0.61204628534E+02  0.42242636115E+02 -0.21584928492E+02  0.77436141420E+02  0.00000000000E+00 0.  1.
         12    1    6    6    0    0  0.12624840021E+03 -0.27882988710E+02 -0.60812956127E+02  0.14287874316E+03  0.00000000000E+00 0. -1.
         -5    1    3    3    0  503 -0.71205127139E+02  0.49589575714E+02 -0.10400398406E+04  0.10436638617E+04  0.47000000000E+01 0.  1.
         13    1    4    4    0    0 -0.36271156864E+02  0.86705676512E+01 -0.10511281095E+04  0.10517894648E+04  0.00000000000E+00 0. -1.
        -14    1    4    4    0    0 -0.51976234143E+02 -0.88343076321E+02 -0.15583149834E+04  0.15616823031E+04  0.00000000000E+00 0.  1.
</event>
<event>
12    1  0.8407180E-002  0.2620317E+03  0.7818608E-02  0.1105951E+00
         21   -1    0    0  501  502  0.00000000000E+00  0.00000000000E+00  0.14026708921E+04  0.14026708921E+04  0.00000000000E+00 0. -1.
         21   -1    0    0  502  503 -0.00000000000E+00 -0.00000000000E+00 -0.73877917150E+02  0.73877917150E+02  0.00000000000E+00 0.  1.
         -6    2    1    2    0  503 -0.19501021848E+03 -0.26554432955E+02  0.23543201228E+03  0.35226247575E+03  0.17299276341E+03 0.  0.
        -24    2    3    3    0    0 -0.12570350211E+03  0.13238314370E+02  0.63627958541E+02  0.16272196146E+03  0.80332410796E+02 0.  0.
          6    2    1    2  501    0  0.19501021848E+03  0.26554432955E+02  0.10933609626E+04  0.11242863335E+04  0.17276412181E+03 0.  0.
         24    2    5    5    0    0  0.71877955177E+02  0.67332770156E+02  0.65190480690E+03  0.66414499161E+03  0.80053421169E+02 0.  0.
          5    1    5    5  501    0  0.12313226331E+03 -0.40778337201E+02  0.44145615573E+03  0.46014134185E+03  0.47000000000E+01 0. -1.
        -13    1    6    6    0    0  0.24308782066E+02  0.70279005636E+02  0.30259535418E+03  0.31159910765E+03  0.00000000000E+00 0.  1.
         14    1    6    6    0    0  0.47569173111E+02 -0.29462354796E+01  0.34930945272E+03  0.35254588395E+03  0.00000000000E+00 0. -1.
         -5    1    3    3    0  503 -0.69306716373E+02 -0.39792747325E+02  0.17180405374E+03  0.18954051428E+03  0.47000000000E+01 0.  1.
         13    1    4    4    0    0 -0.41841079848E+02  0.19663811683E+02  0.63582834106E+02  0.78613728100E+02  0.00000000000E+00 0. -1.
        -14    1    4    4    0    0 -0.83862422262E+02 -0.64254973134E+01  0.45124435186E-01  0.84108233364E+02  0.00000000000E+00 0.  1.
</event>
<event>
12    1  0.8407180E-002  0.1974813E+03  0.7818608E-02  0.1152054E+00
         21   -1    0    0  503  502  0.00000000000E+00  0.00000000000E+00  0.57690099283E+03  0.57690099283E+03  0.00000000000E+00 0. -1.
         21   -1    0    0  501  503 -0.00000000000E+00 -0.00000000000E+00 -0.18390727219E+03  0.18390727219E+03  0.00000000000E+00 0.  1.
          6    2    1    2  501    0  0.83552399921E+02  0.49820078005E+02 -0.10652072498E+03  0.22367370735E+03  0.17093922547E+03 0.  0.
         24    2    3    3    0    0  0.89993638263E+02  0.43884217121E+02 -0.12664150814E+02  0.12929219163E+03  0.80817143358E+02 0.  0.
         -6    2    1    2    0  502 -0.83552399921E+02 -0.49820078005E+02  0.49951444561E+03  0.53713455767E+03  0.17185984978E+03 0.  0.
        -24    2    5    5    0    0 -0.86796485762E+02 -0.26430337303E+00  0.19069287413E+03  0.22431008308E+03  0.80109558292E+02 0.  0.
          5    1    3    3  501    0 -0.64412383417E+01  0.59358608838E+01 -0.93856574165E+02  0.94381515721E+02  0.47000000000E+01 0. -1.
        -11    1    4    4    0    0  0.54024473777E+02 -0.17276284908E+02  0.23474165586E+01  0.56768161425E+02  0.00000000000E+00 0.  1.
         12    1    4    4    0    0  0.35969164485E+02  0.61160502028E+02 -0.15011567372E+02  0.72524030205E+02  0.00000000000E+00 0. -1.
         -5    1    5    5    0  502  0.32440858415E+01 -0.49555774631E+02  0.30882157148E+03  0.31282447460E+03  0.47000000000E+01 0.  1.
         11    1    6    6    0    0 -0.98067995538E+02 -0.12867825052E+02  0.17609833151E+03  0.20197409495E+03  0.00000000000E+00 0. -1.
        -12    1    6    6    0    0  0.11271509775E+02  0.12603521679E+02  0.14594542615E+02  0.22335988124E+02  0.00000000000E+00 0.  1.
</event>
<event>
12    1  0.8407180E-002  0.2104178E+03  0.7818608E-02  0.1141527E+00
         21   -1    0    0  503  502  0.00000000000E+00  0.00000000000E+00  0.26201749176E+03  0.26201749176E+03  0.00000000000E+00 0. -1.
         21   -1    0    0  501  503 -0.00000000000E+00 -0.00000000000E+00 -0.26074940002E+03  0.26074940002E+03  0.00000000000E+00 0. -1.
          6    2    1    2  501    0  0.11566650101E+03 -0.34717336679E+02  0.15669266341E+03  0.26235134028E+03  0.17231251277E+03 0.  0.
         24    2    3    3    0    0 -0.12871357004E+01  0.18963605807E+02  0.68276066001E+02  0.10614832679E+03  0.79022598208E+02 0.  0.
         -6    2    1    2    0  502 -0.11566650101E+03  0.34717336679E+02 -0.15542457167E+03  0.26041555151E+03  0.17051518720E+03 0.  0.
        -24    2    5    5    0    0 -0.93795755581E+02 -0.80353944119E+01 -0.31070136088E+02  0.12702799148E+03  0.79426355407E+02 0.  0.
          5    1    3    3  501    0  0.11695363671E+03 -0.53680942486E+02  0.88416597412E+02  0.15620301349E+03  0.47000000000E+01 0. -1.
        -13    1    4    4    0    0 -0.12656400420E+02  0.28905321169E+02  0.80663041492E+02  0.86615404670E+02  0.00000000000E+00 0.  1.
         14    1    4    4    0    0  0.11369264720E+02 -0.99417153615E+01 -0.12386975491E+02  0.19532922117E+02  0.00000000000E+00 0. -1.
         -5    1    5    5    0  502 -0.21870745428E+02  0.42752731091E+02 -0.12435443559E+03  0.13338756003E+03  0.47000000000E+01 0.  1.
         11    1    6    6    0    0 -0.57920656065E+02  0.68805271191E+01 -0.56005179438E+02  0.80862378003E+02  0.00000000000E+00 0. -1.
        -12    1    6    6    0    0 -0.35875099516E+02 -0.14915921531E+02  0.24935043350E+02  0.46165613472E+02  0.00000000000E+00 0.  1.
</event>
<event>
12    1  0.8407180E-002  0.1813039E+03  0.7818608E-02  0.1166836E+00
         21   -1    0    0  503  502  0.00000000000E+00  0.00000000000E+00  0.50788993197E+02  0.50788993197E+02  0.00000000000E+00 0.  1.
         21   -1    0    0  501  503 -0.00000000000E+00 -0.00000000000E+00 -0.66231871100E+03  0.66231871100E+03  0.00000000000E+00 0.  1.
          6    2    1    2  501    0  0.17693195821E+02 -0.50670917295E+02 -0.36775215073E+03  0.41001555530E+03  0.17317771271E+03 0.  0.
         24    2    3    3    0    0 -0.71160393073E+01  0.21729479563E+02 -0.10507815809E+03  0.13637887643E+03  0.83874729990E+02 0.  0.
         -6    2    1    2    0  502 -0.17693195821E+02  0.50670917295E+02 -0.24377756707E+03  0.30309214890E+03  0.17192078838E+03 0.  0.
        -24    2    5    5    0    0  0.33453119060E+02  0.16352165913E+02 -0.53716107908E+02  0.10324428055E+03  0.79921566011E+02 0.  0.
          5    1    3    3  501    0  0.24809235128E+02 -0.72400396858E+02 -0.26267399264E+03  0.27363667887E+03  0.47000000000E+01 0. -1.
        -13    1    4    4    0    0  0.20183519334E+02  0.45664022110E+02 -0.69255298579E+02  0.85374901167E+02  0.00000000000E+00 0.  1.
         14    1    4    4    0    0 -0.27299558642E+02 -0.23934542547E+02 -0.35822859513E+02  0.51003975264E+02  0.00000000000E+00 0. -1.
         -5    1    5    5    0  502 -0.51146314881E+02  0.34318751382E+02 -0.19006145916E+03  0.19984786834E+03  0.47000000000E+01 0.  1.
         11    1    6    6    0    0 -0.16375033773E+02  0.56095016930E+01 -0.49101154249E+02  0.52062765859E+02  0.00000000000E+00 0. -1.
        -12    1    6    6    0    0  0.49828152833E+02  0.10742664220E+02 -0.46149536585E+01  0.51181514695E+02  0.00000000000E+00 0.  1.
</event>
<event>
12    1  0.8407180E-002  0.1987329E+03  0.7818608E-02  0.1152518E+00
         21   -1    0    0  501  502  0.00000000000E+00  0.00000000000E+00  0.92456703924E+02  0.92456703924E+02  0.00000000000E+00 0. -1.
         21   -1    0    0  502  503 -0.00000000000E+00 -0.00000000000E+00 -0.63291283989E+03  0.63291283989E+03  0.00000000000E+00 0. -1.
         -6    2    1    2    0  503 -0.84664095913E+01 -0.97751403727E+02 -0.48874759982E+03  0.52760684691E+03  0.17282289071E+03 0.  0.
        -24    2    3    3    0    0  0.47446628308E+02 -0.10289230260E+03 -0.39196668442E+03  0.41561875721E+03  0.79139504541E+02 0.  0.
          6    2    1    2  501    0  0.84664095913E+01  0.97751403727E+02 -0.51708536145E+02  0.19776269690E+03  0.16373544074E+03 0.  0.
         24    2    5    5    0    0  0.44190459915E+02  0.17840292525E+02 -0.57210313394E+02  0.10993130720E+03  0.80875209790E+02 0.  0.
          5    1    5    5  501    0 -0.35724050324E+02  0.79911111201E+02  0.55017772494E+01  0.87831389707E+02  0.47000000000E+01 0. -1.
        -13    1    6    6    0    0 -0.14160304657E+01  0.30521174076E+02 -0.54545083237E+02  0.62519703411E+02  0.00000000000E+00 0.  1.
         14    1    6    6    0    0  0.45606490381E+02 -0.12680881551E+02 -0.26652301566E+01  0.47411603786E+02  0.00000000000E+00 0. -1.
         -5    1    3    3    0  503 -0.55913037899E+02  0.51408988699E+01 -0.96780915399E+02  0.11198808970E+03  0.47000000000E+01 0.  1.
         11    1    4    4    0    0 -0.90139685493E+01 -0.58911036777E+02 -0.24510656358E+03  0.25224787292E+03  0.00000000000E+00 0. -1.
        -12    1    4    4    0    0  0.56460596857E+02 -0.43981265820E+02 -0.14686012084E+03  0.16337088429E+03  0.00000000000E+00 0.  1.
</event>
<event>
12    1  0.8407180E-002  0.2202908E+03  0.7818608E-02  0.1137543E+00
         21   -1    0    0  501  502  0.00000000000E+00  0.00000000000E+00  0.89956302610E+03  0.89956302610E+03  0.00000000000E+00 0.  1.
         21   -1    0    0  502  503 -0.00000000000E+00 -0.00000000000E+00 -0.10548317390E+03  0.10548317390E+03  0.00000000000E+00 0.  1.
         -6    2    1    2    0  503 -0.10153457827E+03 -0.30294068994E+02  0.38887452288E+02  0.22369684193E+03  0.19313477663E+03 0.  0.
        -24    2    3    3    0    0 -0.56843829534E+02  0.41362703406E+02  0.77354084399E+02  0.13077898660E+03  0.78596404327E+02 0.  0.
          6    2    1    2  501    0  0.10153457827E+03  0.30294068994E+02  0.75519239991E+03  0.78134935807E+03  0.17018888702E+03 0.  0.
         24    2    5    5    0    0  0.13385070480E+03  0.44106129256E+02  0.56382519932E+03  0.58672510340E+03  0.80536511971E+02 0.  0.
          5    1    5    5  501    0 -0.32316126521E+02 -0.13812060262E+02  0.19136720059E+03  0.19462425466E+03  0.47000000000E+01 0. -1.
        -11    1    6    6    0    0  0.10811656502E+03  0.47861881890E+00  0.32247153776E+03  0.34011367713E+03  0.00000000000E+00 0.  1.
         12    1    6    6    0    0  0.25734139771E+02  0.43627510437E+02  0.24135366157E+03  0.24661142627E+03  0.00000000000E+00 0. -1.
         -5    1    3    3    0  503 -0.44690748740E+02 -0.71656772400E+02 -0.38466632111E+02  0.92917855333E+02  0.47000000000E+01 0.  1.
         11    1    4    4    0    0 -0.28632788486E+02 -0.35612246223E+01  0.71874048528E+02  0.77449323748E+02  0.00000000000E+00 0. -1.
        -12    1    4    4    0    0 -0.28211041048E+02  0.44923928028E+02  0.54800358713E+01  0.53329662850E+02  0.00000000000E+00 0.  1.
</event>
<event>
12    1  0.8407180E-002  0.1910652E+03  0.7818608E-02  0.1158089E+00
         21   -1    0    0  501  502  0.00000000000E+00  0.00000000000E+00  0.33588093221E+03  0.33588093221E+03  0.00000000000E+00 0.  1.
         21   -1    0    0  502  503 -0.00000000000E+00 -0.00000000000E+00 -0.14877271244E+03  0.14877271244E+03  0.00000000000E+00 0.  1.
         -6    2    1    2    0  503  0.78870578885E+02 -0.28600481194E+02  0.22208774344E+03  0.29296563409E+03  0.17166054071E+03 0.  0.
        -24    2    3    3    0    0  0.59929006471E+02 -0.80137696699E+02  0.19109022713E+03  0.22973744603E+03  0.79058731071E+02 0.  0.
          6    2    1    2  501    0 -0.78870578885E+02  0.28600481194E+02 -0.34979523660E+02  0.19168801056E+03  0.16876661571E+03 0.  0.
         24    2    5    5    0    0 -0.14672590799E+02 -0.29651033422E+02  0.20583053929E+02  0.88615654138E+02  0.79590221419E+02 0.  0.
          5    1    5    5  501    0 -0.64197988086E+02  0.58251514615E+02 -0.55562577589E+02  0.10307235642E+03  0.47000000000E+01 0. -1.
        -13    1    6    6    0    0 -0.29577062040E+02 -0.50224360202E+02  0.43090472347E+01  0.58445332104E+02  0.00000000000E+00 0.  1.
         14    1    6    6    0    0  0.14904471241E+02  0.20573326780E+02  0.16274006694E+02  0.30170322034E+02  0.00000000000E+00 0. -1.
         -5    1    3    3    0  503  0.18941572414E+02  0.51537215505E+02  0.30997516311E+02  0.63228188057E+02  0.47000000000E+01 0.  1.
         11    1    4    4    0    0 -0.91809452518E+01 -0.47978664835E+02  0.97334945730E+02  0.10890515918E+03  0.00000000000E+00 0. -1.
        -12    1    4    4    0    0  0.69109951723E+02 -0.32159031864E+02  0.93755281396E+02  0.12083228686E+03  0.00000000000E+00 0.  1.
</event>
<event>
12    1  0.8407180E-002  0.2397449E+03  0.7818608E-02  0.1119967E+00
         21   -1    0    0  503  502  0.00000000000E+00  0.00000000000E+00  0.85178951827E+02  0.85178951827E+02  0.00000000000E+00 0.  1.
         21   -1    0    0  501  503 -0.00000000000E+00 -0.00000000000E+00 -0.68132433167E+03  0.68132433167E+03  0.00000000000E+00 0.  1.
          6    2    1    2  501    0  0.11135797557E+03 -0.12403333395E+03 -0.33581940814E+03  0.41260042338E+03  0.17227758948E+03 0.  0.
         24    2    3    3    0    0 -0.73484865401E+01 -0.24424286256E+02 -0.12111001750E+03  0.14776953591E+03  0.80731984930E+02 0.  0.
         -6    2    1    2    0  502 -0.11135797557E+03  0.12403333395E+03 -0.26032597170E+03  0.35390286012E+03  0.17231586171E+03 0.  0.
        -24    2    5    5    0    0 -0.40252114099E+02  0.11776573880E+03 -0.10036158453E+03  0.17867152316E+03  0.79762545186E+02 0.  0.
          5    1    3    3  501    0  0.11870646211E+03 -0.99609047699E+02 -0.21470939064E+03  0.26483088748E+03  0.47000000000E+01 0. -1.
        -13    1    4    4    0    0  0.34771576868E+02 -0.22076306573E+02 -0.46994448818E+02  0.62489231788E+02  0.00000000000E+00 0.  1.
         14    1    4    4    0    0 -0.42120063408E+02 -0.23479796834E+01 -0.74115568678E+02  0.85280304119E+02  0.00000000000E+00 0. -1.
         -5    1    5    5    0  502 -0.71105861475E+02  0.62675951506E+01 -0.15996438718E+03  0.17523133695E+03  0.47000000000E+01 0.  1.
         13    1    6    6    0    0  0.82163113322E+01  0.29300800623E+02 -0.65017035471E+02  0.71786207522E+02  0.00000000000E+00 0. -1.
        -14    1    6    6    0    0 -0.48468425431E+02  0.88464938182E+02 -0.35344549055E+02  0.10688531564E+03  0.00000000000E+00 0.  1.
</event>
<event>
12    1  0.8407180E-002  0.1778251E+03  0.7818608E-02  0.1170372E+00
         21   -1    0    0  503  502  0.00000000000E+00  0.00000000000E+00  0.56327836311E+03  0.56327836311E+03  0.00000000000E+00 0.  1.
         21   -1    0    0  501  503 -0.00000000000E+00 -0.00000000000E+00 -0.32812364808E+03  0.32812364808E+03  0.00000000000E+00 0.  1.
          6    2    1    2  501    0  0.21505062637E+02  0.20800967812E+02 -0.28853076214E+03  0.33892735774E+03  0.17529006002E+03 0.  0.
         24    2    3    3    0    0 -0.13817462523E+02 -0.42931429836E+02 -0.91571741582E+02  0.12886916325E+03  0.78662872067E+02 0.  0.
         -6    2    1    2    0  502 -0.21505062637E+02 -0.20800967812E+02  0.52368547716E+03  0.55247465345E+03  0.17345493865E+03 0.  0.
        -24    2    5    5    0    0 -0.28603462609E+02 -0.44349649511E+02  0.51312728500E+03  0.52529942368E+03  0.99271468284E+02 0.  0.
          5    1    3    3  501    0  0.35322525161E+02  0.63732397648E+02 -0.19695902055E+03  0.21005819449E+03  0.47000000000E+01 0. -1.
        -11    1    4    4    0    0 -0.44008781909E+02 -0.84723293329E+01 -0.47276513383E+02  0.65143088406E+02  0.00000000000E+00 0.  1.
         12    1    4    4    0    0  0.30191319386E+02 -0.34459100503E+02 -0.44295228199E+02  0.63726074843E+02  0.00000000000E+00 0. -1.
         -5    1    5    5    0  502  0.70983999715E+01  0.23548681699E+02  0.10558192157E+02  0.27175229779E+02  0.47000000000E+01 0.  1.
         13    1    6    6    0    0  0.35305784684E+02 -0.26908842028E+02  0.16169696329E+03  0.16767973088E+03  0.00000000000E+00 0. -1.
        -14    1    6    6    0    0 -0.63909247292E+02 -0.17440807483E+02  0.35143032172E+03  0.35761969280E+03  0.00000000000E+00 0.  1.
</event>
<event>
12    1  0.8407180E-002  0.1968741E+03  0.7818608E-02  0.1152696E+00
         21   -1    0    0  501  502  0.00000000000E+00  0.00000000000E+00  0.10079845094E+03  0.10079845094E+03  0.00000000000E+00 0.  1.
         21   -1    0    0  502  503 -0.00000000000E+00 -0.00000000000E+00 -0.39661896393E+03  0.39661896393E+03  0.00000000000E+00 0. -1.
         -6    2    1    2    0  503  0.20046557125E+02 -0.92928760483E+02 -0.19634222189E+03  0.27804618732E+03  0.17240010211E+03 0.  0.
        -24    2    3    3    0    0  0.32653643282E+02 -0.13050595025E+03 -0.16205469488E+03  0.22542767042E+03  0.80360730398E+02 0.  0.
          6    2    1    2  501    0 -0.20046557125E+02  0.92928760483E+02 -0.99478291100E+02  0.21937122756E+03  0.17085135675E+03 0.  0.
         24    2    5    5    0    0 -0.73184211815E+02  0.88580514951E+02 -0.87318972517E+02  0.16448537680E+03  0.78920211166E+02 0.  0.
          5    1    5    5  501    0  0.53137654690E+02  0.43482455324E+01 -0.12159318583E+02  0.54885850760E+02  0.47000000000E+01 0. -1.
        -13    1    6    6    0    0 -0.73443385864E+02  0.43751390834E+02 -0.83488024025E+02  0.11949211389E+03  0.00000000000E+00 0.  1.
         14    1    6    6    0    0  0.25917404869E+00  0.44829124117E+02 -0.38309484911E+01  0.44993262903E+02  0.00000000000E+00 0. -1.
         -5    1    3    3    0  503 -0.12607086157E+02  0.37577189764E+02 -0.34287527014E+02  0.52618516899E+02  0.47000000000E+01 0.  1.
         11    1    4    4    0    0  0.48672014293E+02 -0.82203418827E+02 -0.14108802912E+03  0.17038837696E+03  0.00000000000E+00 0. -1.
        -12    1    4    4    0    0 -0.16018371012E+02 -0.48302531421E+02 -0.20966665753E+02  0.55039293457E+02  0.00000000000E+00 0.  1.
</event>
<event>
12    1  0.8407180E-002  0.1937389E+03  0.7818608E-02  0.1155553E+00
         21   -1    0    0  501  502  0.00000000000E+00  0.00000000000E+00  0.61303552911E+03  0.61303552911E+03  0.00000000000E+00 0.  1.
         21   -1    0    0  502  503 -0.00000000000E+00 -0.00000000000E+00 -0.71598570588E+02  0.71598570588E+02  0.00000000000E+00 0.  1.
         -6    2    1    2    0  503 -0.70302246318E+02  0.50418727763E+02  0.13558562515E+03  0.23491189907E+03  0.17121823685E+03 0.  0.
        -24    2    3    3    0    0 -0.71522549648E+02  0.94732556591E+02  0.12194326892E+03  0.18829207014E+03  0.80585423351E+02 0.  0.
          6    2    1    2  501    0  0.70302246318E+02 -0.50418727763E+02  0.40585133337E+03  0.44972220063E+03  0.17335022063E+03 0.  0.
         24    2    5    5    0    0  0.79884609547E+02 -0.48019387802E+02  0.41649571741E+03  0.43445879901E+03  0.81230246644E+02 0.  0.
          5    1    5    5  501    0 -0.95823632290E+01 -0.23993399610E+01 -0.10644384040E+02  0.15263401616E+02  0.47000000000E+01 0. -1.
        -13    1    6    6    0    0  0.10302198934E+02  0.21913403651E+02  0.64333381223E+02  0.68739482846E+02  0.00000000000E+00 0.  1.
         14    1    6    6    0    0  0.69582410613E+02 -0.69932791453E+02  0.35216233619E+03  0.36571931617E+03  0.00000000000E+00 0. -1.
         -5    1    3    3    0  503  0.12203033304E+01 -0.44313828828E+02  0.13642356227E+02  0.46619828925E+02  0.47000000000E+01 0.  1.
         13    1    4    4    0    0 -0.67550464978E+02  0.22613769881E+02  0.61486733003E+02  0.94101361532E+02  0.00000000000E+00 0. -1.
        -14    1    4    4    0    0 -0.39720846709E+01  0.72118786710E+02  0.60456535921E+02  0.94190708611E+02  0.00000000000E+00 0.  1.
</event>
<event>
12    1  0.8407180E-002  0.2436623E+03  0.7818608E-02  0.1117567E+00
         21   -1    0    0  503  502  0.00000000000E+00  0.00000000000E+00  0.23592784012E+03  0.23592784012E+03  0.00000000000E+00 0.  1.
         21   -1    0    0  501  503 -0.00000000000E+00 -0.00000000000E+00 -0.29093740001E+03  0.29093740001E+03  0.00000000000E+00 0.  1.
          6    2    1    2  501    0 -0.16919363785E+03  0.27196304883E+02 -0.12571555629E+03  0.27315148563E+03  0.17158440174E+03 0.  0.
         24    2    3    3    0    0 -0.15189334538E+03 -0.20507818343E+02 -0.13721461479E+03  0.22090876519E+03  0.80502627558E+02 0.  0.
         -6    2    1    2    0  502  0.16919363785E+03 -0.27196304883E+02  0.70705996401E+02  0.25371375449E+03  0.17322010623E+03 0.  0.
        -24    2    5    5    0    0  0.14006323418E+03 -0.57809810002E+02  0.10438495951E+03  0.19947235269E+03  0.77028020950E+02 0.  0.
          5    1    3    3  501    0 -0.17300292476E+02  0.47704123226E+02  0.11499058503E+02  0.52242720440E+02  0.47000000000E+01 0. -1.
        -11    1    4    4    0    0 -0.25005520103E+02  0.10707883634E+02  0.51298379913E+01  0.27681221891E+02  0.00000000000E+00 0.  1.
         12    1    4    4    0    0 -0.12688782527E+03 -0.31215701977E+02 -0.14234445278E+03  0.19322754330E+03  0.00000000000E+00 0. -1.
         -5    1    5    5    0  502  0.29130403670E+02  0.30613505119E+02 -0.33678963111E+02  0.54241401806E+02  0.47000000000E+01 0.  1.
         11    1    6    6    0    0  0.34030738277E+02 -0.13710722837E+02  0.70936726995E+02  0.79862972053E+02  0.00000000000E+00 0. -1.
        -12    1    6    6    0    0  0.10603249591E+03 -0.44099087165E+02  0.33448232517E+02  0.11960938063E+03  0.00000000000E+00 0.  1.
</event>
<event>
12    1  0.8407180E-002  0.2180214E+03  0.7818608E-02  0.1138838E+00
         21   -1    0    0  501  502  0.00000000000E+00  0.00000000000E+00  0.70281000890E+03  0.70281000890E+03  0.00000000000E+00 0. -1.
         21   -1    0    0  502  503 -0.00000000000E+00 -0.00000000000E+00 -0.69570270333E+02  0.69570270333E+02  0.00000000000E+00 0.  1.
         -6    2    1    2    0  503  0.15565407864E+02  0.10317600640E+03  0.20365692533E+03  0.29834457825E+03  0.19143085937E+03 0.  0.
        -24    2    3    3    0    0  0.72871910982E+02  0.47056702008E+02  0.13449078153E+03  0.19232827256E+03  0.10666651534E+03 0.  0.
          6    2    1    2  501    0 -0.15565407864E+02 -0.10317600640E+03  0.42958281324E+03  0.47403570098E+03  0.17111657475E+03 0.  0.
         24    2    5    5    0    0  0.33467579095E+02 -0.16794918011E+02  0.11816936027E+03  0.14713150258E+03  0.79256124203E+02 0.  0.
          5    1    5    5  501    0 -0.49032986959E+02 -0.86381088390E+02  0.31141345296E+03  0.32690419840E+03  0.47000000000E+01 0. -1.
        -11    1    6    6    0    0  0.11922402443E+02 -0.43473619032E+02  0.34684250794E+02  0.56877908584E+02  0.00000000000E+00 0.  1.
         12    1    6    6    0    0  0.21545176652E+02  0.26678701020E+02  0.83485109480E+02  0.90253594000E+02  0.00000000000E+00 0. -1.
         -5    1    3    3    0  503 -0.57306503117E+02  0.56119304394E+02  0.69166143798E+02  0.10601630569E+03  0.47000000000E+01 0.  1.
         13    1    4    4    0    0  0.44600610456E+02  0.79835347710E+02  0.10825796032E+03  0.14171338388E+03  0.00000000000E+00 0. -1.
        -14    1    4    4    0    0  0.28271300526E+02 -0.32778645702E+02  0.26232821207E+02  0.50614888679E+02  0.00000000000E+00 0.  1.
</event>
<event>
12    1  0.8407180E-002  0.2441579E+03  0.7818608E-02  0.1117390E+00
         21   -1    0    0  503  502  0.00000000000E+00  0.00000000000E+00  0.33522603587E+03  0.33522603587E+03  0.00000000000E+00 0.  1.
         21   -1    0    0  501  503 -0.00000000000E+00 -0.00000000000E+00 -0.20162485471E+03  0.20162485471E+03  0.00000000000E+00 0.  1.
          6    2    1    2  501    0 -0.74833038905E+02  0.15275579888E+03 -0.28014249424E+02  0.24575979703E+03  0.17515353797E+03 0.  0.
         24    2    3    3    0    0 -0.33944601114E+02  0.67485446796E+02  0.52324027620E+02  0.12158562078E+03  0.79616190814E+02 0.  0.
         -6    2    1    2    0  502  0.74833038905E+02 -0.15275579888E+03  0.16161543058E+03  0.29109109355E+03  0.17227930677E+03 0.  0.
        -24    2    5    5    0    0  0.55402608956E+02 -0.68010648752E+02  0.15572425574E+02  0.12106188609E+03  0.81966959218E+02 0.  0.
          5    1    3    3  501    0 -0.40888437791E+02  0.85270352079E+02 -0.80338277044E+02  0.12417417625E+03  0.47000000000E+01 0. -1.
        -11    1    4    4    0    0 -0.28345345435E+02  0.84563833603E+02  0.52727320938E+02  0.10360825708E+03  0.00000000000E+00 0.  1.
         12    1    4    4    0    0 -0.55992556792E+01 -0.17078386808E+02 -0.40329331819E+00  0.17977363700E+02  0.00000000000E+00 0. -1.
         -5    1    5    5    0  502  0.19430429948E+02 -0.84745150124E+02  0.14604300501E+03  0.17002920746E+03  0.47000000000E+01 0.  1.
         11    1    6    6    0    0  0.76972114218E+02 -0.48696868613E+02  0.12770985833E+02  0.91973852040E+02  0.00000000000E+00 0. -1.
        -12    1    6    6    0    0 -0.21569505262E+02 -0.19313780139E+02  0.28014397412E+01  0.29088034054E+02  0.00000000000E+00 0.  1.
</event>
<event>
12    1  0.8407180E-002  0.2124865E+03  0.7818608E-02  0.1139984E+00
         21   -1    0    0  501  502  0.00000000000E+00  0.00000000000E+00  0.19600802284E+03  0.19600802284E+03  0.00000000000E+00 0. -1.
         21   -1    0    0  502  503 -0.00000000000E+00 -0.00000000000E+00 -0.25716932317E+03  0.25716932317E+03  0.00000000000E+00 0.  1.
         -6    2    1    2    0  503  0.57877856258E+02 -0.10941604516E+03 -0.10662436394E+03  0.23773778621E+03  0.17271011211E+03 0.  0.
        -24    2    3    3    0    0  0.16652245385E+02 -0.10155193230E+03 -0.90868125792E+01  0.13145016140E+03  0.81280271527E+02 0.  0.
          6    2    1    2  501    0 -0.57877856258E+02  0.10941604516E+03  0.45463063607E+02  0.21543955979E+03  0.17036900125E+03 0.  0.
         24    2    5    5    0    0 -0.10391101611E+02  0.15812110646E+00 -0.14828738587E+02  0.81837623998E+02  0.79809180039E+02 0.  0.
          5    1    5    5  501    0 -0.47486754648E+02  0.10925792406E+03  0.60291802194E+02  0.13360193580E+03  0.47000000000E+01 0. -1.
        -13    1    6    6    0    0 -0.32526157646E+02  0.26413668496E+02 -0.21124465767E+02  0.46924150164E+02  0.00000000000E+00 0.  1.
         14    1    6    6    0    0  0.22135056036E+02 -0.26255547390E+02  0.62957271803E+01  0.34913473834E+02  0.00000000000E+00 0. -1.
         -5    1    3    3    0  503  0.41225610873E+02 -0.78641128650E+01 -0.97537551357E+02  0.10628762481E+03  0.47000000000E+01 0.  1.
         11    1    4    4    0    0  0.22032138633E+02 -0.36811214758E+02  0.32930628528E+02  0.54082408970E+02  0.00000000000E+00 0. -1.
        -12    1    4    4    0    0 -0.53798932480E+01 -0.64740717542E+02 -0.42017441107E+02  0.77367752432E+02  0.00000000000E+00 0.  1.
</event>
<event>
12    1  0.8407180E-002  0.2759331E+03  0.7818608E-02  0.1097999E+00
         21   -1    0    0  503  502  0.00000000000E+00  0.00000000000E+00  0.61075061085E+03  0.61075061085E+03  0.00000000000E+00 0. -1.
         21   -1    0    0  501  503 -0.00000000000E+00 -0.00000000000E+00 -0.13083486338E+03  0.13083486338E+03  0.00000000000E+00 0.  1.
          6    2    1    2  501    0 -0.20524966666E+03 -0.66944236958E+02  0.15780813692E+03  0.31744824413E+03  0.17105853705E+03 0.  0.
         24    2    3    3    0    0 -0.86037943410E+02 -0.61998694477E+02  0.18984368207E+02  0.13433619617E+03  0.80246131006E+02 0.  0.
         -6    2    1    2    0  502  0.20524966666E+03  0.66944236958E+02  0.32210761056E+03  0.42413723011E+03  0.17184330263E+03 0.  0.
        -24    2    5    5    0    0  0.15799875505E+03  0.10486535004E+03  0.28964885473E+03  0.35524368690E+03  0.79632090284E+02 0.  0.
          5    1    3    3  501    0 -0.11921172325E+03 -0.49455424808E+01  0.13882376871E+03  0.18311204796E+03  0.47000000000E+01 0. -1.
        -11    1    4    4    0    0 -0.74579573618E+02 -0.81434678066E+02  0.15920715767E+02  0.11156696995E+03  0.00000000000E+00 0.  1.
         12    1    4    4    0    0 -0.11458369791E+02  0.19435983589E+02  0.30636524403E+01  0.22769226220E+02  0.00000000000E+00 0. -1.
         -5    1    5    5    0  502  0.47250911611E+02 -0.37921113083E+02  0.32458755831E+02  0.68893543207E+02  0.47000000000E+01 0.  1.
         11    1    6    6    0    0 -0.19282482278E+01  0.24813148907E+02  0.21293422764E+02  0.32753936449E+02  0.00000000000E+00 0. -1.
        -12    1    6    6    0    0  0.15992700327E+03  0.80052201134E+02  0.26835543196E+03  0.32248975045E+03  0.00000000000E+00 0.  1.
</event>
<event>
12    1  0.8407180E-002  0.2808310E+03  0.7818608E-02  0.1095291E+00
         21   -1    0    0  501  502  0.00000000000E+00  0.00000000000E+00  0.13905688761E+04  0.13905688761E+04  0.00000000000E+00 0.  1.
         21   -1    0    0  502  503 -0.00000000000E+00 -0.00000000000E+00 -0.69382562998E+02  0.69382562998E+02  0.00000000000E+00 0. -1.
         -6    2    1    2    0  503  0.10242737752E+03 -0.19702033418E+03  0.34807121564E+03  0.44723550941E+03  0.17192338404E+03 0.  0.
        -24    2    3    3    0    0  0.64454376992E+02 -0.14493451583E+03  0.12995186933E+03  0.21974260738E+03  0.78986989829E+02 0.  0.
          6    2    1    2  501    0 -0.10242737752E+03  0.19702033418E+03  0.97311509748E+03  0.10127159297E+04  0.17126640530E+03 0.  0.
         24    2    5    5    0    0 -0.11551083681E+03  0.76144849166E+02  0.56731406059E+03  0.58906674544E+03  0.77547377564E+02 0.  0.
          5    1    5    5  501    0  0.13083459288E+02  0.12087548501E+03  0.40580103689E+03  0.42364918426E+03  0.47000000000E+01 0. -1.
        -13    1    6    6    0    0 -0.84247018768E+02  0.86620418742E+02  0.37619865455E+03  0.39512793472E+03  0.00000000000E+00 0.  1.
         14    1    6    6    0    0 -0.31263818040E+02 -0.10475569576E+02  0.19111540604E+03  0.19393881072E+03  0.00000000000E+00 0. -1.
         -5    1    3    3    0  503  0.37973000527E+02 -0.52085818344E+02  0.21811934631E+03  0.22749290203E+03  0.47000000000E+01 0.  1.
         13    1    4    4    0    0  0.45083325049E+02 -0.41188602709E+02  0.13420414338E+02  0.62522913493E+02  0.00000000000E+00 0. -1.
        -14    1    4    4    0    0  0.19371051943E+02 -0.10374591312E+03  0.11653145499E+03  0.15721969389E+03  0.00000000000E+00 0.  1.
</event>
<event>
12    1  0.8407180E-002  0.2540349E+03  0.7818608E-02  0.1111841E+00
         21   -1    0    0  501  502  0.00000000000E+00  0.00000000000E+00  0.34437445822E+03  0.34437445822E+03  0.00000000000E+00 0.  1.
         21   -1    0    0  502  503 -0.00000000000E+00 -0.00000000000E+00 -0.28985241885E+03  0.28985241885E+03  0.00000000000E+00 0.  1.
         -6    2    1    2    0  503 -0.17257106433E+03 -0.71342127100E+02 -0.16553136299E+03  0.30320678228E+03  0.17223022191E+03 0.  0.
        -24    2    3    3    0    0 -0.70156839233E+02  0.25475740750E+02 -0.47635464310E+02  0.11940279439E+03  0.80105520341E+02 0.  0.
          6    2    1    2  501    0  0.17257106433E+03  0.71342127100E+02  0.22005340237E+03  0.33102009480E+03  0.16211209679E+03 0.  0.
         24    2    5    5    0    0  0.12210419355E+03  0.42694826436E+02  0.22492863566E+03  0.27259552136E+03  0.83565213106E+02 0.  0.
          5    1    5    5  501    0  0.50466870783E+02  0.28647300664E+02 -0.48752332902E+01  0.58424573440E+02  0.47000000000E+01 0. -1.
        -13    1    6    6    0    0  0.79894313538E+02  0.61111076763E+00  0.68660249924E+02  0.10534564401E+03  0.00000000000E+00 0.  1.
         14    1    6    6    0    0  0.42209880011E+02  0.42083715668E+02  0.15626838573E+03  0.16724987735E+03  0.00000000000E+00 0. -1.
         -5    1    3    3    0  503 -0.10241422510E+03 -0.96817867850E+02 -0.11789589868E+03  0.18380398789E+03  0.47000000000E+01 0.  1.
         11    1    4    4    0    0 -0.40912645379E+02  0.53288216319E+01 -0.67202280520E+02  0.78856752399E+02  0.00000000000E+00 0. -1.
        -12    1    4    4    0    0 -0.29244193855E+02  0.20146919118E+02  0.19566816210E+02  0.40546041986E+02  0.00000000000E+00 0.  1.
</event>
<event>
12    1  0.8407180E-002  0.1737726E+03  0.7818608E-02  0.1174036E+00
         21   -1    0    0  503  502  0.00000000000E+00  0.00000000000E+00  0.38547668347E+03  0.38547668347E+03  0.00000000000E+00 0. -1.
         21   -1    0    0  501  503 -0.00000000000E+00 -0.00000000000E+00 -0.81359096612E+02  0.81359096612E+02  0.00000000000E+00 0. -1.
          6    2    1    2  501    0 -0.20071245117E+02  0.15650840424E+02  0.10608577002E+03  0.20337133662E+03  0.17163305705E+03 0.  0.
         24    2    3    3    0    0  0.19061708313E+02  0.31514142624E+01 -0.11581814675E+02  0.78650150823E+02  0.75355342596E+02 0.  0.
         -6    2    1    2    0  502  0.20071245117E+02 -0.15650840424E+02  0.19803181684E+03  0.26346444346E+03  0.17189854218E+03 0.  0.
        -24    2    5    5    0    0 -0.33312250604E+02 -0.54297450793E+02  0.14903887499E+03  0.18121022497E+03  0.81034808404E+02 0.  0.
          5    1    3    3  501    0 -0.39132953430E+02  0.12499426161E+02  0.11766758470E+03  0.12472118580E+03  0.47000000000E+01 0. -1.
        -13    1    4    4    0    0 -0.53995971185E+01  0.34050431817E+02  0.68396271164E+01  0.35147802991E+02  0.00000000000E+00 0.  1.
         14    1    4    4    0    0  0.24461305431E+02 -0.30899017555E+02 -0.18421441791E+02  0.43502347832E+02  0.00000000000E+00 0. -1.
         -5    1    5    5    0  502  0.53383495721E+02  0.38646610369E+02  0.48992941843E+02  0.82254218487E+02  0.47000000000E+01 0.  1.
         13    1    6    6    0    0  0.43246187425E+01  0.46895604514E+01 -0.74394543385E+01  0.97999890485E+01  0.00000000000E+00 0. -1.
        -14    1    6    6    0    0 -0.37636869346E+02 -0.58987011244E+02  0.15647832933E+03  0.17141023593E+03  0.00000000000E+00 0.  1.
</event>
<event>
12    1  0.8407180E-002  0.2100170E+03  0.7818608E-02  0.1141565E+00
         21   -1    0    0  501  502  0.00000000000E+00  0.00000000000E+00  0.12157877131E+04  0.12157877131E+04  0.00000000000E+00 0. -1.
         21   -1    0    0  502  503 -0.00000000000E+00 -0.00000000000E+00 -0.84862634909E+02  0.84862634909E+02  0.00000000000E+00 0.  1.
         -6    2    1    2    0  503  0.64062960018E+02  0.10171426942E+03  0.73312067027E+02  0.22238673171E+03  0.17213757236E+03 0.  0.
        -24    2    3    3    0    0  0.54350831650E+02 -0.55950161106E+01  0.59763093795E+02  0.11368865043E+03  0.79800781635E+02 0.  0.
          6    2    1    2  501    0 -0.64062960018E+02 -0.10171426942E+03  0.10576130112E+04  0.10782636163E+04  0.17221291879E+03 0.  0.
         24    2    5    5    0    0 -0.56542164356E+01 -0.39352949003E+02  0.23323739657E+03  0.24945859728E+03  0.79052411980E+02 0.  0.
          5    1    5    5  501    0 -0.58408743583E+02 -0.62361320419E+02  0.82437561458E+03  0.82880501900E+03  0.47000000000E+01 0. -1.
        -13    1    6    6    0    0 -0.34495085721E+02  0.23936595068E+01  0.12860288388E+03  0.13317035063E+03  0.00000000000E+00 0.  1.
         14    1    6    6    0    0  0.28840869285E+02 -0.41746608510E+02  0.10463451269E+03  0.11628824665E+03  0.00000000000E+00 0. -1.
         -5    1    3    3    0  503  0.97121283683E+01  0.10730928553E+03  0.13548973232E+02  0.10869808128E+03  0.47000000000E+01 0.  1.
         13    1    4    4    0    0 -0.18404735566E+02  0.94609613901E+01  0.22504194766E+02  0.30572583530E+02  0.00000000000E+00 0. -1.
        -14    1    4    4    0    0  0.72755567216E+02 -0.15055977501E+02  0.37258899030E+02  0.83116066896E+02  0.00000000000E+00 0.  1.
</event>
<event>
12    1  0.8407180E-002  0.2141772E+03  0.7818608E-02  0.1138409E+00
         21   -1    0    0  503  502  0.00000000000E+00  0.00000000000E+00  0.87108046541E+02  0.87108046541E+02  0.00000000000E+00 0. -1.
         21   -1    0    0  501  503 -0.00000000000E+00 -0.00000000000E+00 -0.58862761102E+03  0.58862761102E+03  0.00000000000E+00 0. -1.
          6    2    1    2  501    0 -0.12280073806E+03  0.30919134277E+02 -0.36135136142E+03  0.41976887945E+03  0.17203224007E+03 0.  0.
         24    2    3    3    0    0  0.69030286517E+01  0.63312407788E+01 -0.17896314546E+03  0.19456856212E+03  0.75771904535E+02 0.  0.
         -6    2    1    2    0  502  0.12280073806E+03 -0.30919134277E+02 -0.14016820306E+03  0.25596677812E+03  0.17273057696E+03 0.  0.
        -24    2    5    5    0    0  0.15118946929E+03 -0.49593611538E+02 -0.10099080230E+03  0.20389360948E+03  0.77818249177E+02 0.  0.
          5    1    3    3  501    0 -0.12970376671E+03  0.24587893498E+02 -0.18238821596E+03  0.22520031733E+03  0.47000000000E+01 0. -1.
        -13    1    4    4    0    0  0.45406883451E+01  0.18641654369E+01  0.69930317298E+01  0.85437378352E+01  0.00000000000E+00 0.  1.
         14    1    4    4    0    0  0.23623403066E+01  0.44670753419E+01 -0.18595617719E+03  0.18602482428E+03  0.00000000000E+00 0. -1.
         -5    1    5    5    0  502 -0.28388731231E+02  0.18674477261E+02 -0.39177400761E+02  0.52073168641E+02  0.47000000000E+01 0.  1.
         13    1    6    6    0    0  0.14960973546E+03 -0.24109252688E+02 -0.88150016150E+02  0.17531330342E+03  0.00000000000E+00 0. -1.
        -14    1    6    6    0    0  0.15797338296E+01 -0.25484358850E+02 -0.12840786153E+02  0.28580306051E+02  0.00000000000E+00 0.  1.
</event>
<event>
12    1  0.8407180E-002  0.2048306E+03  0.7818608E-02  0.1145855E+00
         21   -1    0    0  501  502  0.00000000000E+00  0.00000000000E+00  0.63235295137E+03  0.63235295137E+03  0.00000000000E+00 0.  1.
         21   -1    0    0  502  503 -0.00000000000E+00 -0.00000000000E+00 -0.16624603425E+03  0.16624603425E+03  0.00000000000E+00 0.  1.
         -6    2    1    2    0  503 -0.49425338685E+01 -0.11069239250E+03 -0.76648105250E+02  0.21870186861E+03  0.17227402851E+03 0.  0.
        -24    2    3    3    0    0  0.14113822620E+02 -0.14268144260E+03 -0.45403233897E+02  0.16986769989E+03  0.78970803256E+02 0.  0.
          6    2    1    2  501    0  0.49425338685E+01  0.11069239250E+03  0.54275502238E+03  0.57989711701E+03  0.17152381061E+03 0.  0.
         24    2    5    5    0    0 -0.53250115822E+02  0.35855394547E+02  0.19975075487E+03  0.22400250021E+03  0.78457452648E+02 0.  0.
          5    1    5    5  501    0  0.58192649690E+02  0.74836997949E+02  0.34300426751E+03  0.35589461680E+03  0.47000000000E+01 0. -1.
        -11    1    6    6    0    0 -0.56981187719E+02  0.38458183758E+02  0.20548699011E+03  0.21668131151E+03  0.00000000000E+00 0.  1.
         12    1    6    6    0    0  0.37310718973E+01 -0.26027892118E+01 -0.57362352446E+01  0.73211886989E+01  0.00000000000E+00 0. -1.
         -5    1    3    3    0  503 -0.19056356488E+02  0.31989050101E+02 -0.31244871353E+02  0.48834168723E+02  0.47000000000E+01 0.  1.
         13    1    4    4    0    0  0.38923751455E+02 -0.96005548972E+02 -0.56905694559E+01  0.10375213945E+03  0.00000000000E+00 0. -1.
        -14    1    4    4    0    0 -0.24809928836E+02 -0.46675893625E+02 -0.39712664441E+02  0.66115560434E+02  0.00000000000E+00 0.  1.
</event>
<event>
12    1  0.8407180E-002  0.1750940E+03  0.7818608E-02  0.1172998E+00
         21   -1    0    0  501  502  0.00000000000E+00  0.00000000000E+00  0.42148730883E+03  0.42148730883E+03  0.00000000000E+00 0. -1.
         21   -1    0    0  502  503 -0.00000000000E+00 -0.00000000000E+00 -0.16485296085E+03  0.16485296085E+03  0.00000000000E+00 0.  1.
         -6    2    1    2    0  503 -0.26264190201E+02  0.13202090340E+02 -0.91766548517E+02  0.19641577613E+03  0.17115476859E+03 0.  0.
        -24    2    3    3    0    0 -0.21868781831E+01  0.88123893677E+01 -0.12866965561E+03  0.15188583405E+03  0.80193426582E+02 0.  0.
          6    2    1    2  501    0  0.26264190201E+02 -0.13202090340E+02  0.34840089650E+03  0.38992449355E+03  0.17260887321E+03 0.  0.
         24    2    5    5    0    0 -0.38793594996E+02 -0.41648020565E+02  0.15055172894E+03  0.17966734275E+03  0.79843787061E+02 0.  0.
          5    1    5    5  501    0  0.65057785197E+02  0.28445930225E+02  0.19784916756E+03  0.21025715080E+03  0.47000000000E+01 0. -1.
        -11    1    6    6    0    0 -0.25864706734E+02  0.17430898528E+02  0.23821453563E+02  0.39246412929E+02  0.00000000000E+00 0.  1.
         12    1    6    6    0    0 -0.12928888262E+02 -0.59078919093E+02  0.12673027538E+03  0.14042092982E+03  0.00000000000E+00 0. -1.
         -5    1    3    3    0  503 -0.24077312018E+02  0.43897009720E+01  0.36903107097E+02  0.44529942084E+02  0.47000000000E+01 0.  1.
         13    1    4    4    0    0 -0.25533997546E+02 -0.23466487740E+02 -0.89644525392E+02  0.96118687103E+02  0.00000000000E+00 0. -1.
        -14    1    4    4    0    0  0.23347119363E+02  0.32278877108E+02 -0.39025130221E+02  0.55767146948E+02  0.00000000000E+00 0.  1.
</event>
<event>
12    1  0.8407180E-002  0.1918269E+03  0.7818608E-02  0.1156962E+00
         21   -1    0    0  501  502  0.00000000000E+00  0.00000000000E+00  0.33353272551E+03  0.33353272551E+03  0.00000000000E+00 0.  1.
         21   -1    0    0  502  503 -0.00000000000E+00 -0.00000000000E+00 -0.11137852830E+03  0.11137852830E+03  0.00000000000E+00 0. -1.
         -6    2    1    2    0  503  0.36083694733E+02 -0.76494470062E+02  0.86235096037E+02  0.21031896311E+03  0.17217472950E+03 0.  0.
        -24    2    3    3    0    0  0.20895889803E+02 -0.18511196073E+02 -0.11827653011E+02  0.95292347789E+02  0.90340664048E+02 0.  0.
          6    2    1    2  501    0 -0.36083694733E+02  0.76494470062E+02  0.13591910118E+03  0.23459229070E+03  0.17148208015E+03 0.  0.
         24    2    5    5    0    0  0.14483577185E+02  0.35974442258E+02  0.14276304150E+03  0.16926349795E+03  0.82249080331E+02 0.  0.
          5    1    5    5  501    0 -0.50567271918E+02  0.40520027804E+02 -0.68439403270E+01  0.65328792746E+02  0.47000000000E+01 0. -1.
        -13    1    6    6    0    0 -0.25559978722E+02  0.30434145456E+02  0.30968297518E+02  0.50384374295E+02  0.00000000000E+00 0.  1.
         14    1    6    6    0    0  0.40043555907E+02  0.55402968017E+01  0.11179474398E+03  0.11887912365E+03  0.00000000000E+00 0. -1.
         -5    1    3    3    0  503  0.15187804930E+02 -0.57983273989E+02  0.98062749049E+02  0.11502661532E+03  0.47000000000E+01 0.  1.
         13    1    4    4    0    0 -0.28682700175E+02 -0.29741855206E+02  0.52823041069E+01  0.41655467554E+02  0.00000000000E+00 0. -1.
        -14    1    4    4    0    0  0.49578589978E+02  0.11230659133E+02 -0.17109957118E+02  0.53636880235E+02  0.00000000000E+00 0.  1.
</event>
<event>
12    1  0.8407180E-002  0.1892124E+03  0.7818608E-02  0.1159656E+00
         21   -1    0    0  503  502  0.00000000000E+00  0.00000000000E+00  0.18305403375E+03  0.18305403375E+03  0.00000000000E+00 0.  1.
         21   -1    0    0  501  503 -0.00000000000E+00 -0.00000000000E+00 -0.19796271924E+03  0.19796271924E+03  0.00000000000E+00 0. -1.
          6    2    1    2  501    0  0.25366929688E+02  0.68984690809E+02 -0.36337579118E+02  0.19059474704E+03  0.17205687796E+03 0.  0.
         24    2    3    3    0    0 -0.44474784571E+01 -0.28084172609E+02 -0.24832360454E+02  0.88292629585E+02  0.79815045558E+02 0.  0.
         -6    2    1    2    0  502 -0.25366929688E+02 -0.68984690809E+02  0.21428893629E+02  0.19042200595E+03  0.17435301598E+03 0.  0.
        -24    2    5    5    0    0 -0.51863926177E+02 -0.90856200006E+02  0.54679832952E+02  0.14237860158E+03  0.79605691624E+02 0.  0.
          5    1    3    3  501    0  0.29814408145E+02  0.97068863418E+02 -0.11505218664E+02  0.10230211745E+03  0.47000000000E+01 0. -1.
        -11    1    4    4    0    0 -0.41470282060E+02 -0.21918585352E+02 -0.17409437321E+02  0.50032960994E+02  0.00000000000E+00 0.  1.
         12    1    4    4    0    0  0.37022803603E+02 -0.61655872578E+01 -0.74229231331E+01  0.38259668591E+02  0.00000000000E+00 0. -1.
         -5    1    5    5    0  502  0.26496996490E+02  0.21871509197E+02 -0.33250939323E+02  0.48043404370E+02  0.47000000000E+01 0.  1.
         11    1    6    6    0    0  0.15442490301E+02 -0.11220948080E+01  0.19335644231E+02  0.24770884951E+02  0.00000000000E+00 0. -1.
        -12    1    6    6    0    0 -0.67306416478E+02 -0.89734105198E+02  0.35344188722E+02  0.11760771663E+03  0.00000000000E+00 0.  1.
</event>
<event>
12    1  0.8407180E-002  0.1979175E+03  0.7818608E-02  0.1152897E+00
         21   -1    0    0  503  502  0.00000000000E+00  0.00000000000E+00  0.18660798116E+03  0.18660798116E+03  0.00000000000E+00 0.  1.
         21   -1    0    0  501  503 -0.00000000000E+00 -0.00000000000E+00 -0.36843968962E+03  0.36843968962E+03  0.00000000000E+00 0.  1.
          6    2    1    2  501    0  0.94421432732E+01  0.85070040702E+02  0.95747979069E+02  0.21413448094E+03  0.17134711709E+03 0.  0.
         24    2    3    3    0    0  0.70813056955E+02  0.56047040558E+02  0.73579521522E+02  0.14256455643E+03  0.82188484429E+02 0.  0.
         -6    2    1    2    0  502 -0.94421432732E+01 -0.85070040702E+02 -0.27757968752E+03  0.34091318985E+03  0.17845238634E+03 0.  0.
        -24    2    5    5    0    0 -0.75135692368E+02 -0.77315594474E+02 -0.17156511772E+03  0.21586538763E+03  0.74432536849E+02 0.  0.
          5    1    3    3  501    0 -0.61370913682E+02  0.29023000144E+02  0.22168457547E+02  0.71569924504E+02  0.47000000000E+01 0. -1.
        -13    1    4    4    0    0 -0.87644594150E+01  0.34387290390E+02  0.40122152827E+02  0.53563874362E+02  0.00000000000E+00 0.  1.
         14    1    4    4    0    0  0.79577516370E+02  0.21659750168E+02  0.33457368695E+02  0.89000682070E+02  0.00000000000E+00 0. -1.
         -5    1    5    5    0  502  0.65693549095E+02 -0.77544462275E+01 -0.10601456980E+03  0.12504780222E+03  0.47000000000E+01 0.  1.
         11    1    6    6    0    0 -0.23225680676E+02 -0.20843622070E+02 -0.38526338170E+01  0.31444102963E+02  0.00000000000E+00 0. -1.
        -12    1    6    6    0    0 -0.51910011692E+02 -0.56471972404E+02 -0.16771248390E+03  0.18442128467E+03  0.00000000000E+00 0.  1.
</event>
<event>
12    1  0.8407180E-002  0.2435375E+03  0.7818608E-02  0.1117904E+00
         21   -1    0    0  501  502  0.00000000000E+00  0.00000000000E+00  0.25953852138E+03  0.25953852138E+03  0.00000000000E+00 0.  1.
         21   -1    0    0  502  503 -0.00000000000E+00 -0.00000000000E+00 -0.22646149292E+03  0.22646149292E+03  0.00000000000E+00 0.  1.
         -6    2    1    2    0  503  0.13230764517E+03 -0.10803414704E+03  0.27769024818E+02  0.24511558052E+03  0.17359101121E+03 0.  0.
        -24    2    3    3    0    0  0.10527832070E+03 -0.45764033917E+01  0.38848000108E+02  0.13751017732E+03  0.79343641691E+02 0.  0.
          6    2    1    2  501    0 -0.13230764517E+03  0.10803414704E+03  0.53080036512E+01  0.24088443378E+03  0.16976585533E+03 0.  0.
         24    2    5    5    0    0 -0.17477178585E+02  0.53044008160E+02  0.44500658545E+02  0.10758737594E+03  0.80471213973E+02 0.  0.
          5    1    5    5  501    0 -0.11483046659E+03  0.54990138885E+02 -0.39192654894E+02  0.13329705784E+03  0.47000000000E+01 0. -1.
        -11    1    6    6    0    0  0.84282741050E+01  0.32706022827E+02 -0.17008596505E+02  0.37815500639E+02  0.00000000000E+00 0.  1.
         12    1    6    6    0    0 -0.25905452690E+02  0.20337985333E+02  0.61509255050E+02  0.69771875303E+02  0.00000000000E+00 0. -1.
         -5    1    3    3    0  503  0.27029324468E+02 -0.10345774365E+03 -0.11078975290E+02  0.10760540319E+03  0.47000000000E+01 0.  1.
         11    1    4    4    0    0 -0.12548153270E+02 -0.63615434511E+01  0.41202255082E+01  0.14659523996E+02  0.00000000000E+00 0. -1.
        -12    1    4    4    0    0  0.11782647397E+03  0.17851400595E+01  0.34727774600E+02  0.12285065333E+03  0.00000000000E+00 0.  1.
</event>
<event>
12    1  0.8407180E-002  0.1815127E+03  0.7818608E-02  0.1167982E+00
         21   -1    0    0  501  502  0.00000000000E+00  0.00000000000E+00  0.44674693830E+02  0.44674693830E+02  0.00000000000E+00 0. -1.
         21   -1    0    0  502  503 -0.00000000000E+00 -0.00000000000E+00 -0.14592399870E+04  0.14592399870E+04  0.00000000000E+00 0. -1.
         -6    2    1    2    0  503 -0.57283133267E+01 -0.50171508758E+02 -0.12523365088E+04  0.12654222991E+04  0.17434698127E+03 0.  0.
        -24    2    3    3    0    0 -0.49519673341E+02 -0.80214928248E+01 -0.39600007636E+03  0.40691866917E+03  0.79058209216E+02 0.  0.
          6    2    1    2  501    0  0.57283133267E+01  0.50171508758E+02 -0.16222878436E+03  0.23849238174E+03  0.16736320924E+03 0.  0.
         24    2    5    5    0    0  0.61825770672E+02  0.49260149532E+02 -0.73727686940E+02  0.13360058253E+03  0.78513410195E+02 0.  0.
          5    1    5    5  501    0 -0.56097457345E+02  0.91135922683E+00 -0.88501097423E+02  0.10489179921E+03  0.47000000000E+01 0. -1.
        -13    1    6    6    0    0 -0.93638166491E+01  0.33936230110E+02 -0.40190674964E+02  0.53428823031E+02  0.00000000000E+00 0.  1.
         14    1    6    6    0    0  0.71189587321E+02  0.15323919421E+02 -0.33537011976E+02  0.80171759502E+02  0.00000000000E+00 0. -1.
         -5    1    3    3    0  503  0.43791360014E+02 -0.42150015934E+02 -0.85633643247E+03  0.85850362995E+03  0.47000000000E+01 0.  1.
         13    1    4    4    0    0 -0.50072092111E+02 -0.38403647020E+02 -0.27750926945E+03  0.28459348050E+03  0.00000000000E+00 0. -1.
        -14    1    4    4    0    0  0.55241876968E+00  0.30382154195E+02 -0.11849080691E+03  0.12232518867E+03  0.00000000000E+00 0.  1.
</event>
<event>
12    1  0.8407180E-002  0.2400726E+03  0.7818608E-02  0.1119809E+00
         21   -1    0    0  501  502  0.00000000000E+00  0.00000000000E+00  0.27699123321E+03  0.27699123321E+03  0.00000000000E+00 0.  1.
         21   -1    0    0  502  503 -0.00000000000E+00 -0.00000000000E+00 -0.38293564761E+03  0.38293564761E+03  0.00000000000E+00 0. -1.
         -6    2    1    2    0  503  0.16125317319E+03 -0.46599837649E+02 -0.27618229231E+03  0.36593921443E+03  0.17164125184E+03 0.  0.
        -24    2    3    3    0    0  0.18456949613E+03 -0.38050761757E+02 -0.20069322851E+03  0.28633126025E+03  0.78702345950E+02 0.  0.
          6    2    1    2  501    0 -0.16125317319E+03  0.46599837649E+02  0.17023787792E+03  0.29398766640E+03  0.17109553525E+03 0.  0.
         24    2    5    5    0    0 -0.18673815655E+03  0.25570988844E+02  0.13478167871E+03  0.24529548098E+03  0.80490729219E+02 0.  0.
          5    1    5    5  501    0  0.25484983354E+02  0.21028848805E+02  0.35456199211E+02  0.48692185421E+02  0.47000000000E+01 0. -1.
        -11    1    6    6    0    0 -0.13993846442E+03  0.51715302596E+02  0.11417197292E+03  0.18786294405E+03  0.00000000000E+00 0.  1.
         12    1    6    6    0    0 -0.46799692130E+02 -0.26144313752E+02  0.20609705783E+02  0.57432536924E+02  0.00000000000E+00 0. -1.
         -5    1    3    3    0  503 -0.23316322931E+02 -0.85490758921E+01 -0.75489063807E+02  0.79607954176E+02  0.47000000000E+01 0.  1.
         11    1    4    4    0    0  0.95053886605E+02 -0.12883140547E+02 -0.47290832843E+02  0.10694690056E+03  0.00000000000E+00 0. -1.
        -12    1    4    4    0    0  0.89515609521E+02 -0.25167621210E+02 -0.15340239566E+03  0.17938435969E+03  0.00000000000E+00 0.  1.
</event>
<event>
12    1  0.8407180E-002  0.2150891E+03  0.7818608E-02  0.1137731E+00
         21   -1    0    0  501  502  0.00000000000E+00  0.00000000000E+00  0.43042262881E+03  0.43042262881E+03  0.00000000000E+00 0.  1.
         21   -1    0    0  502  503 -0.00000000000E+00 -0.00000000000E+00 -0.10847625669E+03  0.10847625669E+03  0.00000000000E+00 0.  1.
         -6    2    1    2    0  503  0.47711692428E+02  0.11878922629E+03  0.19063194809E+03  0.28689329942E+03  0.17198819651E+03 0.  0.
        -24    2    3    3    0    0 -0.24017472642E+02  0.22663163436E+02  0.42743157257E+02  0.96424200778E+02  0.79876098017E+02 0.  0.
          6    2    1    2  501    0 -0.47711692428E+02 -0.11878922629E+03  0.13131442402E+03  0.25200558608E+03  0.17284690215E+03 0.  0.
         24    2    5    5    0    0 -0.19240028740E+02 -0.13936205061E+03  0.60779812626E+02  0.17306828097E+03  0.80414453931E+02 0.  0.
          5    1    5    5  501    0 -0.28471663687E+02  0.20572824310E+02  0.70534611393E+02  0.78937305107E+02  0.47000000000E+01 0. -1.
        -11    1    6    6    0    0 -0.10739002348E+02 -0.79974349094E+02  0.76349631678E+02  0.11108775334E+03  0.00000000000E+00 0.  1.
         12    1    6    6    0    0 -0.85010263920E+01 -0.59387701511E+02 -0.15569819052E+02  0.61980527634E+02  0.00000000000E+00 0. -1.
         -5    1    3    3    0  503  0.71729165069E+02  0.96126062859E+02  0.14788879084E+03  0.19046909864E+03  0.47000000000E+01 0.  1.
         11    1    4    4    0    0 -0.32421467350E+01  0.25429942626E+01  0.61704181328E+02  0.61841606776E+02  0.00000000000E+00 0. -1.
        -12    1    4    4    0    0 -0.20775325906E+02  0.20120169173E+02 -0.18961024072E+02  0.34582594002E+02  0.00000000000E+00 0.  1.
</event>
<event>
12    1  0.8407180E-002  0.2369852E+03  0.7818608E-02  0.1121974E+00
         21   -1    0    0  503  502  0.00000000000E+00  0.00000000000E+00  0.60817366087E+03  0.60817366087E+03  0.00000000000E+00 0. -1.
         21   -1    0    0  501  503 -0.00000000000E+00 -0.00000000000E+00 -0.15942609362E+03  0.15942609362E+03  0.00000000000E+00 0. -1.
          6    2    1    2  501    0  0.11491830687E+02  0.16275011053E+03 -0.24995256104E+02  0.23829965523E+03  0.17187874274E+03 0.  0.
         24    2    3    3    0    0  0.12655493916E+02  0.80424194944E+02  0.50067523498E+02  0.12678543474E+03  0.83304122919E+02 0.  0.
         -6    2    1    2    0  502 -0.11491830687E+02 -0.16275011053E+03  0.47374282336E+03  0.52930009926E+03  0.17060677519E+03 0.  0.
        -24    2    5    5    0    0 -0.40092899479E+02 -0.73507646868E+02  0.12621297900E+03  0.16932604300E+03  0.75701902449E+02 0.  0.
          5    1    3    3  501    0 -0.11636632296E+01  0.82325915591E+02 -0.75062779602E+02  0.11151422049E+03  0.47000000000E+01 0. -1.
        -13    1    4    4    0    0 -0.30919136848E+02  0.39999908632E+02  0.24332805003E+01  0.50615279985E+02  0.00000000000E+00 0.  1.
         14    1    4    4    0    0  0.43574630764E+02  0.40424286312E+02  0.47634242998E+02  0.76170154759E+02  0.00000000000E+00 0. -1.
         -5    1    5    5    0  502  0.28601068792E+02 -0.89242463667E+02  0.34752984436E+03  0.35997405626E+03  0.47000000000E+01 0.  1.
         11    1    6    6    0    0  0.90812732894E+01  0.10763352824E+02  0.25318759062E+02  0.28971690475E+02  0.00000000000E+00 0. -1.
        -12    1    6    6    0    0 -0.49174172769E+02 -0.84270999692E+02  0.10089421994E+03  0.14035435253E+03  0.00000000000E+00 0.  1.
</event>
<event>
12    1  0.8407180E-002  0.1915347E+03  0.7818608E-02  0.1157857E+00
         21   -1    0    0  501  502  0.00000000000E+00  0.00000000000E+00  0.13617777690E+03  0.13617777690E+03  0.00000000000E+00 0.  1.
         21   -1    0    0  502  503 -0.00000000000E+00 -0.00000000000E+00 -0.59996280060E+03  0.59996280060E+03  0.00000000000E+00 0.  1.
         -6    2    1    2    0  503 -0.13633311480E+02  0.75313734172E+02 -0.50615256045E+03  0.53997596485E+03  0.17183015575E+03 0.  0.
        -24    2    3    3    0    0  0.39693919116E+02  0.72147181127E+02 -0.21499793046E+03  0.24392372427E+03  0.80584429043E+02 0.  0.
          6    2    1    2  501    0  0.13633311480E+02 -0.75313734172E+02  0.42367536755E+02  0.19616461265E+03  0.17557767896E+03 0.  0.
         24    2    5    5    0    0 -0.96401457416E+01 -0.71665369546E+02  0.91873284209E+02  0.14113849697E+03  0.79060213595E+02 0.  0.
          5    1    5    5  501    0  0.23273457222E+02 -0.36483646266E+01 -0.49505747455E+02  0.55026115677E+02  0.47000000000E+01 0. -1.
        -13    1    6    6    0    0  0.26391024333E+02 -0.31776826147E+02  0.88671141939E+01  0.42247823133E+02  0.00000000000E+00 0.  1.
         14    1    6    6    0    0 -0.36031170075E+02 -0.39888543399E+02  0.83006170015E+02  0.98890673838E+02  0.00000000000E+00 0. -1.
         -5    1    3    3    0  503 -0.53327230596E+02  0.31665530450E+01 -0.29115463000E+03  0.29605224058E+03  0.47000000000E+01 0.  1.
         13    1    4    4    0    0  0.39242128538E+02  0.23927310192E+01 -0.11851316386E+03  0.12486408539E+03  0.00000000000E+00 0. -1.
        -14    1    4    4    0    0  0.45179057742E+00  0.69754450108E+02 -0.96484766598E+02  0.11905963888E+03  0.00000000000E+00 0.  1.
</event>
<event>
12    1  0.8407180E-002  0.1817487E+03  0.7818608E-02  0.1166361E+00
         21   -1    0    0  501  502  0.00000000000E+00  0.00000000000E+00  0.34529731201E+03  0.34529731201E+03  0.00000000000E+00 0.  1.
         21   -1    0    0  502  503 -0.00000000000E+00 -0.00000000000E+00 -0.95509785359E+02  0.95509785359E+02  0.00000000000E+00 0.  1.
         -6    2    1    2    0  503 -0.30145511119E+02  0.51734054283E+02  0.11147743751E+03  0.21321307336E+03  0.17160253892E+03 0.  0.
        -24    2    3    3    0    0  0.17594431745E+02 -0.27581540302E+02  0.71910006164E+02  0.11242747264E+03  0.79991138405E+02 0.  0.
          6    2    1    2  501    0  0.30145511119E+02 -0.51734054283E+02  0.13831008914E+03  0.22759402402E+03  0.17054088893E+03 0.  0.
         24    2    5    5    0    0  0.28274007680E+02  0.43118863704E+01  0.78786219001E+01  0.85540838076E+02  0.80231854156E+02 0.  0.
          5    1    5    5  501    0  0.18715034383E+01 -0.56045940654E+02  0.13043146724E+03  0.14205318594E+03  0.47000000000E+01 0. -1.
        -11    1    6    6    0    0  0.11937570209E+02 -0.37697478817E+02  0.85746260378E+01  0.40461459481E+02  0.00000000000E+00 0.  1.
         12    1    6    6    0    0  0.16336437471E+02  0.42009365187E+02 -0.69600413773E+00  0.45079378595E+02  0.00000000000E+00 0. -1.
         -5    1    3    3    0  503 -0.47739942863E+02  0.79315594585E+02  0.39567431348E+02  0.10078560072E+03  0.47000000000E+01 0.  1.
         13    1    4    4    0    0  0.47757731253E+02 -0.53447760525E+01  0.32312995961E+02  0.57909388129E+02  0.00000000000E+00 0. -1.
        -14    1    4    4    0    0 -0.30163299508E+02 -0.22236764249E+02  0.39597010203E+02  0.54518084509E+02  0.00000000000E+00 0.  1.
</event>
<event>
12    1  0.8407180E-002  0.2267554E+03  0.7818608E-02  0.1131541E+00
         21   -1    0    0  501  502  0.00000000000E+00  0.00000000000E+00  0.60876956961E+03  0.60876956961E+03  0.00000000000E+00 0.  1.
         21   -1    0    0  502  503 -0.00000000000E+00 -0.00000000000E+00 -0.90911516460E+02  0.90911516460E+02  0.00000000000E+00 0.  1.
         -6    2    1    2    0  503  0.12124953401E+03  0.32409972204E+02  0.12690875753E+03  0.24773047501E+03  0.17179260670E+03 0.  0.
        -24    2    3    3    0    0  0.10493076249E+03 -0.39740756345E+02  0.72250247902E+02  0.15563447831E+03  0.80076212973E+02 0.  0.
          6    2    1    2  501    0 -0.12124953401E+03 -0.32409972204E+02  0.39094929562E+03  0.45195061106E+03  0.18885483127E+03 0.  0.
         24    2    5    5    0    0 -0.11704757525E+03 -0.87670880374E+02  0.32349957207E+03  0.36452647459E+03  0.82711906125E+02 0.  0.
          5    1    5    5  501    0 -0.42019587640E+01  0.55260908170E+02  0.67449723548E+02  0.87424136461E+02  0.47000000000E+01 0. -1.
        -13    1    6    6    0    0 -0.15697463547E+02 -0.48181488789E+02  0.54761377009E+02  0.74610151023E+02  0.00000000000E+00 0.  1.
         14    1    6    6    0    0 -0.10135011170E+03 -0.39489391585E+02  0.26873819506E+03  0.28991632357E+03  0.00000000000E+00 0. -1.
         -5    1    3    3    0  503  0.16318771517E+02  0.72150728549E+02  0.54658509627E+02  0.92095996703E+02  0.47000000000E+01 0.  1.
         13    1    4    4    0    0 -0.78081130438E+01  0.56729489228E+01  0.22169069522E+02  0.24178846586E+02  0.00000000000E+00 0. -1.
        -14    1    4    4    0    0  0.11273887554E+03 -0.45413705268E+02  0.50081178380E+02  0.13145563172E+03  0.00000000000E+00 0.  1.
</event>
<event>
12    1  0.8407180E-002  0.2139769E+03  0.7818608E-02  0.1138627E+00
         21   -1    0    0  503  502  0.00000000000E+00  0.00000000000E+00  0.10650346086E+04  0.10650346086E+04  0.00000000000E+00 0. -1.
         21   -1    0    0  501  503 -0.00000000000E+00 -0.00000000000E+00 -0.46647084317E+02  0.46647084317E+02  0.00000000000E+00 0.  1.
          6    2    1    2  501    0 -0.56173291792E+02 -0.11235215043E+03  0.66955006527E+03  0.70291066532E+03  0.17322721813E+03 0.  0.
         24    2    3    3    0    0 -0.53288998011E+02  0.22672431503E+01  0.26099423521E+03  0.27854539717E+03  0.81392197243E+02 0.  0.
         -6    2    1    2    0  502  0.56173291792E+02  0.11235215043E+03  0.34883745900E+03  0.40877102759E+03  0.17212709193E+03 0.  0.
        -24    2    5    5    0    0  0.67982519975E+02  0.14147294678E+03  0.25052289463E+03  0.30544957667E+03  0.76821256589E+02 0.  0.
          5    1    3    3  501    0 -0.28842937816E+01 -0.11461939358E+03  0.40855583006E+03  0.42436526815E+03  0.47000000000E+01 0. -1.
        -13    1    4    4    0    0 -0.29191897490E+01 -0.34201137550E+02  0.76363152783E+02  0.83723178280E+02  0.00000000000E+00 0.  1.
         14    1    4    4    0    0 -0.50369808262E+02  0.36468380700E+02  0.18463108243E+03  0.19482221889E+03  0.00000000000E+00 0. -1.
         -5    1    5    5    0  502 -0.11809228183E+02 -0.29120796356E+02  0.98314564375E+02  0.10332145091E+03  0.47000000000E+01 0.  1.
         13    1    6    6    0    0  0.23983700221E+02  0.16936459673E+02  0.99452370498E+01  0.30999504553E+02  0.00000000000E+00 0. -1.
        -14    1    6    6    0    0  0.43998819754E+02  0.12453648711E+03  0.24057765758E+03  0.27445007212E+03  0.00000000000E+00 0.  1.
</event>
<event>
12    1  0.8407180E-002  0.3676470E+03  0.7818608E-02  0.1055794E+00
         21   -1    0    0  503  502  0.00000000000E+00  0.00000000000E+00  0.53377597831E+03  0.53377597831E+03  0.00000000000E+00 0. -1.
         21   -1    0    0  501  503 -0.00000000000E+00 -0.00000000000E+00 -0.29804701868E+03  0.29804701868E+03  0.00000000000E+00 0.  1.
          6    2    1    2  501    0 -0.17087544169E+03  0.27635761081E+03 -0.45659539451E+02  0.37047143192E+03  0.17202425033E+03 0.  0.
         24    2    3    3    0    0 -0.16042823073E+03  0.28698409885E+03 -0.66196689891E+02  0.34466579275E+03  0.79469596249E+02 0.  0.
         -6    2    1    2    0  502  0.17087544169E+03 -0.27635761081E+03  0.28138849908E+03  0.46135156508E+03  0.16761215219E+03 0.  0.
        -24    2    5    5    0    0  0.15878926102E+03 -0.13543162811E+03  0.16202671635E+03  0.27621503832E+03  0.80537787885E+02 0.  0.
          5    1    3    3  501    0 -0.10447210960E+02 -0.10626488045E+02  0.20537150440E+02  0.25805639174E+02  0.47000000000E+01 0. -1.
        -11    1    4    4    0    0 -0.51528182129E+02  0.43396437854E+02 -0.35313430330E+02  0.76062097878E+02  0.00000000000E+00 0.  1.
         12    1    4    4    0    0 -0.10890004860E+03  0.24358766100E+03 -0.30883259561E+02  0.26860369487E+03  0.00000000000E+00 0. -1.
         -5    1    5    5    0  502  0.12086180669E+02 -0.14092598270E+03  0.11936178273E+03  0.18513652675E+03  0.47000000000E+01 0.  1.
         11    1    6    6    0    0  0.12977122107E+03 -0.11766674301E+03  0.16676731388E+03  0.24186229390E+03  0.00000000000E+00 0. -1.
        -12    1    6    6    0    0  0.29018039945E+02 -0.17764885101E+02 -0.47405975286E+01  0.34352744430E+02  0.00000000000E+00 0.  1.
</event>
<event>
12    1  0.8407180E-002  0.1922520E+03  0.7818608E-02  0.1156587E+00
         21   -1    0    0  503  502  0.00000000000E+00  0.00000000000E+00  0.15677510267E+03  0.15677510267E+03  0.00000000000E+00 0.  1.
         21   -1    0    0  501  503 -0.00000000000E+00 -0.00000000000E+00 -0.25181939738E+03  0.25181939738E+03  0.00000000000E+00 0.  1.
          6    2    1    2  501    0 -0.56905851019E+02 -0.62482640923E+02 -0.10027681808E+03  0.21627133033E+03  0.17197526502E+03 0.  0.
         24    2    3    3    0    0 -0.86980454626E+01 -0.12337976572E+02 -0.11865531236E+03  0.14417182317E+03  0.80489438963E+02 0.  0.
         -6    2    1    2    0  502  0.56905851019E+02  0.62482640923E+02  0.52325233731E+01  0.19232316973E+03  0.17268024211E+03 0.  0.
        -24    2    5    5    0    0  0.13839928635E+02 -0.26334150940E+02 -0.23757543101E+02  0.89339626663E+02  0.80821512655E+02 0.  0.
          5    1    3    3  501    0 -0.48207805557E+02 -0.50144664351E+02  0.18378494284E+02  0.72099507152E+02  0.47000000000E+01 0. -1.
        -11    1    4    4    0    0  0.22169179570E+02 -0.34397002853E+02 -0.80827216808E+02  0.90596166062E+02  0.00000000000E+00 0.  1.
         12    1    4    4    0    0 -0.30867225032E+02  0.22059026282E+02 -0.37828095553E+02  0.53575657111E+02  0.00000000000E+00 0. -1.
         -5    1    5    5    0  502  0.43065922384E+02  0.88816791863E+02  0.28990066474E+02  0.10298354306E+03  0.47000000000E+01 0.  1.
         11    1    6    6    0    0  0.40825968366E+02 -0.35954331427E+02 -0.26587765410E+02  0.60550664000E+02  0.00000000000E+00 0. -1.
        -12    1    6    6    0    0 -0.26986039730E+02  0.96201804867E+01  0.28302223085E+01  0.28788962664E+02  0.00000000000E+00 0.  1.
</event>
<event>
12    1  0.8407180E-002  0.1904924E+03  0.7818608E-02  0.1158595E+00
         21   -1    0    0  501  502  0.00000000000E+00  0.00000000000E+00  0.44146385263E+03  0.44146385263E+03  0.00000000000E+00 0.  1.
         21   -1    0    0  502  503 -0.00000000000E+00 -0.00000000000E+00 -0.82894594320E+02  0.82894594320E+02  0.00000000000E+00 0.  1.
         -6    2    1    2    0  503  0.46661997277E+02 -0.64886344077E+02  0.21902254605E+03  0.29027267988E+03  0.17291550935E+03 0.  0.
        -24    2    3    3    0    0  0.68286840690E+01 -0.12590140926E+02  0.20649679135E+03  0.22318639041E+03  0.83463150261E+02 0.  0.
          6    2    1    2  501    0 -0.46661997277E+02  0.64886344077E+02  0.13954671227E+03  0.23408576707E+03  0.17010373835E+03 0.  0.
         24    2    5    5    0    0 -0.34659672281E+02  0.48358219606E+02  0.71892894398E+01  0.10007900574E+03  0.80151801112E+02 0.  0.
          5    1    5    5  501    0 -0.12002324996E+02  0.16528124471E+02  0.13235742283E+03  0.13400676133E+03  0.47000000000E+01 0. -1.
        -11    1    6    6    0    0 -0.59393518978E+02  0.44571877552E+02  0.98818488638E+01  0.74912571055E+02  0.00000000000E+00 0.  1.
         12    1    6    6    0    0  0.24733846697E+02  0.37863420547E+01 -0.26925594240E+01  0.25166434687E+02  0.00000000000E+00 0. -1.
         -5    1    3    3    0  503  0.39833313208E+02 -0.52296203152E+02  0.12525754700E+02  0.67086289478E+02  0.47000000000E+01 0.  1.
         13    1    4    4    0    0  0.39386578821E+02 -0.15818104799E+02  0.16484304457E+03  0.17021969444E+03  0.00000000000E+00 0. -1.
        -14    1    4    4    0    0 -0.32557894752E+02  0.32279638731E+01  0.41653746773E+02  0.52966695967E+02  0.00000000000E+00 0.  1.
</event>
<event>
12    1  0.8407180E-002  0.2476089E+03  0.7818608E-02  0.1116207E+00
         21   -1    0    0  501  502  0.00000000000E+00  0.00000000000E+00  0.85174668374E+03  0.85174668374E+03  0.00000000000E+00 0.  1.
         21   -1    0    0  502  503 -0.00000000000E+00 -0.00000000000E+00 -0.91120976842E+02  0.91120976842E+02  0.00000000000E+00 0. -1.
         -6    2    1    2    0  503  0.95622958659E+02  0.13622605431E+03  0.15595575573E+03  0.29263005812E+03  0.18332720768E+03 0.  0.
        -24    2    3    3    0    0  0.14222744087E+02  0.10340069022E+01  0.24536399949E+02  0.87213355569E+02  0.82466834834E+02 0.  0.
          6    2    1    2  501    0 -0.95622958659E+02 -0.13622605431E+03  0.60466995117E+03  0.65023760246E+03  0.17170294612E+03 0.  0.
         24    2    5    5    0    0 -0.98137945624E+02 -0.95233953758E+02  0.58195710313E+03  0.60307150305E+03  0.79502236376E+02 0.  0.
          5    1    5    5  501    0  0.25149869653E+01 -0.40992100554E+02  0.22712848043E+02  0.47166099409E+02  0.47000000000E+01 0. -1.
        -11    1    6    6    0    0 -0.77040250352E+02 -0.54862944276E+02  0.23787960938E+03  0.25599189711E+03  0.00000000000E+00 0.  1.
         12    1    6    6    0    0 -0.21097695272E+02 -0.40371009483E+02  0.34407749375E+03  0.34707960594E+03  0.00000000000E+00 0. -1.
         -5    1    3    3    0  503  0.81400214572E+02  0.13519204741E+03  0.13141935578E+03  0.20541670255E+03  0.47000000000E+01 0.  1.
         11    1    4    4    0    0 -0.63136006985E+01 -0.16365236625E+02 -0.25174750191E+02  0.30683066514E+02  0.00000000000E+00 0. -1.
        -12    1    4    4    0    0  0.20536344785E+02  0.17399243527E+02  0.49711150139E+02  0.56530289055E+02  0.00000000000E+00 0.  1.
</event>
<event>
12    1  0.8407180E-002  0.2159158E+03  0.7818608E-02  0.1137058E+00
         21   -1    0    0  503  502  0.00000000000E+00  0.00000000000E+00  0.12914570779E+03  0.12914570779E+03  0.00000000000E+00 0.  1.
         21   -1    0    0  501  503 -0.00000000000E+00 -0.00000000000E+00 -0.37373369455E+03  0.37373369455E+03  0.00000000000E+00 0.  1.
          6    2    1    2  501    0  0.12242703111E+03  0.44833707847E+02 -0.17032857909E+03  0.27501171280E+03  0.17210804169E+03 0.  0.
         24    2    3    3    0    0  0.73236065690E+02  0.57251896719E+02 -0.38615352207E+02  0.13378697477E+03  0.88127794692E+02 0.  0.
         -6    2    1    2    0  502 -0.12242703111E+03 -0.44833707847E+02 -0.74259407665E+02  0.22786768954E+03  0.17149572882E+03 0.  0.
        -24    2    5    5    0    0 -0.20806565330E+02 -0.38757431725E+02 -0.85743794948E+02  0.12531223455E+03  0.80100599754E+02 0.  0.
          5    1    3    3  501    0  0.49190965420E+02 -0.12418188872E+02 -0.13171322689E+03  0.14122473803E+03  0.47000000000E+01 0. -1.
        -13    1    4    4    0    0  0.23563934449E+02  0.70966861357E+02 -0.11817494753E+02  0.75704739613E+02  0.00000000000E+00 0.  1.
         14    1    4    4    0    0  0.49672131241E+02 -0.13714964639E+02 -0.26797857454E+02  0.58082235160E+02  0.00000000000E+00 0. -1.
         -5    1    5    5    0  502 -0.10162046578E+03 -0.60762761227E+01  0.11484387283E+02  0.10255545499E+03  0.47000000000E+01 0.  1.
         13    1    6    6    0    0 -0.40829664939E+02 -0.95581703304E+01 -0.78756156405E+02  0.89224168983E+02  0.00000000000E+00 0. -1.
        -14    1    6    6    0    0  0.20023099609E+02 -0.29199261394E+02 -0.69876385434E+01  0.36088065566E+02  0.00000000000E+00 0.  1.
</event>
<event>
12    1  0.8407180E-002  0.4017717E+03  0.7818608E-02  0.1043238E+00
         21   -1    0    0  503  502  0.00000000000E+00  0.00000000000E+00  0.13006584648E+04  0.13006584648E+04  0.00000000000E+00 0. -1.
         21   -1    0    0  501  503 -0.00000000000E+00 -0.00000000000E+00 -0.15322844210E+03  0.15322844210E+03  0.00000000000E+00 0.  1.
          6    2    1    2  501    0  0.33867455768E+03  0.13060255633E+03  0.25591106275E+03  0.47635175890E+03  0.17222962124E+03 0.  0.
         24    2    3    3    0    0  0.30936083816E+03  0.16162197591E+03  0.21987929294E+03  0.42029931044E+03  0.80491090226E+02 0.  0.
         -6    2    1    2    0  502 -0.33867455768E+03 -0.13060255633E+03  0.89151895998E+03  0.97753514803E+03  0.17032740793E+03 0.  0.
        -24    2    5    5    0    0 -0.17131176421E+03 -0.10532840524E+03  0.62846050644E+03  0.66469185286E+03  0.80067831275E+02 0.  0.
          5    1    3    3  501    0  0.29313719516E+02 -0.31019419580E+02  0.36031769813E+02  0.56052448464E+02  0.47000000000E+01 0. -1.
        -13    1    4    4    0    0  0.85938071098E+02  0.94135216771E+01  0.37781721188E+02  0.94347363028E+02  0.00000000000E+00 0.  1.
         14    1    4    4    0    0  0.22342276706E+03  0.15220845423E+03  0.18209757175E+03  0.32595194741E+03  0.00000000000E+00 0. -1.
         -5    1    5    5    0  502 -0.16736279346E+03 -0.25274151085E+02  0.26305845355E+03  0.31284329517E+03  0.47000000000E+01 0.  1.
         13    1    6    6    0    0 -0.10155608771E+03 -0.98985145205E+02  0.35194506696E+03  0.37944304985E+03  0.00000000000E+00 0. -1.
        -14    1    6    6    0    0 -0.69755676504E+02 -0.63432600386E+01  0.27651543947E+03  0.28524880301E+03  0.00000000000E+00 0.  1.
</event>
<event>
12    1  0.8407180E-002  0.2755093E+03  0.7818608E-02  0.1099427E+00
         21   -1    0    0  501  502  0.00000000000E+00  0.00000000000E+00  0.69294256500E+03  0.69294256500E+03  0.00000000000E+00 0. -1.
         21   -1    0    0  502  503 -0.00000000000E+00 -0.00000000000E+00 -0.10917816966E+03  0.10917816966E+03  0.00000000000E+00 0. -1.
         -6    2    1    2    0  503  0.12062296510E+03 -0.16420861110E+03  0.21925249390E+03  0.34520248884E+03  0.17198469277E+03 0.  0.
        -24    2    3    3    0    0  0.85928268427E+02 -0.18801391102E+03  0.20143456728E+03  0.29926793985E+03  0.79072858026E+02 0.  0.
          6    2    1    2  501    0 -0.12062296510E+03  0.16420861110E+03  0.36451190144E+03  0.45691824582E+03  0.18544807739E+03 0.  0.
         24    2    5    5    0    0 -0.50963868648E+02  0.12546466225E+02  0.20807113062E+03  0.22811789468E+03  0.77391528964E+02 0.  0.
          5    1    5    5  501    0 -0.69659096456E+02  0.15166214488E+03  0.15644077082E+03  0.22880035114E+03  0.47000000000E+01 0. -1.
        -11    1    6    6    0    0 -0.49820525409E+02 -0.25110150805E+02  0.12767659973E+03  0.13933383847E+03  0.00000000000E+00 0.  1.
         12    1    6    6    0    0 -0.11433432389E+01  0.37656617031E+02  0.80394530892E+02  0.88784056211E+02  0.00000000000E+00 0. -1.
         -5    1    3    3    0  503  0.34694696677E+02  0.23805299913E+02  0.17817926616E+02  0.45934548984E+02  0.47000000000E+01 0.  1.
         11    1    4    4    0    0  0.55647564968E+02 -0.61270511715E+02  0.40367666216E+02  0.92088411694E+02  0.00000000000E+00 0. -1.
        -12    1    4    4    0    0  0.30280703458E+02 -0.12674339930E+03  0.16106690106E+03  0.20717952816E+03  0.00000000000E+00 0.  1.
</event>
<event>
12    1  0.8407180E-002  0.1993793E+03  0.7818608E-02  0.1150598E+00
         21   -1    0    0  503  502  0.00000000000E+00  0.00000000000E+00  0.31733128590E+03  0.31733128590E+03  0.00000000000E+00 0. -1.
         21   -1    0    0  501  503 -0.00000000000E+00 -0.00000000000E+00 -0.13942153913E+03  0.13942153913E+03  0.00000000000E+00 0. -1.
          6    2    1    2  501    0 -0.79003232117E+02  0.58822070291E+02  0.16388793388E+03  0.25688106375E+03  0.17154322897E+03 0.  0.
         24    2    3    3    0    0 -0.89067001575E+02  0.50528781471E+02  0.45084448125E+02  0.13727163133E+03  0.79528641256E+02 0.  0.
         -6    2    1    2    0  502  0.79003232117E+02 -0.58822070291E+02  0.14021812893E+02  0.19987176128E+03  0.17335098235E+03 0.  0.
        -24    2    5    5    0    0  0.27620250883E+02 -0.94922583110E+02 -0.22856598242E+02  0.12689529251E+03  0.76202468035E+02 0.  0.
          5    1    3    3  501    0  0.10063769457E+02  0.82932888203E+01  0.11880348576E+03  0.11960943242E+03  0.47000000000E+01 0. -1.
        -13    1    4    4    0    0  0.11455870142E+02  0.22467827753E+02  0.69907630509E+01  0.26170804586E+02  0.00000000000E+00 0.  1.
         14    1    4    4    0    0 -0.10052287172E+03  0.28060953718E+02  0.38093685074E+02  0.11110082675E+03  0.00000000000E+00 0. -1.
         -5    1    5    5    0  502  0.51382981235E+02  0.36100512819E+02  0.36878411135E+02  0.72976468770E+02  0.47000000000E+01 0.  1.
         11    1    6    6    0    0 -0.19196063340E+02 -0.48823988820E+02 -0.30606032215E+02  0.60737138062E+02  0.00000000000E+00 0. -1.
        -12    1    6    6    0    0  0.46816314222E+02 -0.46098594290E+02  0.77494339735E+01  0.66158154447E+02  0.00000000000E+00 0.  1.
</event>
<event>
12    1  0.8407180E-002  0.1748150E+03  0.7818608E-02  0.1173283E+00
         21   -1    0    0  503  502  0.00000000000E+00  0.00000000000E+00  0.36323769636E+03  0.36323769636E+03  0.00000000000E+00 0. -1.
         21   -1    0    0  501  503 -0.00000000000E+00 -0.00000000000E+00 -0.10847190158E+03  0.10847190158E+03  0.00000000000E+00 0. -1.
          6    2    1    2  501    0  0.24330124340E+02  0.22972416550E+02  0.14485007981E+02  0.17541408609E+03  0.17158263102E+03 0.  0.
         24    2    3    3    0    0  0.68204510603E+02  0.47219754492E+02 -0.14293769145E+02  0.11742095563E+03  0.81864574172E+02 0.  0.
         -6    2    1    2    0  502 -0.24330124340E+02 -0.22972416550E+02  0.24028078681E+03  0.29629551185E+03  0.17010728075E+03 0.  0.
        -24    2    5    5    0    0 -0.42274992098E+01 -0.15416403492E+02  0.40165216779E+02  0.94976013947E+02  0.84567495766E+02 0.  0.
          5    1    3    3  501    0 -0.43874386263E+02 -0.24247337942E+02  0.28778777126E+02  0.57993130456E+02  0.47000000000E+01 0. -1.
        -11    1    4    4    0    0  0.34175889839E+02 -0.16627273993E+02  0.12891662703E+02  0.40132937271E+02  0.00000000000E+00 0.  1.
         12    1    4    4    0    0  0.34028620764E+02  0.63847028485E+02 -0.27185431849E+02  0.77288018362E+02  0.00000000000E+00 0. -1.
         -5    1    5    5    0  502 -0.20102625130E+02 -0.75560130581E+01  0.20011557003E+03  0.20131949791E+03  0.47000000000E+01 0.  1.
         11    1    6    6    0    0  0.83869117331E+00  0.86681077105E+01  0.61676708911E+02  0.62288489437E+02  0.00000000000E+00 0. -1.
        -12    1    6    6    0    0 -0.50661903831E+01 -0.24084511202E+02 -0.21511492133E+02  0.32687524510E+02  0.00000000000E+00 0.  1.
</event>
<event>
12    1  0.8407180E-002  0.2097179E+03  0.7818608E-02  0.1141795E+00
         21   -1    0    0  503  502  0.00000000000E+00  0.00000000000E+00  0.90904031952E+02  0.90904031952E+02  0.00000000000E+00 0. -1.
         21   -1    0    0  501  503 -0.00000000000E+00 -0.00000000000E+00 -0.54757746925E+03  0.54757746925E+03  0.00000000000E+00 0. -1.
          6    2    1    2  501    0 -0.11982622397E+03  0.58796423890E+01 -0.33730512646E+03  0.39717175301E+03  0.17198185632E+03 0.  0.
         24    2    3    3    0    0 -0.86643050345E+02 -0.32573166334E+02 -0.11055387717E+03  0.16475411046E+03  0.79710274233E+02 0.  0.
         -6    2    1    2    0  502  0.11982622397E+03 -0.58796423890E+01 -0.11936831084E+03  0.24130974820E+03  0.17201368200E+03 0.  0.
        -24    2    5    5    0    0  0.57305217672E+02 -0.46529453576E+02 -0.12443420277E+02  0.11086318596E+03  0.81773646550E+02 0.  0.
          5    1    3    3  501    0 -0.33183173626E+02  0.38452808723E+02 -0.22675124929E+03  0.23241764255E+03  0.47000000000E+01 0. -1.
        -11    1    4    4    0    0 -0.28780970792E+02 -0.52125107432E+02 -0.41572767233E+02  0.72620011567E+02  0.00000000000E+00 0.  1.
         12    1    4    4    0    0 -0.57862079554E+02  0.19551941098E+02 -0.68981109935E+02  0.92134098893E+02  0.00000000000E+00 0. -1.
         -5    1    5    5    0  502  0.62521006299E+02  0.40649811187E+02 -0.10692489056E+03  0.13044656224E+03  0.47000000000E+01 0.  1.
         11    1    6    6    0    0  0.35536821069E+02 -0.58699538162E+01  0.30986677261E+02  0.47513115844E+02  0.00000000000E+00 0. -1.
        -12    1    6    6    0    0  0.21768396604E+02 -0.40659499760E+02 -0.43430097538E+02  0.63350070115E+02  0.00000000000E+00 0.  1.
</event>
<event>
12    1  0.8407180E-002  0.2001494E+03  0.7818608E-02  0.1153624E+00
         21   -1    0    0  503  502  0.00000000000E+00  0.00000000000E+00  0.43666213635E+02  0.43666213635E+02  0.00000000000E+00 0. -1.
         21   -1    0    0  501  503 -0.00000000000E+00 -0.00000000000E+00 -0.92477259352E+03  0.92477259352E+03  0.00000000000E+00 0. -1.
          6    2    1    2  501    0  0.32832146243E+02  0.39885858694E+02 -0.60900249105E+03  0.64104900844E+03  0.19336743666E+03 0.  0.
         24    2    3    3    0    0 -0.57993677905E+02  0.26451291677E+01 -0.32871347399E+03  0.34403011114E+03  0.83270078666E+02 0.  0.
         -6    2    1    2    0  502 -0.32832146243E+02 -0.39885858694E+02 -0.27210388883E+03  0.32738979871E+03  0.17457010751E+03 0.  0.
        -24    2    5    5    0    0 -0.52410616349E+02 -0.66715769663E+02 -0.82168061376E+02  0.13451453030E+03  0.64379359459E+02 0.  0.
          5    1    3    3  501    0  0.90825824148E+02  0.37240729527E+02 -0.28028901706E+03  0.29701889730E+03  0.47000000000E+01 0. -1.
        -13    1    4    4    0    0 -0.28084923780E+02 -0.34047207716E+02 -0.23422351837E+03  0.23834561429E+03  0.00000000000E+00 0.  1.
         14    1    4    4    0    0 -0.29908754126E+02  0.36692336884E+02 -0.94489955624E+02  0.10568449684E+03  0.00000000000E+00 0. -1.
         -5    1    5    5    0  502  0.19578470106E+02  0.26829910969E+02 -0.18993582745E+03  0.19287526841E+03  0.47000000000E+01 0.  1.
         13    1    6    6    0    0 -0.12283080167E+02 -0.65076357441E+02 -0.48097265504E+02  0.81848355543E+02  0.00000000000E+00 0. -1.
        -14    1    6    6    0    0 -0.40127536182E+02 -0.16394122227E+01 -0.34070795872E+02  0.52666174760E+02  0.00000000000E+00 0.  1.
</event>
<event>
12    1  0.8407180E-002  0.2104683E+03  0.7818608E-02  0.1141618E+00
         21   -1    0    0  501  502  0.00000000000E+00  0.00000000000E+00  0.23278876379E+03  0.23278876379E+03  0.00000000000E+00 0.  1.
         21   -1    0    0  502  503 -0.00000000000E+00 -0.00000000000E+00 -0.27697661029E+03  0.27697661029E+03  0.00000000000E+00 0. -1.
         -6    2    1    2    0  503 -0.10739447839E+03  0.58273630391E+02 -0.16633337174E+03  0.26826049908E+03  0.17136952712E+03 0.  0.
        -24    2    3    3    0    0 -0.12185632765E+03  0.94043566834E+02 -0.13185018846E+03  0.21630077077E+03  0.75553915761E+02 0.  0.
          6    2    1    2  501    0  0.10739447839E+03 -0.58273630391E+02  0.12214552524E+03  0.24150487499E+03  0.16874740093E+03 0.  0.
         24    2    5    5    0    0  0.19123398858E+02  0.11573812959E+02  0.97503212237E+01  0.82365876908E+02  0.78672812232E+02 0.  0.
          5    1    5    5  501    0  0.88271079537E+02 -0.69847443350E+02  0.11239520402E+03  0.15913899808E+03  0.47000000000E+01 0. -1.
        -13    1    6    6    0    0  0.41026106833E+02  0.70199264978E+00 -0.18493910109E+02  0.45007321034E+02  0.00000000000E+00 0.  1.
         14    1    6    6    0    0 -0.21902707974E+02  0.10871820309E+02  0.28244231332E+02  0.37358555874E+02  0.00000000000E+00 0. -1.
         -5    1    3    3    0  503  0.14461849257E+02 -0.35769936443E+02 -0.34483183285E+02  0.51959728315E+02  0.47000000000E+01 0.  1.
         11    1    4    4    0    0 -0.46967920096E+02  0.16793437195E+02 -0.52462957850E+01  0.50155046311E+02  0.00000000000E+00 0. -1.
        -12    1    4    4    0    0 -0.74888407556E+02  0.77250129639E+02 -0.12660389267E+03  0.16614572446E+03  0.00000000000E+00 0.  1.
</event>
<event>
12    1  0.8407180E-002  0.2669590E+03  0.7818608E-02  0.1103074E+00
         21   -1    0    0  501  502  0.00000000000E+00  0.00000000000E+00  0.19804067903E+03  0.19804067903E+03  0.00000000000E+00 0. -1.
         21   -1    0    0  502  503 -0.00000000000E+00 -0.00000000000E+00 -0.37178044983E+03  0.37178044983E+03  0.00000000000E+00 0. -1.
         -6    2    1    2    0  503  0.15326328476E+03 -0.13520963959E+03 -0.13864793692E+03  0.30056561825E+03  0.17130428881E+03 0.  0.
        -24    2    3    3    0    0  0.32417677487E+02 -0.57929014372E+02 -0.11663283502E+03  0.15536675274E+03  0.78287503047E+02 0.  0.
          6    2    1    2  501    0 -0.15326328476E+03  0.13520963959E+03 -0.35091833883E+02  0.26925551061E+03  0.17174344847E+03 0.  0.
         24    2    5    5    0    0 -0.90356063913E+02  0.41856174949E+01 -0.71608494541E+00  0.11982862241E+03  0.78591655348E+02 0.  0.
          5    1    5    5  501    0 -0.62907220851E+02  0.13102402210E+03 -0.34375748938E+02  0.14942688820E+03  0.47000000000E+01 0. -1.
        -11    1    6    6    0    0 -0.47878836535E+02 -0.34929508253E+02 -0.13276596921E+02  0.60734846345E+02  0.00000000000E+00 0.  1.
         12    1    6    6    0    0 -0.42477227378E+02  0.39115125748E+02  0.12560511976E+02  0.59093776061E+02  0.00000000000E+00 0. -1.
         -5    1    3    3    0  503  0.12084560728E+03 -0.77280625222E+02 -0.22015101902E+02  0.14519886551E+03  0.47000000000E+01 0.  1.
         13    1    4    4    0    0  0.38785139406E+02 -0.73081161869E+02 -0.79416296403E+02  0.11468256796E+03  0.00000000000E+00 0. -1.
        -14    1    4    4    0    0 -0.63674619190E+01  0.15152147496E+02 -0.37216538619E+02  0.40684184788E+02  0.00000000000E+00 0.  1.
</event>
<event>
12    1  0.8407180E-002  0.2255668E+03  0.7818608E-02  0.1129914E+00
         21   -1    0    0  503  502  0.00000000000E+00  0.00000000000E+00  0.15665947842E+03  0.15665947842E+03  0.00000000000E+00 0. -1.
         21   -1    0    0  501  503 -0.00000000000E+00 -0.00000000000E+00 -0.32388519768E+03  0.32388519768E+03  0.00000000000E+00 0. -1.
          6    2    1    2  501    0 -0.71788314730E+02  0.12722080465E+03 -0.81991326459E+02  0.24000620487E+03  0.17187700689E+03 0.  0.
         24    2    3    3    0    0 -0.34264952097E+02  0.11068339880E+03 -0.11888422993E+03  0.18464678958E+03  0.80845995952E+02 0.  0.
         -6    2    1    2    0  502  0.71788314730E+02 -0.12722080465E+03 -0.85234392802E+02  0.24053847123E+03  0.17104139604E+03 0.  0.
        -24    2    5    5    0    0 -0.17106702093E+01 -0.70552702361E+02 -0.99556332098E+02  0.14651409913E+03  0.81082105173E+02 0.  0.
          5    1    3    3  501    0 -0.37523362632E+02  0.16537405846E+02  0.36892903475E+02  0.55359415298E+02  0.47000000000E+01 0. -1.
        -11    1    4    4    0    0 -0.17939987152E+02  0.69816651919E+02 -0.12071733600E+03  0.14060186071E+03  0.00000000000E+00 0.  1.
         12    1    4    4    0    0 -0.16324964945E+02  0.40866746884E+02  0.18331060628E+01  0.44044928870E+02  0.00000000000E+00 0. -1.
         -5    1    5    5    0  502  0.73498984939E+02 -0.56668102287E+02  0.14321939296E+02  0.94024372101E+02  0.47000000000E+01 0.  1.
         11    1    6    6    0    0 -0.29856766157E+02 -0.69255559229E+02 -0.88426321929E+02  0.11621950516E+03  0.00000000000E+00 0. -1.
        -12    1    6    6    0    0  0.28146095947E+02 -0.12971431323E+01 -0.11130010169E+02  0.30294593969E+02  0.00000000000E+00 0.  1.
</event>
<event>
12    1  0.8407180E-002  0.1849664E+03  0.7818608E-02  0.1166317E+00
         21   -1    0    0  501  502  0.00000000000E+00  0.00000000000E+00  0.96946254245E+02  0.96946254245E+02  0.00000000000E+00 0. -1.
         21   -1    0    0  502  503 -0.00000000000E+00 -0.00000000000E+00 -0.37980356664E+03  0.37980356664E+03  0.00000000000E+00 0. -1.
         -6    2    1    2    0  503 -0.13109901865E+02  0.64835072650E+02 -0.57969353588E+02  0.19383759275E+03  0.17273421849E+03 0.  0.
        -24    2    3    3    0    0  0.23221964559E+02  0.71197318112E+02  0.18405111887E+02  0.10889271850E+03  0.76880155138E+02 0.  0.
          6    2    1    2  501    0  0.13109901865E+02 -0.64835072650E+02 -0.22488795881E+03  0.28291222814E+03  0.15839595525E+03 0.  0.
         24    2    5    5    0    0 -0.20504254793E+02 -0.37160722160E+01 -0.54360268452E+02  0.98610228905E+02  0.79590858780E+02 0.  0.
          5    1    5    5  501    0  0.33614156658E+02 -0.61119000434E+02 -0.17052769036E+03  0.18430199923E+03  0.47000000000E+01 0. -1.
        -13    1    6    6    0    0 -0.18476874336E+02  0.35916554037E+02 -0.38728884657E+02  0.55958200881E+02  0.00000000000E+00 0.  1.
         14    1    6    6    0    0 -0.20273804571E+01 -0.39632626253E+02 -0.15631383795E+02  0.42652028024E+02  0.00000000000E+00 0. -1.
         -5    1    3    3    0  503 -0.36331866424E+02 -0.63622454623E+01 -0.76374465475E+02  0.84944874253E+02  0.47000000000E+01 0.  1.
         11    1    4    4    0    0  0.30717716970E+02  0.64350611271E+02 -0.15950580077E+02  0.73068463181E+02  0.00000000000E+00 0. -1.
        -12    1    4    4    0    0 -0.74957524114E+01  0.68467068414E+01  0.34355691964E+02  0.35824255318E+02  0.00000000000E+00 0.  1.
</event>
<event>
12    1  0.8407180E-002  0.2078326E+03  0.7818608E-02  0.1143390E+00
         21   -1    0    0  503  502  0.00000000000E+00  0.00000000000E+00  0.56181260215E+03  0.56181260215E+03  0.00000000000E+00 0.  1.
         21   -1    0    0  501  503 -0.00000000000E+00 -0.00000000000E+00 -0.26077851678E+03  0.26077851678E+03  0.00000000000E+00 0.  1.
          6    2    1    2  501    0 -0.10865127263E+03  0.41778508586E+02 -0.19508459689E+03  0.28469882285E+03  0.17159509597E+03 0.  0.
         24    2    3    3    0    0 -0.86951736062E+02 -0.10284992677E+02 -0.19507082730E+03  0.22809875005E+03  0.79435676069E+02 0.  0.
         -6    2    1    2    0  502  0.10865127263E+03 -0.41778508586E+02  0.49611868226E+03  0.53789229609E+03  0.17217384378E+03 0.  0.
        -24    2    5    5    0    0  0.86208568271E+02 -0.59623518473E+02  0.19322181031E+03  0.23360505614E+03  0.79055506309E+02 0.  0.
          5    1    3    3  501    0 -0.21699536570E+02  0.52063501263E+02 -0.13769595943E-01  0.56600072798E+02  0.47000000000E+01 0. -1.
        -11    1    4    4    0    0 -0.97894077761E+02  0.64614560999E+01 -0.16560951647E+03  0.19248769524E+03  0.00000000000E+00 0.  1.
         12    1    4    4    0    0  0.10942341699E+02 -0.16746448777E+02 -0.29461310830E+02  0.35611054805E+02  0.00000000000E+00 0. -1.
         -5    1    5    5    0  502  0.22442704362E+02  0.17845009886E+02  0.30289687195E+03  0.30428723995E+03  0.47000000000E+01 0.  1.
         11    1    6    6    0    0 -0.86873489315E+01 -0.25501190330E+02  0.65833201926E+02  0.71132209410E+02  0.00000000000E+00 0. -1.
        -12    1    6    6    0    0  0.94895917202E+02 -0.34122328143E+02  0.12738860838E+03  0.16247284673E+03  0.00000000000E+00 0.  1.
</event>
<event>
12    1  0.8407180E-002  0.1864125E+03  0.7818608E-02  0.1161863E+00
         21   -1    0    0  501  502  0.00000000000E+00  0.00000000000E+00  0.86236832896E+02  0.86236832896E+02  0.00000000000E+00 0.  1.
         21   -1    0    0  502  503 -0.00000000000E+00 -0.00000000000E+00 -0.16076938771E+04  0.16076938771E+04  0.00000000000E+00 0.  1.
         -6    2    1    2    0  503  0.53627130768E+02  0.44604437674E+02 -0.14939875371E+04  0.15055051894E+04  0.17228374680E+03 0.  0.
        -24    2    3    3    0    0  0.63314163061E+02 -0.90860840647E+01 -0.12952017137E+04  0.12993149756E+04  0.81121429650E+02 0.  0.
          6    2    1    2  501    0 -0.53627130768E+02 -0.44604437674E+02 -0.27469507079E+02  0.18842552053E+03  0.17287040797E+03 0.  0.
         24    2    5    5    0    0 -0.78813318674E+02  0.89879299981E+01  0.16951372089E+02  0.11425146550E+03  0.80459469711E+02 0.  0.
          5    1    5    5  501    0  0.25186187906E+02 -0.53592367673E+02 -0.44420879168E+02  0.74174055033E+02  0.47000000000E+01 0. -1.
        -13    1    6    6    0    0 -0.43421905644E+02 -0.35092928447E+02  0.14432036033E+02  0.57665060312E+02  0.00000000000E+00 0.  1.
         14    1    6    6    0    0 -0.35391413029E+02  0.44080858445E+02  0.25193360559E+01  0.56586405184E+02  0.00000000000E+00 0. -1.
         -5    1    3    3    0  503 -0.96870322934E+01  0.53690521739E+02 -0.19878582334E+03  0.20619021383E+03  0.47000000000E+01 0.  1.
         13    1    4    4    0    0  0.39439053201E+02  0.51227477872E+01 -0.20855505406E+03  0.21231319327E+03  0.00000000000E+00 0. -1.
        -14    1    4    4    0    0  0.23875109860E+02 -0.14208831852E+02 -0.10866466597E+04  0.10870017823E+04  0.00000000000E+00 0.  1.
</event>
<event>
12    1  0.8407180E-002  0.2621817E+03  0.7818608E-02  0.1105890E+00
         21   -1    0    0  503  502  0.00000000000E+00  0.00000000000E+00  0.57145491983E+03  0.57145491983E+03  0.00000000000E+00 0. -1.
         21   -1    0    0  501  503 -0.00000000000E+00 -0.00000000000E+00 -0.17117909371E+03  0.17117909371E+03  0.00000000000E+00 0.  1.
          6    2    1    2  501    0  0.83506901340E+02  0.17922744012E+03 -0.25414645857E+01  0.26219403246E+03  0.17217251161E+03 0.  0.
         24    2    3    3    0    0  0.17601667955E+02  0.50637549345E+02  0.49182039286E+02  0.10864836939E+03  0.80694578902E+02 0.  0.
         -6    2    1    2    0  502 -0.83506901340E+02 -0.17922744012E+03  0.40281729071E+03  0.48043998108E+03  0.17165351107E+03 0.  0.
        -24    2    5    5    0    0 -0.93722553231E+01 -0.15338328953E+03  0.33269327404E+03  0.37506762429E+03  0.79853838535E+02 0.  0.
          5    1    3    3  501    0  0.65905233385E+02  0.12858989077E+03 -0.51723503871E+02  0.15354566308E+03  0.47000000000E+01 0. -1.
        -11    1    4    4    0    0 -0.18078099354E+02 -0.74484286612E+01  0.33359314901E+02  0.38667048716E+02  0.00000000000E+00 0.  1.
         12    1    4    4    0    0  0.35679767309E+02  0.58085978006E+02  0.15822724385E+02  0.69981320673E+02  0.00000000000E+00 0. -1.
         -5    1    5    5    0  502 -0.74134646017E+02 -0.25844150590E+02  0.70124016675E+02  0.10537235678E+03  0.47000000000E+01 0.  1.
         11    1    6    6    0    0  0.17715708955E+02 -0.13529164273E+03  0.23104044388E+03  0.26832324097E+03  0.00000000000E+00 0. -1.
        -12    1    6    6    0    0 -0.27087964279E+02 -0.18091646799E+02  0.10165283016E+03  0.10674438333E+03  0.00000000000E+00 0.  1.
</event>
<event>
12    1  0.8407180E-002  0.2054872E+03  0.7818608E-02  0.1145276E+00
         21   -1    0    0  501  502  0.00000000000E+00  0.00000000000E+00  0.15749564314E+03  0.15749564314E+03  0.00000000000E+00 0. -1.
         21   -1    0    0  502  503 -0.00000000000E+00 -0.00000000000E+00 -0.28905030491E+03  0.28905030491E+03  0.00000000000E+00 0. -1.
         -6    2    1    2    0  503  0.86786133976E+02  0.70981682984E+02 -0.12673186672E+03  0.24142487764E+03  0.17220561295E+03 0.  0.
        -24    2    3    3    0    0  0.84470988573E+02 -0.16172853035E+02 -0.83463561518E+02  0.14397997381E+03  0.79794471438E+02 0.  0.
          6    2    1    2  501    0 -0.86786133976E+02 -0.70981682984E+02 -0.48227950482E+01  0.20512107041E+03  0.17170079151E+03 0.  0.
         24    2    5    5    0    0 -0.50783026738E+02  0.17270523540E+02 -0.38801973053E+02  0.10382274750E+03  0.79977390540E+02 0.  0.
          5    1    5    5  501    0 -0.36003107238E+02 -0.88252206524E+02  0.33979178004E+02  0.10129832291E+03  0.47000000000E+01 0. -1.
        -11    1    6    6    0    0  0.29354002905E+01 -0.26577604022E+02 -0.77062448155E+01  0.27827537073E+02  0.00000000000E+00 0.  1.
         12    1    6    6    0    0 -0.53718427029E+02  0.43848127562E+02 -0.31095728237E+02  0.75995210426E+02  0.00000000000E+00 0. -1.
         -5    1    3    3    0  503  0.23151454034E+01  0.87154536019E+02 -0.43268305206E+02  0.97444903829E+02  0.47000000000E+01 0.  1.
         13    1    4    4    0    0  0.95808179538E+02  0.13762617058E+01 -0.73884887627E+02  0.12099618995E+03  0.00000000000E+00 0. -1.
        -14    1    4    4    0    0 -0.11337190965E+02 -0.17549114741E+02 -0.95786738904E+01  0.22983783863E+02  0.00000000000E+00 0.  1.
</event>
<event>
12    1  0.8407180E-002  0.2316655E+03  0.7818608E-02  0.1125559E+00
         21   -1    0    0  503  502  0.00000000000E+00  0.00000000000E+00  0.61028821579E+03  0.61028821579E+03  0.00000000000E+00 0. -1.
         21   -1    0    0  501  503 -0.00000000000E+00 -0.00000000000E+00 -0.95602263812E+02  0.95602263812E+02  0.00000000000E+00 0.  1.
          6    2    1    2  501    0  0.13853354942E+03  0.69917136747E+02  0.15645956218E+03  0.27955052572E+03  0.17201439331E+03 0.  0.
         24    2    3    3    0    0  0.16757835772E+03  0.49901801080E+02  0.11146691672E+03  0.22218640194E+03  0.79807442994E+02 0.  0.
         -6    2    1    2    0  502 -0.13853354942E+03 -0.69917136747E+02  0.35822638979E+03  0.42633995389E+03  0.17134660665E+03 0.  0.
        -24    2    5    5    0    0 -0.42352213428E+02 -0.62872807556E+02  0.92906063859E+02  0.14399718823E+03  0.79730506102E+02 0.  0.
          5    1    3    3  501    0 -0.29044808300E+02  0.20015335667E+02  0.44992645462E+02  0.57364123777E+02  0.47000000000E+01 0. -1.
        -11    1    4    4    0    0  0.92598017545E+02  0.37586103498E+02  0.17690049590E+02  0.10148914170E+03  0.00000000000E+00 0.  1.
         12    1    4    4    0    0  0.74980340171E+02  0.12315697583E+02  0.93776867132E+02  0.12069726024E+03  0.00000000000E+00 0. -1.
         -5    1    5    5    0  502 -0.96181335988E+02 -0.70443291913E+01  0.26532032594E+03  0.28234276566E+03  0.47000000000E+01 0.  1.
         11    1    6    6    0    0 -0.52847686548E+02 -0.87846105361E+01  0.57047094188E+02  0.78258662850E+02  0.00000000000E+00 0. -1.
        -12    1    6    6    0    0  0.10495473120E+02 -0.54088197020E+02  0.35858969671E+02  0.65738525377E+02  0.00000000000E+00 0.  1.
</event>
<event>
12    1  0.8407180E-002  0.2052297E+03  0.7818608E-02  0.1145523E+00
         21   -1    0    0  503  502  0.00000000000E+00  0.00000000000E+00  0.87831243116E+02  0.87831243116E+02  0.00000000000E+00 0. -1.
         21   -1    0    0  501  503 -0.00000000000E+00 -0.00000000000E+00 -0.53486054524E+03  0.53486054524E+03  0.00000000000E+00 0. -1.
          6    2    1    2  501    0 -0.36886717537E+02 -0.10490001639E+03 -0.32519447971E+03  0.38453958353E+03  0.17249521238E+03 0.  0.
         24    2    3    3    0    0 -0.16408451951E+02 -0.12687677822E+03 -0.16857682641E+03  0.22499800040E+03  0.76413347205E+02 0.  0.
         -6    2    1    2    0  502  0.36886717537E+02  0.10490001639E+03 -0.12183482241E+03  0.23815220483E+03  0.17177923432E+03 0.  0.
        -24    2    5    5    0    0  0.34154263988E+02  0.71105394665E+02 -0.15388892375E+03  0.19125766173E+03  0.81701905858E+02 0.  0.
          5    1    3    3  501    0 -0.20478265585E+02  0.21976761832E+02 -0.15661765330E+03  0.15954158313E+03  0.47000000000E+01 0. -1.
        -13    1    4    4    0    0 -0.29781273870E+02 -0.12123449041E+03 -0.11585495501E+03  0.17031469854E+03  0.00000000000E+00 0.  1.
         14    1    4    4    0    0  0.13372821919E+02 -0.56422878166E+01 -0.52721871405E+02  0.54683301860E+02  0.00000000000E+00 0. -1.
         -5    1    5    5    0  502  0.27324535487E+01  0.33794621728E+02  0.32054101333E+02  0.46894543099E+02  0.47000000000E+01 0.  1.
         11    1    6    6    0    0  0.22682809884E+02  0.10518269525E+01 -0.10422402678E+01  0.22731090360E+02  0.00000000000E+00 0. -1.
        -12    1    6    6    0    0  0.11471454104E+02  0.70053567712E+02 -0.15284668348E+03  0.16852657137E+03  0.00000000000E+00 0.  1.
</event>
<event>
12    1  0.8407180E-002  0.2420365E+03  0.7818608E-02  0.1118575E+00
         21   -1    0    0  501  502  0.00000000000E+00  0.00000000000E+00  0.15723479093E+03  0.15723479093E+03  0.00000000000E+00 0.  1.
         21   -1    0    0  502  503 -0.00000000000E+00 -0.00000000000E+00 -0.70170765520E+03  0.70170765520E+03  0.00000000000E+00 0.  1.
         -6    2    1    2    0  503 -0.16535611537E+03 -0.70121487561E+01 -0.56667689627E+03  0.61588957948E+03  0.17551482624E+03 0.  0.
        -24    2    3    3    0    0 -0.14154343843E+03 -0.54550434942E+02 -0.51050459909E+03  0.53840184364E+03  0.79065192221E+02 0.  0.
          6    2    1    2  501    0  0.16535611537E+03  0.70121487561E+01  0.22204032005E+02  0.24305286665E+03  0.17660651694E+03 0.  0.
         24    2    5    5    0    0  0.18487488802E+03  0.26915716946E+02 -0.68493503644E+01  0.20251493947E+03  0.77860176411E+02 0.  0.
          5    1    5    5  501    0 -0.19518772648E+02 -0.19903568190E+02  0.29053382370E+02  0.40537927173E+02  0.47000000000E+01 0. -1.
        -13    1    6    6    0    0  0.17797168562E+03  0.43043917672E+02  0.14469941695E+01  0.18310869319E+03  0.00000000000E+00 0.  1.
         14    1    6    6    0    0  0.69032023979E+01 -0.16128200726E+02 -0.82963445339E+01  0.19406246279E+02  0.00000000000E+00 0. -1.
         -5    1    3    3    0  503 -0.23812676935E+02  0.47538286186E+02 -0.56172297180E+02  0.77487735848E+02  0.47000000000E+01 0.  1.
         11    1    4    4    0    0  0.10031606280E+02 -0.19481447446E+00 -0.30157446097E+02  0.31782741108E+02  0.00000000000E+00 0. -1.
        -12    1    4    4    0    0 -0.15157504471E+03 -0.54355620468E+02 -0.48034715300E+03  0.50661910253E+03  0.00000000000E+00 0.  1.
</event>
<event>
12    1  0.8407180E-002  0.1933129E+03  0.7818608E-02  0.1156180E+00
         21   -1    0    0  501  502  0.00000000000E+00  0.00000000000E+00  0.11469942957E+04  0.11469942957E+04  0.00000000000E+00 0.  1.
         21   -1    0    0  502  503 -0.00000000000E+00 -0.00000000000E+00 -0.37521781625E+02  0.37521781625E+02  0.00000000000E+00 0.  1.
         -6    2    1    2    0  503  0.48147319995E+02 -0.74185165935E+02  0.33278079696E+03  0.38485443146E+03  0.17189610618E+03 0.  0.
        -24    2    3    3    0    0  0.36746308665E+02 -0.66706740742E+02  0.34651089069E+03  0.36494173760E+03  0.85513706590E+02 0.  0.
          6    2    1    2  501    0 -0.48147319995E+02  0.74185165935E+02  0.77669171708E+03  0.79966164583E+03  0.16848478021E+03 0.  0.
         24    2    5    5    0    0 -0.68435464850E+02  0.16022456544E+02  0.60395105821E+03  0.61620610677E+03  0.10006474576E+03 0.  0.
          5    1    5    5  501    0  0.20288144855E+02  0.58162709390E+02  0.17274065887E+03  0.18345553906E+03  0.47000000000E+01 0. -1.
        -13    1    6    6    0    0 -0.27735837726E+01 -0.79024894884E+01  0.15226842947E+00  0.83764725710E+01  0.00000000000E+00 0.  1.
         14    1    6    6    0    0 -0.65661881078E+02  0.23924946033E+02  0.60379878978E+03  0.60782963420E+03  0.00000000000E+00 0. -1.
         -5    1    3    3    0  503  0.11401011330E+02 -0.74784251928E+01 -0.13730093733E+02  0.19912693857E+02  0.47000000000E+01 0.  1.
         13    1    4    4    0    0 -0.23232361590E+02 -0.12440731384E+02  0.39719581601E+02  0.47667175131E+02  0.00000000000E+00 0. -1.
        -14    1    4    4    0    0  0.59978670255E+02 -0.54266009358E+02  0.30679130909E+03  0.31727456247E+03  0.00000000000E+00 0.  1.
</event>
<event>
12    1  0.8407180E-002  0.2044104E+03  0.7818608E-02  0.1149494E+00
         21   -1    0    0  503  502  0.00000000000E+00  0.00000000000E+00  0.43747688167E+03  0.43747688167E+03  0.00000000000E+00 0.  1.
         21   -1    0    0  501  503 -0.00000000000E+00 -0.00000000000E+00 -0.11823929436E+03  0.11823929436E+03  0.00000000000E+00 0. -1.
          6    2    1    2  501    0  0.17382079485E+02  0.72986398590E+02  0.14775798055E+02  0.18900023718E+03  0.17283985183E+03 0.  0.
         24    2    3    3    0    0 -0.23441647030E+02  0.56442619737E+02  0.66153296883E+02  0.12116211625E+03  0.81047637769E+02 0.  0.
         -6    2    1    2    0  502 -0.17382079485E+02 -0.72986398590E+02  0.30446178926E+03  0.36671593885E+03  0.19014322923E+03 0.  0.
        -24    2    5    5    0    0 -0.29390945136E+02  0.19250856035E+02  0.89606431184E+02  0.13254326989E+03  0.91126191456E+02 0.  0.
          5    1    3    3  501    0  0.40823726515E+02  0.16543778852E+02 -0.51377498828E+02  0.67838120929E+02  0.47000000000E+01 0. -1.
        -13    1    4    4    0    0 -0.53735183223E+02  0.35847015762E+02  0.37823205319E+02  0.74853679372E+02  0.00000000000E+00 0.  1.
         14    1    4    4    0    0  0.30293536193E+02  0.20595603976E+02  0.28330091564E+02  0.46308436880E+02  0.00000000000E+00 0. -1.
         -5    1    5    5    0  502  0.12008865651E+02 -0.92237254625E+02  0.21485535807E+03  0.23417266896E+03  0.47000000000E+01 0.  1.
         13    1    6    6    0    0 -0.48835407587E+02  0.34890773939E+01  0.11181075056E+02  0.50220385649E+02  0.00000000000E+00 0. -1.
        -14    1    6    6    0    0  0.19444462451E+02  0.15761778641E+02  0.78425356128E+02  0.82322884241E+02  0.00000000000E+00 0.  1.
</event>
<event>
12    1  0.8407180E-002  0.1861711E+03  0.7818608E-02  0.1162239E+00
         21   -1    0    0  503  502  0.00000000000E+00  0.00000000000E+00  0.78092766289E+02  0.78092766289E+02  0.00000000000E+00 0.  1.
         21   -1    0    0  501  503 -0.00000000000E+00 -0.00000000000E+00 -0.75298587530E+03  0.75298587530E+03  0.00000000000E+00 0.  1.
          6    2    1    2  501    0  0.61224765140E+02 -0.34440418703E+02 -0.60429499746E+03  0.63197121947E+03  0.17111564503E+03 0.  0.
         24    2    3    3    0    0  0.86913715068E+02  0.17542509252E+02 -0.48190069443E+03  0.49645516005E+03  0.79860585676E+02 0.  0.
         -6    2    1    2    0  502 -0.61224765140E+02  0.34440418703E+02 -0.70598111554E+02  0.19910742213E+03  0.17240956436E+03 0.  0.
        -24    2    5    5    0    0 -0.59087201092E+02 -0.27361347040E+02 -0.94058036894E+02  0.13280142296E+03  0.67448965817E+02 0.  0.
          5    1    3    3  501    0 -0.25688949929E+02 -0.51982927956E+02 -0.12239430303E+03  0.13551605942E+03  0.47000000000E+01 0. -1.
        -13    1    4    4    0    0  0.22702319694E+02  0.14650104128E+02 -0.33524717891E+03  0.33633419665E+03  0.00000000000E+00 0.  1.
         14    1    4    4    0    0  0.64211395374E+02  0.28924051240E+01 -0.14665351552E+03  0.16012096339E+03  0.00000000000E+00 0. -1.
         -5    1    5    5    0  502 -0.21375640472E+01  0.61801765743E+02  0.23459925340E+02  0.66305999170E+02  0.47000000000E+01 0.  1.
         11    1    6    6    0    0  0.55181472421E+01 -0.23833788749E+02 -0.93048044982E+01  0.26174010427E+02  0.00000000000E+00 0. -1.
        -12    1    6    6    0    0 -0.64605348334E+02 -0.35275582914E+01 -0.84753232396E+02  0.10662741253E+03  0.00000000000E+00 0.  1.
</event>
<event>
12    1  0.8407180E-002  0.2665521E+03  0.7818608E-02  0.1105123E+00
         21   -1    0    0  503  502  0.00000000000E+00  0.00000000000E+00  0.16614639711E+03  0.16614639711E+03  0.00000000000E+00 0. -1.
         21   -1    0    0  501  503 -0.00000000000E+00 -0.00000000000E+00 -0.96357838941E+03  0.96357838941E+03  0.00000000000E+00 0.  1.
          6    2    1    2  501    0 -0.19152409619E+01  0.18582046264E+03 -0.83163153065E+03  0.87330465994E+03  0.19109451538E+03 0.  0.
         24    2    3    3    0    0  0.52665404761E+02  0.90760491248E+02 -0.63048153487E+03  0.64417837194E+03  0.80297555579E+02 0.  0.
         -6    2    1    2    0  502  0.19152409619E+01 -0.18582046264E+03  0.34199538350E+02  0.25642012658E+03  0.17334578278E+03 0.  0.
        -24    2    5    5    0    0  0.64188258109E+02 -0.14284035989E+03  0.17238490663E+01  0.17394601978E+03  0.75701685920E+02 0.  0.
          5    1    3    3  501    0 -0.54580645723E+02  0.95059971388E+02 -0.20114999578E+03  0.22912628799E+03  0.47000000000E+01 0. -1.
        -11    1    4    4    0    0  0.30749647428E+02  0.58812960074E+02 -0.17680275019E+03  0.18884839836E+03  0.00000000000E+00 0.  1.
         12    1    4    4    0    0  0.21915757333E+02  0.31947531173E+02 -0.45367878469E+03  0.45532997358E+03  0.00000000000E+00 0. -1.
         -5    1    5    5    0  502 -0.62273017147E+02 -0.42980102748E+02  0.32475689284E+02  0.82474106793E+02  0.47000000000E+01 0.  1.
         13    1    6    6    0    0  0.30929990989E+01  0.93540435259E+01  0.13656049809E+01  0.99463385562E+01  0.00000000000E+00 0. -1.
        -14    1    6    6    0    0  0.61095259010E+02 -0.15219440341E+03  0.35824408548E+00  0.16399968123E+03  0.00000000000E+00 0.  1.
</event>
<event>
12    1  0.8407180E-002  0.2288776E+03  0.7818608E-02  0.1127521E+00
         21   -1    0    0  501  502  0.00000000000E+00  0.00000000000E+00  0.81937388068E+02  0.81937388068E+02  0.00000000000E+00 0. -1.
         21   -1    0    0  502  503 -0.00000000000E+00 -0.00000000000E+00 -0.64245140088E+03  0.64245140088E+03  0.00000000000E+00 0. -1.
         -6    2    1    2    0  503  0.14941775269E+02 -0.14955272428E+03 -0.31031286133E+03  0.38529353900E+03  0.17195279964E+03 0.  0.
        -24    2    3    3    0    0 -0.32646483009E+02 -0.55973631430E+02 -0.23350753644E+03  0.25512888606E+03  0.79788085946E+02 0.  0.
          6    2    1    2  501    0 -0.14941775269E+02  0.14955272428E+03 -0.25020115149E+03  0.33909524995E+03  0.17261430517E+03 0.  0.
         24    2    5    5    0    0 -0.14218601440E+02  0.18078068777E+03 -0.20925060833E+03  0.28737730655E+03  0.76916016130E+02 0.  0.
          5    1    5    5  501    0 -0.72317382886E+00 -0.31227963497E+02 -0.40950543156E+02  0.51717943398E+02  0.47000000000E+01 0. -1.
        -11    1    6    6    0    0 -0.13924675850E+02  0.96555389533E+02 -0.16637487870E+03  0.19286637890E+03  0.00000000000E+00 0.  1.
         12    1    6    6    0    0 -0.29392558979E+00  0.84225298238E+02 -0.42875729630E+02  0.94510927659E+02  0.00000000000E+00 0. -1.
         -5    1    3    3    0  503  0.47588258278E+02 -0.93579092845E+02 -0.76805324884E+02  0.13016465294E+03  0.47000000000E+01 0.  1.
         11    1    4    4    0    0 -0.37145229172E+02 -0.74532728001E+02 -0.18043267378E+03  0.19872303681E+03  0.00000000000E+00 0. -1.
        -12    1    4    4    0    0  0.44987461625E+01  0.18559096571E+02 -0.53074862662E+02  0.56405849246E+02  0.00000000000E+00 0.  1.
</event>
<event>
12    1  0.8407180E-002  0.1936231E+03  0.7818608E-02  0.1155270E+00
         21   -1    0    0  503  502  0.00000000000E+00  0.00000000000E+00  0.27063915837E+03  0.27063915837E+03  0.00000000000E+00 0. -1.
         21   -1    0    0  501  503 -0.00000000000E+00 -0.00000000000E+00 -0.27209845139E+03  0.27209845139E+03  0.00000000000E+00 0. -1.
          6    2    1    2  501    0  0.54425165232E+02  0.68506842992E+02 -0.19094749885E+03  0.27182121605E+03  0.17254141540E+03 0.  0.
         24    2    3    3    0    0  0.46171196100E+02  0.41411001491E+02 -0.27371941093E+02  0.10574483082E+03  0.81154763834E+02 0.  0.
         -6    2    1    2    0  502 -0.54425165232E+02 -0.68506842992E+02  0.18948820583E+03  0.27091639371E+03  0.17272702766E+03 0.  0.
        -24    2    5    5    0    0 -0.78286625383E+02 -0.78382924889E+02  0.76003097142E+02  0.15443520995E+03  0.76164851934E+02 0.  0.
          5    1    3    3  501    0  0.82539691326E+01  0.27095841501E+02 -0.16357555776E+03  0.16607638523E+03  0.47000000000E+01 0. -1.
        -11    1    4    4    0    0  0.63549580493E+02  0.44904146645E+02 -0.60953543798E+01  0.78051809151E+02  0.00000000000E+00 0.  1.
         12    1    4    4    0    0 -0.17378384394E+02 -0.34931451534E+01 -0.21276586713E+02  0.27693021672E+02  0.00000000000E+00 0. -1.
         -5    1    5    5    0  502  0.23861460150E+02  0.98760818968E+01  0.11348510869E+03  0.11648118376E+03  0.47000000000E+01 0.  1.
         11    1    6    6    0    0 -0.18631075664E+02 -0.43413360482E+02  0.70767918121E+02  0.85087808081E+02  0.00000000000E+00 0. -1.
        -12    1    6    6    0    0 -0.59655549719E+02 -0.34969564407E+02  0.52351790203E+01  0.69347401873E+02  0.00000000000E+00 0.  1.
</event>
<event>
12    1  0.8407180E-002  0.2242676E+03  0.7818608E-02  0.1130822E+00
         21   -1    0    0  501  502  0.00000000000E+00  0.00000000000E+00  0.18045406693E+03  0.18045406693E+03  0.00000000000E+00 0. -1.
         21   -1    0    0  502  503 -0.00000000000E+00 -0.00000000000E+00 -0.36429431557E+03  0.36429431557E+03  0.00000000000E+00 0.  1.
         -6    2    1    2    0  503  0.42550561133E+02 -0.13704800563E+03 -0.22442796926E+03  0.31727572713E+03  0.17234635922E+03 0.  0.
        -24    2    3    3    0    0  0.52668017256E+02 -0.16768236109E+03 -0.20867746638E+03  0.28106806228E+03  0.67540183570E+02 0.  0.
          6    2    1    2  501    0 -0.42550561133E+02  0.13704800563E+03  0.40587720624E+02  0.22747265538E+03  0.17176652694E+03 0.  0.
         24    2    5    5    0    0  0.35749449915E+02  0.37326717754E+02  0.13299528935E+01  0.94662680925E+02  0.79296578473E+02 0.  0.
          5    1    5    5  501    0 -0.78300011048E+02  0.99721287879E+02  0.39257767730E+02  0.13280997445E+03  0.47000000000E+01 0. -1.
        -11    1    6    6    0    0 -0.10704217133E+02  0.45246294442E+02  0.76380512622E+01  0.47118438559E+02  0.00000000000E+00 0.  1.
         12    1    6    6    0    0  0.46453667048E+02 -0.79195766875E+01 -0.63080983687E+01  0.47544242366E+02  0.00000000000E+00 0. -1.
         -5    1    3    3    0  503 -0.10117456123E+02  0.30634355457E+02 -0.15750502879E+02  0.36207664846E+02  0.47000000000E+01 0.  1.
         11    1    4    4    0    0  0.66627958943E+02 -0.14993082017E+03 -0.16985590092E+03  0.23615580202E+03  0.00000000000E+00 0. -1.
        -12    1    4    4    0    0 -0.13959941687E+02 -0.17751540919E+02 -0.38821565465E+02  0.44912260264E+02  0.00000000000E+00 0.  1.
</event>
<event>
12    1  0.8407180E-002  0.1816144E+03  0.7818608E-02  0.1166345E+00
         21   -1    0    0  503  502  0.00000000000E+00  0.00000000000E+00  0.21845640287E+03  0.21845640287E+03  0.00000000000E+00 0.  1.
         21   -1    0    0  501  503 -0.00000000000E+00 -0.00000000000E+00 -0.15419342324E+03  0.15419342324E+03  0.00000000000E+00 0.  1.
          6    2    1    2  501    0  0.45302292722E+02  0.32074288642E+02  0.60387734025E+02  0.19139084183E+03  0.17292402435E+03 0.  0.
         24    2    3    3    0    0  0.87549215472E+02  0.48281084378E+02  0.17306481304E+02  0.12873665565E+03  0.79231836874E+02 0.  0.
         -6    2    1    2    0  502 -0.45302292722E+02 -0.32074288642E+02  0.38752456125E+01  0.18125898428E+03  0.17250722923E+03 0.  0.
        -24    2    5    5    0    0  0.22626049049E+02 -0.34860809692E+02  0.48165944573E+02  0.99983032547E+02  0.77132576987E+02 0.  0.
          5    1    3    3  501    0 -0.42246922750E+02 -0.16206795736E+02  0.43081252721E+02  0.62654186180E+02  0.47000000000E+01 0. -1.
        -11    1    4    4    0    0  0.34669378407E+02 -0.16520159822E+02 -0.11802729472E+02  0.40176932470E+02  0.00000000000E+00 0.  1.
         12    1    4    4    0    0  0.52879837065E+02  0.64801244200E+02  0.29109210776E+02  0.88559723181E+02  0.00000000000E+00 0. -1.
         -5    1    5    5    0  502 -0.67928341771E+02  0.27865210500E+01 -0.44290698961E+02  0.81275951731E+02  0.47000000000E+01 0.  1.
         11    1    6    6    0    0 -0.35550558819E+01  0.12537608080E+02 -0.12921046462E+02  0.18351661515E+02  0.00000000000E+00 0. -1.
        -12    1    6    6    0    0  0.26181104931E+02 -0.47398417772E+02  0.61086991035E+02  0.81631371031E+02  0.00000000000E+00 0.  1.
</event>
<event>
12    1  0.8407180E-002  0.1883757E+03  0.7818608E-02  0.1161943E+00
         21   -1    0    0  503  502  0.00000000000E+00  0.00000000000E+00  0.96764890261E+02  0.96764890261E+02  0.00000000000E+00 0. -1.
         21   -1    0    0  501  503 -0.00000000000E+00 -0.00000000000E+00 -0.35207073144E+03  0.35207073144E+03  0.00000000000E+00 0. -1.
          6    2    1    2  501    0 -0.68626990136E+02  0.49960269454E+01 -0.11418361129E+03  0.22028005958E+03  0.17535901317E+03 0.  0.
         24    2    3    3    0    0 -0.30533637628E+02 -0.66617359754E+02 -0.66577240875E+02  0.12610980332E+03  0.78108756511E+02 0.  0.
         -6    2    1    2    0  502  0.68626990136E+02 -0.49960269454E+01 -0.14112222989E+03  0.22855556212E+03  0.16609496425E+03 0.  0.
        -24    2    5    5    0    0  0.10666710599E+03 -0.12844546885E+02 -0.13185663086E+03  0.18834870941E+03  0.80908660531E+02 0.  0.
          5    1    3    3  501    0 -0.38093352507E+02  0.71613386699E+02 -0.47606370419E+02  0.94170256261E+02  0.47000000000E+01 0. -1.
        -13    1    4    4    0    0  0.21072281945E+02 -0.47686428833E+02 -0.32352363909E+02  0.61357249055E+02  0.00000000000E+00 0.  1.
         14    1    4    4    0    0 -0.51605919573E+02 -0.18930930921E+02 -0.34224876967E+02  0.64752554266E+02  0.00000000000E+00 0. -1.
         -5    1    5    5    0  502 -0.38040115856E+02  0.78485199400E+01 -0.92655990230E+01  0.40206852710E+02  0.47000000000E+01 0.  1.
         13    1    6    6    0    0  0.47810079481E+02 -0.93739774256E+00 -0.51035616375E+01  0.48090838585E+02  0.00000000000E+00 0. -1.
        -14    1    6    6    0    0  0.58857026511E+02 -0.11907149143E+02 -0.12675306922E+03  0.14025787082E+03  0.00000000000E+00 0.  1.
</event>
<event>
12    1  0.8407180E-002  0.1776089E+03  0.7818608E-02  0.1170292E+00
         21   -1    0    0  501  502  0.00000000000E+00  0.00000000000E+00  0.83972599815E+03  0.83972599815E+03  0.00000000000E+00 0. -1.
         21   -1    0    0  502  503 -0.00000000000E+00 -0.00000000000E+00 -0.49626238860E+02  0.49626238860E+02  0.00000000000E+00 0. -1.
         -6    2    1    2    0  503 -0.34127162247E+02  0.29188158577E+02  0.17516007935E+03  0.24945132711E+03  0.17183800335E+03 0.  0.
        -24    2    3    3    0    0  0.26570291422E+02  0.42846937015E+02  0.42216690325E+02  0.10259501027E+03  0.78750535188E+02 0.  0.
          6    2    1    2  501    0  0.34127162247E+02 -0.29188158577E+02  0.61493967994E+03  0.63990090990E+03  0.17118923074E+03 0.  0.
         24    2    5    5    0    0 -0.29300080591E+01  0.44257988369E+02  0.25862468896E+03  0.27418239360E+03  0.79510381305E+02 0.  0.
          5    1    5    5  501    0  0.37057170306E+02 -0.73446146947E+02  0.35631499097E+03  0.36571851630E+03  0.47000000000E+01 0. -1.
        -13    1    6    6    0    0  0.37287318293E+02  0.21571676743E+02  0.15205782579E+03  0.15804196825E+03  0.00000000000E+00 0.  1.
         14    1    6    6    0    0 -0.40217326352E+02  0.22686311626E+02  0.10656686317E+03  0.11614042535E+03  0.00000000000E+00 0. -1.
         -5    1    3    3    0  503 -0.60697453669E+02 -0.13658778438E+02  0.13294338903E+03  0.14685631684E+03  0.47000000000E+01 0.  1.
         11    1    4    4    0    0 -0.18218952499E+02  0.42701610770E+02  0.10184036951E+02  0.47529700201E+02  0.00000000000E+00 0. -1.
        -12    1    4    4    0    0  0.44789243922E+02  0.14532624450E+00  0.32032653374E+02  0.55065310069E+02  0.00000000000E+00 0.  1.
</event>
<event>
12    1  0.8407180E-002  0.1927032E+03  0.7818608E-02  0.1157513E+00
         21   -1    0    0  501  502  0.00000000000E+00  0.00000000000E+00  0.24181234412E+03  0.24181234412E+03  0.00000000000E+00 0.  1.
         21   -1    0    0  502  503 -0.00000000000E+00 -0.00000000000E+00 -0.22055435315E+03  0.22055435315E+03  0.00000000000E+00 0.  1.
         -6    2    1    2    0  503  0.57080372875E+02 -0.32501811376E+02 -0.12144264614E+03  0.22777806068E+03  0.18116288780E+03 0.  0.
        -24    2    3    3    0    0  0.37680822864E+02 -0.77117617042E+02 -0.21772767145E+02  0.11676865822E+03  0.76117638451E+02 0.  0.
          6    2    1    2  501    0 -0.57080372875E+02  0.32501811376E+02  0.14270063712E+03  0.23458863659E+03  0.17422347681E+03 0.  0.
         24    2    5    5    0    0 -0.56249853662E+02 -0.13918076522E+02  0.16125801880E+03  0.18436949512E+03  0.68045596568E+02 0.  0.
          5    1    5    5  501    0 -0.83051921241E+00  0.46419887898E+02 -0.18557381685E+02  0.50219141466E+02  0.47000000000E+01 0. -1.
        -13    1    6    6    0    0 -0.57858520395E+02  0.26193525685E+01  0.15681707475E+03  0.16717076396E+03  0.00000000000E+00 0.  1.
         14    1    6    6    0    0  0.16086667323E+01 -0.16537429090E+02  0.44409440568E+01  0.17198731165E+02  0.00000000000E+00 0. -1.
         -5    1    3    3    0  503  0.19399550011E+02  0.44615805666E+02 -0.99669878999E+02  0.11100940246E+03  0.47000000000E+01 0.  1.
         11    1    4    4    0    0 -0.14345392055E+02 -0.46821930923E+02 -0.27719730736E+02  0.56271368924E+02  0.00000000000E+00 0. -1.
        -12    1    4    4    0    0  0.52026214919E+02 -0.30295686119E+02  0.59469635903E+01  0.60497289296E+02  0.00000000000E+00 0.  1.
</event>
<event>
12    1  0.8407180E-002  0.1808970E+03  0.7818608E-02  0.1167323E+00
         21   -1    0    0  501  502  0.00000000000E+00  0.00000000000E+00  0.18978790169E+03  0.18978790169E+03  0.00000000000E+00 0. -1.
         21   -1    0    0  502  503 -0.00000000000E+00 -0.00000000000E+00 -0.25233064700E+03  0.25233064700E+03  0.00000000000E+00 0. -1.
         -6    2    1    2    0  503 -0.49472659884E+02  0.26245673118E+02 -0.15693762803E+03  0.23948515211E+03  0.17200970775E+03 0.  0.
        -24    2    3    3    0    0 -0.83479200786E+02 -0.24902644483E+02 -0.92239692749E+02  0.15015146280E+03  0.80301819382E+02 0.  0.
          6    2    1    2  501    0  0.49472659884E+02 -0.26245673118E+02  0.94394882717E+02  0.20263339657E+03  0.17033355539E+03 0.  0.
         24    2    5    5    0    0  0.92735892514E+02 -0.45095217331E+02  0.77741061264E+02  0.15236956879E+03  0.80865867338E+02 0.  0.
          5    1    5    5  501    0 -0.43263232629E+02  0.18849544214E+02  0.16653821453E+02  0.50263827785E+02  0.47000000000E+01 0. -1.
        -11    1    6    6    0    0  0.18388299522E+02  0.69867060595E+01 -0.13348001968E+02  0.23772100820E+02  0.00000000000E+00 0.  1.
         12    1    6    6    0    0  0.74347592992E+02 -0.52081923391E+02  0.91089063232E+02  0.12859746797E+03  0.00000000000E+00 0. -1.
         -5    1    3    3    0  503  0.34006540902E+02  0.51148317601E+02 -0.64697935276E+02  0.89333689314E+02  0.47000000000E+01 0.  1.
         13    1    4    4    0    0 -0.55633660337E+02  0.18354753414E+02 -0.76495631609E+02  0.96351350746E+02  0.00000000000E+00 0. -1.
        -14    1    4    4    0    0 -0.27845540450E+02 -0.43257397897E+02 -0.15744061140E+02  0.53800112053E+02  0.00000000000E+00 0.  1.
</event>
<event>
12    1  0.8407180E-002  0.1785153E+03  0.7818608E-02  0.1169615E+00
         21   -1    0    0  503  502  0.00000000000E+00  0.00000000000E+00  0.35305105390E+03  0.35305105390E+03  0.00000000000E+00 0.  1.
         21   -1    0    0  501  503 -0.00000000000E+00 -0.00000000000E+00 -0.18872920292E+03  0.18872920292E+03  0.00000000000E+00 0.  1.
          6    2    1    2  501    0  0.41697154296E+02 -0.10579292353E+02 -0.11441657719E+03  0.21077747865E+03  0.17171318606E+03 0.  0.
         24    2    3    3    0    0  0.37469131744E+02  0.59705595521E+02 -0.74212452576E+02  0.12955984957E+03  0.79432817729E+02 0.  0.
         -6    2    1    2    0  502 -0.41697154296E+02  0.10579292353E+02  0.27873842818E+03  0.33100277817E+03  0.17325459218E+03 0.  0.
        -24    2    5    5    0    0 -0.41359174663E+02  0.21781389954E+02  0.29569901223E+03  0.31013767255E+03  0.81009010781E+02 0.  0.
          5    1    3    3  501    0  0.42280225525E+01 -0.70284887873E+02 -0.40204124615E+02  0.81217629085E+02  0.47000000000E+01 0. -1.
        -11    1    4    4    0    0 -0.20177469380E+01  0.45904565001E+02 -0.18604201277E+01  0.45986536657E+02  0.00000000000E+00 0.  1.
         12    1    4    4    0    0  0.39486878682E+02  0.13801030520E+02 -0.72352032448E+02  0.83573312911E+02  0.00000000000E+00 0. -1.
         -5    1    5    5    0  502 -0.33797963395E+00 -0.11202097601E+02 -0.16960584053E+02  0.20865105615E+02  0.47000000000E+01 0.  1.
         11    1    6    6    0    0 -0.18175318654E+02  0.39933216827E+02  0.26085363404E+03  0.26451771662E+03  0.00000000000E+00 0. -1.
        -12    1    6    6    0    0 -0.23183856008E+02 -0.18151826874E+02  0.34845378185E+02  0.45619955931E+02  0.00000000000E+00 0.  1.
</event>
<event>
12    1  0.8407180E-002  0.2471230E+03  0.7818608E-02  0.1115379E+00
         21   -1    0    0  501  502  0.00000000000E+00  0.00000000000E+00  0.13902632551E+03  0.13902632551E+03  0.00000000000E+00 0. -1.
         21   -1    0    0  502  503 -0.00000000000E+00 -0.00000000000E+00 -0.70463563232E+03  0.70463563232E+03  0.00000000000E+00 0.  1.
         -6    2    1    2    0  503 -0.25814539726E+02  0.17437146700E+03 -0.54243961854E+03  0.59545519115E+03  0.17103901876E+03 0.  0.
        -24    2    3    3    0    0 -0.28271560324E+02  0.20111302539E+03 -0.47833234944E+03  0.52579185899E+03  0.80059430159E+02 0.  0.
          6    2    1    2  501    0  0.25814539726E+02 -0.17437146700E+03 -0.23169688265E+02  0.24820676668E+03  0.17319920787E+03 0.  0.
         24    2    5    5    0    0  0.80153907479E+02 -0.14846776594E+03 -0.23992810454E+02  0.18782021067E+03  0.78952201842E+02 0.  0.
          5    1    5    5  501    0 -0.54339367752E+02 -0.25903701064E+02  0.82312218899E+00  0.60386556009E+02  0.47000000000E+01 0. -1.
        -13    1    6    6    0    0  0.86301133278E+01 -0.68315907166E+02 -0.39341339594E+02  0.79305000026E+02  0.00000000000E+00 0.  1.
         14    1    6    6    0    0  0.71523794151E+02 -0.80151858771E+02  0.15348529140E+02  0.10851521064E+03  0.00000000000E+00 0. -1.
         -5    1    3    3    0  503  0.24570205978E+01 -0.26741558393E+02 -0.64107269100E+02  0.69663332155E+02  0.47000000000E+01 0.  1.
         13    1    4    4    0    0 -0.15978355490E+02  0.52057283055E+01 -0.79686044109E+02  0.81438768883E+02  0.00000000000E+00 0. -1.
        -14    1    4    4    0    0 -0.12293204834E+02  0.19590729709E+03 -0.39864630533E+03  0.44435309011E+03  0.00000000000E+00 0.  1.
</event>
<event>
12    1  0.8407180E-002  0.1958292E+03  0.7818608E-02  0.1153461E+00
         21   -1    0    0  503  502  0.00000000000E+00  0.00000000000E+00  0.96258021216E+02  0.96258021216E+02  0.00000000000E+00 0.  1.
         21   -1    0    0  501  503 -0.00000000000E+00 -0.00000000000E+00 -0.43461817919E+03  0.43461817919E+03  0.00000000000E+00 0. -1.
          6    2    1    2  501    0 -0.79717150557E+02  0.43835224976E+02 -0.91320612602E+02  0.21607528741E+03  0.17341489123E+03 0.  0.
         24    2    3    3    0    0 -0.18062108899E+02 -0.53493303309E+01  0.15774177242E+02  0.82989417933E+02  0.79268932806E+02 0.  0.
         -6    2    1    2    0  502  0.79717150557E+02 -0.43835224976E+02 -0.24703954538E+03  0.31480091300E+03  0.17261149094E+03 0.  0.
        -24    2    5    5    0    0  0.81684196753E+01 -0.59910380065E+02 -0.81015519402E+02  0.13324183528E+03  0.86798015907E+02 0.  0.
          5    1    3    3  501    0 -0.61655041658E+02  0.49184555307E+02 -0.10709478984E+03  0.13308586948E+03  0.47000000000E+01 0. -1.
        -11    1    4    4    0    0 -0.10697757037E+02  0.26207270314E+02  0.35229797550E+02  0.45192938147E+02  0.00000000000E+00 0.  1.
         12    1    4    4    0    0 -0.73643518620E+01 -0.31556600645E+02 -0.19455620308E+02  0.37796479786E+02  0.00000000000E+00 0. -1.
         -5    1    5    5    0  502  0.71548730882E+02  0.16075155088E+02 -0.16602402598E+03  0.18155907772E+03  0.47000000000E+01 0.  1.
         13    1    6    6    0    0 -0.96709600163E+01 -0.64637070540E+02 -0.91171325698E+02  0.11217704304E+03  0.00000000000E+00 0. -1.
        -14    1    6    6    0    0  0.17839379692E+02  0.47266904754E+01  0.10155806296E+02  0.21064792241E+02  0.00000000000E+00 0.  1.
</event>
<event>
12    1  0.8407180E-002  0.1859510E+03  0.7818608E-02  0.1162505E+00
         21   -1    0    0  501  502  0.00000000000E+00  0.00000000000E+00  0.49260721135E+03  0.49260721135E+03  0.00000000000E+00 0.  1.
         21   -1    0    0  502  503 -0.00000000000E+00 -0.00000000000E+00 -0.25225734090E+03  0.25225734090E+03  0.00000000000E+00 0. -1.
         -6    2    1    2    0  503  0.66264310979E+02  0.15660243325E+02 -0.19657200765E+03  0.27058884902E+03  0.17303632247E+03 0.  0.
        -24    2    3    3    0    0  0.41670127586E+02  0.27462190493E+02 -0.21680588356E+03  0.23630095687E+03  0.79641569728E+02 0.  0.
          6    2    1    2  501    0 -0.66264310979E+02 -0.15660243325E+02  0.43692187810E+03  0.47427570323E+03  0.17146577787E+03 0.  0.
         24    2    5    5    0    0 -0.99594697097E+02  0.16288756073E+02  0.37801030847E+03  0.39928026179E+03  0.79677518017E+02 0.  0.
          5    1    5    5  501    0  0.33330386118E+02 -0.31948999398E+02  0.58911569627E+02  0.74995441443E+02  0.47000000000E+01 0. -1.
        -13    1    6    6    0    0  0.12629445239E+02  0.22309401198E+01  0.69907963722E+02  0.71074632413E+02  0.00000000000E+00 0.  1.
         14    1    6    6    0    0 -0.11222414234E+03  0.14057815953E+02  0.30810234475E+03  0.32820562937E+03  0.00000000000E+00 0. -1.
         -5    1    3    3    0  503  0.24594183393E+02 -0.11801947168E+02  0.20233875917E+02  0.34287892154E+02  0.47000000000E+01 0.  1.
         13    1    4    4    0    0  0.18740800674E+02 -0.18504664871E+02 -0.20470439371E+02  0.33356845174E+02  0.00000000000E+00 0. -1.
        -14    1    4    4    0    0  0.22929326912E+02  0.45966855364E+02 -0.19633544419E+03  0.20294411169E+03  0.00000000000E+00 0.  1.
</event>
<event>
12    1  0.8407180E-002  0.2542432E+03  0.7818608E-02  0.1110753E+00
         21   -1    0    0  501  502  0.00000000000E+00  0.00000000000E+00  0.32624747883E+03  0.32624747883E+03  0.00000000000E+00 0. -1.
         21   -1    0    0  502  503 -0.00000000000E+00 -0.00000000000E+00 -0.19907247985E+03  0.19907247985E+03  0.00000000000E+00 0. -1.
         -6    2    1    2    0  503 -0.12236271790E+03  0.14041916685E+03  0.86069501189E+02  0.26841673059E+03  0.17305896416E+03 0.  0.
        -24    2    3    3    0    0 -0.24764692137E+01  0.83548320023E+02  0.67411367259E+02  0.13433756814E+03  0.80720722856E+02 0.  0.
          6    2    1    2  501    0  0.12236271790E+03 -0.14041916685E+03  0.41105497792E+02  0.25690322808E+03  0.17210296191E+03 0.  0.
         24    2    5    5    0    0  0.12680179664E+03 -0.90920740648E+02  0.66628502213E+02  0.20083796815E+03  0.10747676694E+03 0.  0.
          5    1    5    5  501    0 -0.44390787387E+01 -0.49498426203E+02 -0.25523004421E+02  0.56065259933E+02  0.47000000000E+01 0. -1.
        -11    1    6    6    0    0  0.87354148106E+01 -0.43516993389E+01  0.52899882225E+02  0.53792585906E+02  0.00000000000E+00 0.  1.
         12    1    6    6    0    0  0.11806638183E+03 -0.86569041309E+02  0.13728619989E+02  0.14704538224E+03  0.00000000000E+00 0. -1.
         -5    1    3    3    0  503 -0.11988624869E+03  0.56870846829E+02  0.18658133930E+02  0.13407916246E+03  0.47000000000E+01 0.  1.
         13    1    4    4    0    0 -0.80306760366E+01  0.75394261152E+02  0.10461081783E+02  0.76539013610E+02  0.00000000000E+00 0. -1.
        -14    1    4    4    0    0  0.55542068229E+01  0.81540588704E+01  0.56950285475E+02  0.57798554525E+02  0.00000000000E+00 0.  1.
</event>
<event>
12    1  0.8407180E-002  0.1758542E+03  0.7818608E-02  0.1171976E+00
         21   -1    0    0  501  502  0.00000000000E+00  0.00000000000E+00  0.59287058901E+02  0.59287058901E+02  0.00000000000E+00 0. -1.
         21   -1    0    0  502  503 -0.00000000000E+00 -0.00000000000E+00 -0.55063024691E+03  0.55063024691E+03  0.00000000000E+00 0. -1.
         -6    2    1    2    0  503 -0.47710402028E+00 -0.35324426346E+02 -0.31735221038E+03  0.36281832190E+03  0.17226916889E+03 0.  0.
        -24    2    3    3    0    0  0.12602316167E+02  0.35364239770E+02 -0.24626081724E+03  0.26160550193E+03  0.79897438637E+02 0.  0.
          6    2    1    2  501    0  0.47710402028E+00  0.35324426346E+02 -0.17399097763E+03  0.24709898391E+03  0.17186333183E+03 0.  0.
         24    2    5    5    0    0  0.58041843311E+02  0.27152169820E+02 -0.15524210654E+03  0.18582831267E+03  0.79535867685E+02 0.  0.
          5    1    5    5  501    0 -0.57564739291E+02  0.81722565265E+01 -0.18748871095E+02  0.61270671236E+02  0.47000000000E+01 0. -1.
        -11    1    6    6    0    0  0.36276780761E+02 -0.23960557581E+02 -0.46133747650E+02  0.63391133562E+02  0.00000000000E+00 0.  1.
         12    1    6    6    0    0  0.21765062550E+02  0.51112727400E+02 -0.10910835889E+03  0.12243717911E+03  0.00000000000E+00 0. -1.
         -5    1    3    3    0  503 -0.13079420187E+02 -0.70688666116E+02 -0.71091393136E+02  0.10121281998E+03  0.47000000000E+01 0.  1.
         11    1    4    4    0    0  0.46111170289E+02  0.22088607439E+02 -0.12356535454E+03  0.13372562749E+03  0.00000000000E+00 0. -1.
        -12    1    4    4    0    0 -0.33508854123E+02  0.13275632331E+02 -0.12269546270E+03  0.12787987444E+03  0.00000000000E+00 0.  1.
</event>
<event>
12    1  0.8407180E-002  0.2570038E+03  0.7818608E-02  0.1109234E+00
         21   -1    0    0  503  502  0.00000000000E+00  0.00000000000E+00  0.26446459781E+03  0.26446459781E+03  0.00000000000E+00 0. -1.
         21   -1    0    0  501  503 -0.00000000000E+00 -0.00000000000E+00 -0.26629393401E+03  0.26629393401E+03  0.00000000000E+00 0. -1.
          6    2    1    2  501    0 -0.14702785397E+03  0.11980757958E+03 -0.70484690338E+02  0.26649402744E+03  0.17343566278E+03 0.  0.
         24    2    3    3    0    0 -0.16278294958E+02  0.45490247585E+02 -0.67316685511E+02  0.11599273419E+03  0.81169161171E+02 0.  0.
         -6    2    1    2    0  502  0.14702785397E+03 -0.11980757958E+03  0.68655354139E+02  0.26426450438E+03  0.17073700435E+03 0.  0.
        -24    2    5    5    0    0  0.71165417792E+02 -0.63813312508E+02 -0.27161680611E+02  0.12975256693E+03  0.83434502391E+02 0.  0.
          5    1    3    3  501    0 -0.13074955901E+03  0.74317331998E+02 -0.31680048270E+01  0.15050129325E+03  0.47000000000E+01 0. -1.
        -13    1    4    4    0    0  0.28067018352E+02  0.11690858575E+02 -0.25200446645E+01  0.30508758062E+02  0.00000000000E+00 0.  1.
         14    1    4    4    0    0 -0.44345313310E+02  0.33799389010E+02 -0.64796640846E+02  0.85483976130E+02  0.00000000000E+00 0. -1.
         -5    1    5    5    0  502  0.75862436173E+02 -0.55994267075E+02  0.95817034750E+02  0.13451193745E+03  0.47000000000E+01 0.  1.
         11    1    6    6    0    0  0.52875476195E+02 -0.63284083387E+02 -0.53046055774E+02  0.98053940390E+02  0.00000000000E+00 0. -1.
        -12    1    6    6    0    0  0.18289941597E+02 -0.52922912113E+00  0.25884375163E+02  0.31698626542E+02  0.00000000000E+00 0.  1.
</event>
<event>
12    1  0.8407180E-002  0.1831278E+03  0.7818608E-02  0.1165021E+00
         21   -1    0    0  503  502  0.00000000000E+00  0.00000000000E+00  0.36852968015E+03  0.36852968015E+03  0.00000000000E+00 0.  1.
         21   -1    0    0  501  503 -0.00000000000E+00 -0.00000000000E+00 -0.98331030565E+02  0.98331030565E+02  0.00000000000E+00 0.  1.
          6    2    1    2  501    0  0.31136328024E+02 -0.55524765157E+02  0.20043003216E+03  0.27089269503E+03  0.17075767615E+03 0.  0.
         24    2    3    3    0    0  0.48832675459E+01 -0.15526901580E+02  0.21266161837E+03  0.22128670773E+03  0.58973825666E+02 0.  0.
         -6    2    1    2    0  502 -0.31136328024E+02  0.55524765157E+02  0.69768617430E+02  0.19596801568E+03  0.17170711320E+03 0.  0.
        -24    2    5    5    0    0 -0.22218582185E+02  0.24234065222E+02  0.11585857005E+03  0.13935522715E+03  0.70112165634E+02 0.  0.
          5    1    3    3  501    0  0.26253060478E+02 -0.39997863577E+02 -0.12231586216E+02  0.49605987305E+02  0.47000000000E+01 0. -1.
        -13    1    4    4    0    0  0.30146858174E+02 -0.84028454890E+01  0.77145178543E+02  0.83251543184E+02  0.00000000000E+00 0.  1.
         14    1    4    4    0    0 -0.25263590628E+02 -0.71240560914E+01  0.13551643983E+03  0.13803516454E+03  0.00000000000E+00 0. -1.
         -5    1    5    5    0  502 -0.89177458396E+01  0.31290699935E+02 -0.46089952616E+02  0.56612788533E+02  0.47000000000E+01 0.  1.
         11    1    6    6    0    0  0.16748886969E+02 -0.11136089936E+02  0.56776510579E+02  0.60233793400E+02  0.00000000000E+00 0. -1.
        -12    1    6    6    0    0 -0.38967469153E+02  0.35370155158E+02  0.59082059467E+02  0.79121433752E+02  0.00000000000E+00 0.  1.
</event>
<event>
12    1  0.8407180E-002  0.1999253E+03  0.7818608E-02  0.1149961E+00
         21   -1    0    0  501  502  0.00000000000E+00  0.00000000000E+00  0.16734287623E+04  0.16734287623E+04  0.00000000000E+00 0. -1.
         21   -1    0    0  502  503 -0.00000000000E+00 -0.00000000000E+00 -0.32028760486E+02  0.32028760486E+02  0.00000000000E+00 0.  1.
         -6    2    1    2    0  503  0.10294386801E+03 -0.11372688617E+02  0.38721341216E+03  0.43543620561E+03  0.17012843559E+03 0.  0.
        -24    2    3    3    0    0  0.78383387011E+02 -0.68182048381E+02  0.29885336595E+03  0.32745422401E+03  0.84381202911E+02 0.  0.
          6    2    1    2  501    0 -0.10294386801E+03  0.11372688617E+02  0.12541865897E+04  0.12700213172E+04  0.17100691914E+03 0.  0.
         24    2    5    5    0    0 -0.33265599431E+02  0.31023975885E+02  0.10422033869E+04  0.10459673004E+04  0.76096035044E+02 0.  0.
          5    1    5    5  501    0 -0.69678268584E+02 -0.19651287269E+02  0.21198320275E+03  0.22405401682E+03  0.47000000000E+01 0. -1.
        -11    1    6    6    0    0 -0.14081006554E+02 -0.21085912468E+02  0.56061917385E+03  0.56119225631E+03  0.00000000000E+00 0.  1.
         12    1    6    6    0    0 -0.19184592877E+02  0.52109888353E+02  0.48158421308E+03  0.48477504407E+03  0.00000000000E+00 0. -1.
         -5    1    3    3    0  503  0.24560481004E+02  0.56809359764E+02  0.88360046208E+02  0.10798198160E+03  0.47000000000E+01 0.  1.
         11    1    4    4    0    0  0.30712241442E+02 -0.19851803079E+01  0.18413307810E+03  0.18668736745E+03  0.00000000000E+00 0. -1.
        -12    1    4    4    0    0  0.47671145569E+02 -0.66196868073E+02  0.11472028785E+03  0.14076685657E+03  0.00000000000E+00 0.  1.
</event>
<event>
12    1  0.8407180E-002  0.2114972E+03  0.7818608E-02  0.1140430E+00
         21   -1    0    0  503  502  0.00000000000E+00  0.00000000000E+00  0.71936244000E+03  0.71936244000E+03  0.00000000000E+00 0. -1.
         21   -1    0    0  501  503 -0.00000000000E+00 -0.00000000000E+00 -0.11117697530E+03  0.11117697530E+03  0.00000000000E+00 0.  1.
          6    2    1    2  501    0 -0.90706720402E+02 -0.80517054502E+02  0.28320629492E+02  0.21338491819E+03  0.17326384523E+03 0.  0.
         24    2    3    3    0    0 -0.86388229143E+02 -0.10222193428E+03  0.67149229521E+02  0.16844605579E+03  0.77154421157E+02 0.  0.
         -6    2    1    2    0  502  0.90706720402E+02  0.80517054502E+02  0.57986483521E+03  0.61715449712E+03  0.17299058070E+03 0.  0.
        -24    2    5    5    0    0 -0.15247046282E+02  0.45802000038E+02  0.34117656764E+03  0.35366727777E+03  0.79679341340E+02 0.  0.
          5    1    3    3  501    0 -0.43184912592E+01  0.21704879781E+02 -0.38828600029E+02  0.44938862394E+02  0.47000000000E+01 0. -1.
        -11    1    4    4    0    0 -0.39174611938E+02  0.22220695792E+01  0.23868789715E+02  0.45927191687E+02  0.00000000000E+00 0.  1.
         12    1    4    4    0    0 -0.47213617205E+02 -0.10444400386E+03  0.43280439806E+02  0.12251886411E+03  0.00000000000E+00 0. -1.
         -5    1    5    5    0  502  0.10595376668E+03  0.34715054464E+02  0.23868826757E+03  0.26348721934E+03  0.47000000000E+01 0.  1.
         11    1    6    6    0    0  0.19670156135E+02  0.40754950011E+02  0.97988504133E+02  0.10793344215E+03  0.00000000000E+00 0. -1.
        -12    1    6    6    0    0 -0.34917202417E+02  0.50470500275E+01  0.24318806350E+03  0.24573383562E+03  0.00000000000E+00 0.  1.
</event>
<event>
12    1  0.8407180E-002  0.1981278E+03  0.7818608E-02  0.1151692E+00
         21   -1    0    0  503  502  0.00000000000E+00  0.00000000000E+00  0.24703226863E+03  0.24703226863E+03  0.00000000000E+00 0.  1.
         21   -1    0    0  501  503 -0.00000000000E+00 -0.00000000000E+00 -0.17502189849E+03  0.17502189849E+03  0.00000000000E+00 0.  1.
          6    2    1    2  501    0  0.51671994941E+02 -0.83666348331E+02  0.10282279826E+03  0.22322000001E+03  0.17200170830E+03 0.  0.
         24    2    3    3    0    0  0.48975276297E+02 -0.49894366121E+02  0.14052219869E+03  0.17231662227E+03  0.71123164485E+02 0.  0.
         -6    2    1    2    0  502 -0.51671994941E+02  0.83666348331E+02 -0.30812428121E+02  0.19883416711E+03  0.17004578025E+03 0.  0.
        -24    2    5    5    0    0  0.25096046864E+02  0.21805755319E+02 -0.48526259823E+02  0.98554881895E+02  0.79075687285E+02 0.  0.
          5    1    3    3  501    0  0.26967186434E+01 -0.33771982209E+02 -0.37699400424E+02  0.50903377748E+02  0.47000000000E+01 0. -1.
        -13    1    4    4    0    0  0.41561017305E+02 -0.35211481992E+02  0.33308382520E+02  0.63848374840E+02  0.00000000000E+00 0.  1.
         14    1    4    4    0    0  0.74142589917E+01 -0.14682884129E+02  0.10721381617E+03  0.10846824743E+03  0.00000000000E+00 0. -1.
         -5    1    5    5    0  502 -0.76768041804E+02  0.61860593011E+02  0.17713831702E+02  0.10027928522E+03  0.47000000000E+01 0.  1.
         13    1    6    6    0    0  0.25181258134E+02  0.10217569878E+02 -0.69482605454E+02  0.74607821011E+02  0.00000000000E+00 0. -1.
        -14    1    6    6    0    0 -0.85211270576E-01  0.11588185442E+02  0.20956345630E+02  0.23947060884E+02  0.00000000000E+00 0.  1.
</event>
<event>
12    1  0.8407180E-002  0.1833361E+03  0.7818608E-02  0.1164899E+00
         21   -1    0    0  501  502  0.00000000000E+00  0.00000000000E+00  0.18473781184E+03  0.18473781184E+03  0.00000000000E+00 0.  1.
         21   -1    0    0  502  503 -0.00000000000E+00 -0.00000000000E+00 -0.22814215696E+03  0.22814215696E+03  0.00000000000E+00 0.  1.
         -6    2    1    2    0  503 -0.60078353773E+02  0.23686122527E+01  0.72444842622E+02  0.19600863516E+03  0.17191890797E+03 0.  0.
        -24    2    3    3    0    0 -0.22024154333E+02 -0.54311728374E+02  0.79892216104E+02  0.12717305947E+03  0.79720722821E+02 0.  0.
          6    2    1    2  501    0  0.60078353773E+02 -0.23686122527E+01 -0.11584918774E+03  0.21687133365E+03  0.17319677289E+03 0.  0.
         24    2    5    5    0    0  0.28146333630E+02 -0.47245338218E+02 -0.12832352620E+03  0.16020323359E+03  0.78573599867E+02 0.  0.
          5    1    5    5  501    0  0.31932020143E+02  0.44876725965E+02  0.12474338460E+02  0.56668100055E+02  0.47000000000E+01 0. -1.
        -11    1    6    6    0    0  0.23571046215E+02 -0.21717850376E+02 -0.13030931474E+03  0.13419305776E+03  0.00000000000E+00 0.  1.
         12    1    6    6    0    0  0.45752874143E+01 -0.25527487842E+02  0.19857885356E+01  0.26010175827E+02  0.00000000000E+00 0. -1.
         -5    1    3    3    0  503 -0.38054199440E+02  0.56680340627E+02 -0.74473734823E+01  0.68835575688E+02  0.47000000000E+01 0.  1.
         11    1    4    4    0    0  0.22542808328E+02 -0.45436725804E+02  0.56968389108E+02  0.76276284759E+02  0.00000000000E+00 0. -1.
        -12    1    4    4    0    0 -0.44566962661E+02 -0.88750025700E+01  0.22923826996E+02  0.50896774707E+02  0.00000000000E+00 0.  1.
</event>
<event>
12    1  0.8407180E-002  0.2328596E+03  0.7818608E-02  0.1124951E+00
         21   -1    0    0  503  502  0.00000000000E+00  0.00000000000E+00  0.38346922241E+03  0.38346922241E+03  0.00000000000E+00 0.  1.
         21   -1    0    0  501  503 -0.00000000000E+00 -0.00000000000E+00 -0.64124513648E+03  0.64124513648E+03  0.00000000000E+00 0. -1.
          6    2    1    2  501    0  0.11553590716E+03  0.10402339032E+03 -0.58161761161E+03  0.62584468622E+03  0.17097693867E+03 0.  0.
         24    2    3    3    0    0  0.12383358824E+02  0.27770473595E+02 -0.35692812053E+03  0.36707372004E+03  0.80130430768E+02 0.  0.
         -6    2    1    2    0  502 -0.11553590716E+03 -0.10402339032E+03  0.32384169754E+03  0.39886967266E+03  0.17336135419E+03 0.  0.
        -24    2    5    5    0    0 -0.15705842262E+02 -0.35097202559E+02  0.22305007103E+03  0.24107897841E+03  0.83001521293E+02 0.  0.
          5    1    3    3  501    0  0.10315254834E+03  0.76252916730E+02 -0.22468949108E+03  0.25877096619E+03  0.47000000000E+01 0. -1.
        -11    1    4    4    0    0  0.29740276313E+02  0.28577955590E+02 -0.83868328817E+02  0.93461650742E+02  0.00000000000E+00 0.  1.
         12    1    4    4    0    0 -0.17356917489E+02 -0.80748199543E+00 -0.27305979172E+03  0.27361206930E+03  0.00000000000E+00 0. -1.
         -5    1    5    5    0  502 -0.99830064901E+02 -0.68926187765E+02  0.10079162651E+03  0.15779069425E+03  0.47000000000E+01 0.  1.
         11    1    6    6    0    0 -0.25854240712E+02 -0.44185056684E+02  0.22153403473E+03  0.22737213889E+03  0.00000000000E+00 0. -1.
        -12    1    6    6    0    0  0.10148398450E+02  0.90878541243E+01  0.15160362961E+01  0.13706839524E+02  0.00000000000E+00 0.  1.
</event>
<event>
12    1  0.8407180E-002  0.2159724E+03  0.7818608E-02  0.1138136E+00
         21   -1    0    0  501  502  0.00000000000E+00  0.00000000000E+00  0.58484431722E+03  0.58484431722E+03  0.00000000000E+00 0. -1.
         21   -1    0    0  502  503 -0.00000000000E+00 -0.00000000000E+00 -0.87780037288E+02  0.87780037288E+02  0.00000000000E+00 0. -1.
         -6    2    1    2    0  503  0.79939605331E+02 -0.10154496030E+03  0.13000205891E+03  0.24673850472E+03  0.16515942277E+03 0.  0.
        -24    2    3    3    0    0  0.23008948722E+02 -0.60461189449E+02  0.27955647363E+01  0.10136808803E+03  0.77991710702E+02 0.  0.
          6    2    1    2  501    0 -0.79939605331E+02  0.10154496030E+03  0.36706222102E+03  0.42588584978E+03  0.17303861847E+03 0.  0.
         24    2    5    5    0    0 -0.17103465156E+02 -0.11285393584E+02  0.10886587757E+03  0.13715325543E+03  0.80866232432E+02 0.  0.
          5    1    5    5  501    0 -0.62836140175E+02  0.11283035388E+03  0.25819634345E+03  0.28873259435E+03  0.47000000000E+01 0. -1.
        -13    1    6    6    0    0 -0.16324137264E+02 -0.10426547740E+02  0.12222175968E+03  0.12374711671E+03  0.00000000000E+00 0.  1.
         14    1    6    6    0    0 -0.77932789231E+00 -0.85884584417E+00 -0.13355882116E+02  0.13406138715E+02  0.00000000000E+00 0. -1.
         -5    1    3    3    0  503  0.56930656609E+02 -0.41083770851E+02  0.12720649417E+03  0.14537041669E+03  0.47000000000E+01 0.  1.
         13    1    4    4    0    0  0.34662113546E+02 -0.18945243593E+02  0.30680652098E+02  0.50016864990E+02  0.00000000000E+00 0. -1.
        -14    1    4    4    0    0 -0.11653164824E+02 -0.41515945855E+02 -0.27885087362E+02  0.51351223042E+02  0.00000000000E+00 0.  1.
</event>
<event>
12    1  0.8407180E-002  0.2234518E+03  0.7818608E-02  0.1131791E+00
         21   -1    0    0  503  502  0.00000000000E+00  0.00000000000E+00  0.10637500452E+03  0.10637500452E+03  0.00000000000E+00 0. -1.
         21   -1    0    0  501  503 -0.00000000000E+00 -0.00000000000E+00 -0.58775001817E+03  0.58775001817E+03  0.00000000000E+00 0. -1.
          6    2    1    2  501    0 -0.13237920927E+03  0.45647478511E+02 -0.39875604906E+03  0.45588858622E+03  0.17093878741E+03 0.  0.
         24    2    3    3    0    0 -0.62784527600E+02 -0.42241956963E+02 -0.16736708264E+03  0.19872926524E+03  0.75863698021E+02 0.  0.
         -6    2    1    2    0  502  0.13237920927E+03 -0.45647478511E+02 -0.82618964588E+02  0.23823643648E+03  0.17413431315E+03 0.  0.
        -24    2    5    5    0    0  0.13517294079E+03  0.17516035416E+01 -0.17658421438E+02  0.15763593970E+03  0.79135817423E+02 0.  0.
          5    1    3    3  501    0 -0.69594681667E+02  0.87889435474E+02 -0.23138896642E+03  0.25715932098E+03  0.47000000000E+01 0. -1.
        -11    1    4    4    0    0  0.69909702633E+01 -0.84354090074E+01 -0.84647835450E+02  0.85353885891E+02  0.00000000000E+00 0.  1.
         12    1    4    4    0    0 -0.69775497863E+02 -0.33806547955E+02 -0.82719247187E+02  0.11337537935E+03  0.00000000000E+00 0. -1.
         -5    1    5    5    0  502 -0.27937315242E+01 -0.47399082053E+02 -0.64960543150E+02  0.80600496783E+02  0.47000000000E+01 0.  1.
         11    1    6    6    0    0  0.17862112386E+02 -0.27883672188E+02  0.77307184134E+01  0.34004679689E+02  0.00000000000E+00 0. -1.
        -12    1    6    6    0    0  0.11731082841E+03  0.29635275729E+02 -0.25389139852E+02  0.12363126001E+03  0.00000000000E+00 0.  1.
</event>
<event>
12    1  0.8407180E-002  0.2263039E+03  0.7818608E-02  0.1129770E+00
         21   -1    0    0  501  502  0.00000000000E+00  0.00000000000E+00  0.76934503258E+02  0.76934503258E+02  0.00000000000E+00 0.  1.
         21   -1    0    0  502  503 -0.00000000000E+00 -0.00000000000E+00 -0.68607075464E+03  0.68607075464E+03  0.00000000000E+00 0. -1.
         -6    2    1    2    0  503  0.14617332164E+03  0.18851364812E+01 -0.38416089819E+03  0.44586212448E+03  0.17275197437E+03 0.  0.
        -24    2    3    3    0    0  0.68587055618E+02 -0.41030682253E+02 -0.11115372424E+03  0.15877955238E+03  0.80424466166E+02 0.  0.
          6    2    1    2  501    0 -0.14617332164E+03 -0.18851364812E+01 -0.22497535319E+03  0.31714313341E+03  0.16910252461E+03 0.  0.
         24    2    5    5    0    0 -0.93412259938E+01 -0.13337170172E+02 -0.57509183083E+02  0.10053016149E+03  0.80832348844E+02 0.  0.
          5    1    5    5  501    0 -0.13683209565E+03  0.11452033691E+02 -0.16746617011E+03  0.21661297192E+03  0.47000000000E+01 0. -1.
        -11    1    6    6    0    0 -0.34721070456E+02  0.18237990123E+02 -0.15503739290E+02  0.42172774978E+02  0.00000000000E+00 0.  1.
         12    1    6    6    0    0  0.25379844462E+02 -0.31575160295E+02 -0.42005443793E+02  0.58357386515E+02  0.00000000000E+00 0. -1.
         -5    1    3    3    0  503  0.77586266023E+02  0.42915818734E+02 -0.27300717395E+03  0.28708257210E+03  0.47000000000E+01 0.  1.
         11    1    4    4    0    0  0.13697952899E+02 -0.72254014527E-01 -0.83994895537E+02  0.85104533432E+02  0.00000000000E+00 0. -1.
        -12    1    4    4    0    0  0.54889102719E+02 -0.40958428238E+02 -0.27158828703E+02  0.73675018952E+02  0.00000000000E+00 0.  1.
</event>
<event>
12    1  0.8407180E-002  0.2150492E+03  0.7818608E-02  0.1137647E+00
         21   -1    0    0  503  502  0.00000000000E+00  0.00000000000E+00  0.16363796785E+03  0.16363796785E+03  0.00000000000E+00 0.  1.
         21   -1    0    0  501  503 -0.00000000000E+00 -0.00000000000E+00 -0.34942321920E+03  0.34942321920E+03  0.00000000000E+00 0.  1.
          6    2    1    2  501    0  0.11241292816E+03 -0.62766561967E+02 -0.20515177093E+03  0.29714168146E+03  0.17213257107E+03 0.  0.
         24    2    3    3    0    0  0.59530694109E+02 -0.54334330601E+02 -0.21554554029E+03  0.24238993586E+03  0.76137231644E+02 0.  0.
         -6    2    1    2    0  502 -0.11241292816E+03  0.62766561967E+02  0.19366519577E+02  0.21591950559E+03  0.17224942118E+03 0.  0.
        -24    2    5    5    0    0 -0.83178647291E+02 -0.14283250846E+02  0.52368556426E+02  0.12702326682E+03  0.79181727630E+02 0.  0.
          5    1    3    3  501    0  0.52882234055E+02 -0.84322313661E+01  0.10393769364E+02  0.54751745598E+02  0.47000000000E+01 0. -1.
        -11    1    4    4    0    0  0.64220720992E+02 -0.45382825832E+02 -0.21820301301E+03  0.23194063200E+03  0.00000000000E+00 0.  1.
         12    1    4    4    0    0 -0.46900268828E+01 -0.89515047692E+01  0.26574727221E+01  0.10449303855E+02  0.00000000000E+00 0. -1.
         -5    1    5    5    0  502 -0.29234280872E+02  0.77049812813E+02 -0.33002036849E+02  0.88896238778E+02  0.47000000000E+01 0.  1.
         11    1    6    6    0    0  0.15238655514E+02 -0.67372074137E+01  0.41575400835E+01  0.17172411745E+02  0.00000000000E+00 0. -1.
        -12    1    6    6    0    0 -0.98417302805E+02 -0.75460434325E+01  0.48211016343E+02  0.10985085507E+03  0.00000000000E+00 0.  1.
</event>
<event>
12    1  0.8407180E-002  0.2217895E+03  0.7818608E-02  0.1132802E+00
         21   -1    0    0  501  502  0.00000000000E+00  0.00000000000E+00  0.88289768294E+02  0.88289768294E+02  0.00000000000E+00 0. -1.
         21   -1    0    0  502  503 -0.00000000000E+00 -0.00000000000E+00 -0.13843320804E+04  0.13843320804E+04  0.00000000000E+00 0. -1.
         -6    2    1    2    0  503 -0.13378023652E+03  0.40948969689E+02 -0.12175562130E+04  0.12373546870E+04  0.17038051477E+03 0.  0.
        -24    2    3    3    0    0 -0.12520867088E+03  0.29593403972E+01 -0.58967697629E+03  0.60825126977E+03  0.81022847715E+02 0.  0.
          6    2    1    2  501    0  0.13378023652E+03 -0.40948969689E+02 -0.78486099036E+02  0.23526716163E+03  0.17209474076E+03 0.  0.
         24    2    5    5    0    0  0.12914265337E+03 -0.35272347535E+00 -0.10628751098E+03  0.18562271692E+03  0.80503470204E+02 0.  0.
          5    1    5    5  501    0  0.46375831510E+01 -0.40596246213E+02  0.27801411942E+02  0.49644444705E+02  0.47000000000E+01 0. -1.
        -11    1    6    6    0    0  0.16522668652E+02 -0.30220712120E+02 -0.34607220291E+02  0.48825707540E+02  0.00000000000E+00 0.  1.
         12    1    6    6    0    0  0.11261998472E+03  0.29867988645E+02 -0.71680290687E+02  0.13679700938E+03  0.00000000000E+00 0. -1.
         -5    1    3    3    0  503 -0.85715656390E+01  0.37989629292E+02 -0.62787923674E+03  0.62910341725E+03  0.47000000000E+01 0.  1.
         11    1    4    4    0    0 -0.11726615886E+03 -0.21688932163E+01 -0.58674546280E+03  0.59835298464E+03  0.00000000000E+00 0. -1.
        -12    1    4    4    0    0 -0.79425120212E+01  0.51282336135E+01 -0.29315134914E+01  0.98982851318E+01  0.00000000000E+00 0.  1.
</event>
<event>
12    1  0.8407180E-002  0.2815678E+03  0.7818608E-02  0.1094959E+00
         21   -1    0    0  503  502  0.00000000000E+00  0.00000000000E+00  0.53859142771E+03  0.53859142771E+03  0.00000000000E+00 0. -1.
         21   -1    0    0  501  503 -0.00000000000E+00 -0.00000000000E+00 -0.24469165673E+03  0.24469165673E+03  0.00000000000E+00 0.  1.
          6    2    1    2  501    0  0.20451236405E+03  0.88530985981E+02  0.39461630491E+03  0.48424424857E+03  0.17060897292E+03 0.  0.
         24    2    3    3    0    0  0.41258474796E+02  0.43833414048E+02  0.21973493007E+03  0.24082015247E+03  0.78020999820E+02 0.  0.
         -6    2    1    2    0  502 -0.20451236405E+03 -0.88530985981E+02 -0.10071653393E+03  0.29903883588E+03  0.17209695705E+03 0.  0.
        -24    2    5    5    0    0 -0.15232700546E+03  0.58872808308E+01 -0.69572694779E+02  0.18665489807E+03  0.82228428456E+02 0.  0.
          5    1    3    3  501    0  0.16325388926E+03  0.44697571933E+02  0.17488137483E+03  0.24342409609E+03  0.47000000000E+01 0. -1.
        -13    1    4    4    0    0 -0.22321623056E+02  0.61193396524E+01  0.36315839644E+02  0.43064386477E+02  0.00000000000E+00 0.  1.
         14    1    4    4    0    0  0.63580097852E+02  0.37714074396E+02  0.18341909043E+03  0.19775576600E+03  0.00000000000E+00 0. -1.
         -5    1    5    5    0  502 -0.52185358591E+02 -0.94418266812E+02 -0.31143839153E+02  0.11238393780E+03  0.47000000000E+01 0.  1.
         13    1    6    6    0    0 -0.23683387161E+02 -0.13247785826E+02  0.15492350109E+02  0.31247713014E+02  0.00000000000E+00 0. -1.
        -14    1    6    6    0    0 -0.12864361830E+03  0.19135066657E+02 -0.85065044888E+02  0.15540718506E+03  0.00000000000E+00 0.  1.
</event>
<event>
12    1  0.8407180E-002  0.2138567E+03  0.7818608E-02  0.1139858E+00
         21   -1    0    0  503  502  0.00000000000E+00  0.00000000000E+00  0.14929538432E+03  0.14929538432E+03  0.00000000000E+00 0. -1.
         21   -1    0    0  501  503 -0.00000000000E+00 -0.00000000000E+00 -0.41645730962E+03  0.41645730962E+03  0.00000000000E+00 0. -1.
          6    2    1    2  501    0  0.28202506728E+02 -0.11115989834E+03 -0.28364487131E+03  0.35126176495E+03  0.17256451000E+03 0.  0.
         24    2    3    3    0    0 -0.44504809730E+02 -0.55087632069E+02 -0.99560077748E+02  0.14549550403E+03  0.79002577912E+02 0.  0.
         -6    2    1    2    0  502 -0.28202506728E+02  0.11115989834E+03  0.16482946009E+02  0.21449092899E+03  0.18050697140E+03 0.  0.
        -24    2    5    5    0    0 -0.17730896882E+02  0.12241792238E+03 -0.41121860257E+02  0.15468456292E+03  0.83281295562E+02 0.  0.
          5    1    3    3  501    0  0.72707316459E+02 -0.56072266271E+02 -0.18408479356E+03  0.20576626092E+03  0.47000000000E+01 0. -1.
        -11    1    4    4    0    0  0.11123206964E+02  0.13201780609E+02 -0.23244307530E+02  0.28953593507E+02  0.00000000000E+00 0.  1.
         12    1    4    4    0    0 -0.55628016695E+02 -0.68289412678E+02 -0.76315770217E+02  0.11654191053E+03  0.00000000000E+00 0. -1.
         -5    1    5    5    0  502 -0.10471609846E+02 -0.11258024036E+02  0.57604806266E+02  0.59806366074E+02  0.47000000000E+01 0.  1.
         13    1    6    6    0    0 -0.49946450019E+02  0.54640274636E+02 -0.18506734102E+02  0.76306662153E+02  0.00000000000E+00 0. -1.
        -14    1    6    6    0    0  0.32215553137E+02  0.67777647740E+02 -0.22615126155E+02  0.78377900764E+02  0.00000000000E+00 0.  1.
</event>
<event>
12    1  0.8407180E-002  0.1900809E+03  0.7818608E-02  0.1158399E+00
         21   -1    0    0  503  502  0.00000000000E+00  0.00000000000E+00  0.47918948948E+02  0.47918948948E+02  0.00000000000E+00 0. -1.
         21   -1    0    0  501  503 -0.00000000000E+00 -0.00000000000E+00 -0.80985502031E+03  0.80985502031E+03  0.00000000000E+00 0. -1.
          6    2    1    2  501    0  0.59620345141E+02  0.58504092416E+02 -0.49374697230E+03  0.52905503972E+03  0.17069226115E+03 0.  0.
         24    2    3    3    0    0  0.24225241249E+02  0.14294594230E+02 -0.44764229571E+03  0.45587700809E+03  0.81541546864E+02 0.  0.
         -6    2    1    2    0  502 -0.59620345141E+02 -0.58504092416E+02 -0.26818909906E+03  0.32871892953E+03  0.17074374774E+03 0.  0.
        -24    2    5    5    0    0  0.31156481402E+02 -0.32387105885E+02 -0.10343312951E+03  0.13874748767E+03  0.80825751417E+02 0.  0.
          5    1    3    3  501    0  0.35395103892E+02  0.44209498186E+02 -0.46104676590E+02  0.73178031627E+02  0.47000000000E+01 0. -1.
        -13    1    4    4    0    0  0.35589943719E+02 -0.38679344466E+01 -0.80397154877E+02  0.88007428795E+02  0.00000000000E+00 0.  1.
         14    1    4    4    0    0 -0.11364702470E+02  0.18162528676E+02 -0.36724514083E+03  0.36786957930E+03  0.00000000000E+00 0. -1.
         -5    1    5    5    0  502 -0.90776826543E+02 -0.26116986531E+02 -0.16475596955E+03  0.18997144187E+03  0.47000000000E+01 0.  1.
         11    1    6    6    0    0  0.23107309070E+02 -0.45660492237E+02 -0.11043684404E+03  0.12171739730E+03  0.00000000000E+00 0. -1.
        -12    1    6    6    0    0  0.80491723312E+01  0.13273386352E+02  0.70037145342E+01  0.17030090362E+02  0.00000000000E+00 0.  1.
</event>
<event>
12    1  0.8407180E-002  0.2110396E+03  0.7818608E-02  0.1140979E+00
         21   -1    0    0  503  502  0.00000000000E+00  0.00000000000E+00  0.47398845317E+03  0.47398845317E+03  0.00000000000E+00 0. -1.
         21   -1    0    0  501  503 -0.00000000000E+00 -0.00000000000E+00 -0.94221817448E+02  0.94221817448E+02  0.00000000000E+00 0.  1.
          6    2    1    2  501    0 -0.59573623463E+02  0.10610977346E+03  0.21527056427E+03  0.30063476021E+03  0.17097234447E+03 0.  0.
         24    2    3    3    0    0  0.29097693644E+02  0.63283037450E+02  0.14494172621E+03  0.17953576245E+03  0.79834625324E+02 0.  0.
         -6    2    1    2    0  502  0.59573623463E+02 -0.10610977346E+03  0.16449607146E+03  0.26757551041E+03  0.17242214362E+03 0.  0.
        -24    2    5    5    0    0  0.98935015219E+02 -0.80093921447E+02  0.78364194140E+02  0.16925494284E+03  0.79392161218E+02 0.  0.
          5    1    3    3  501    0 -0.88671317107E+02  0.42826736011E+02  0.70328838061E+02  0.12109899776E+03  0.47000000000E+01 0. -1.
        -11    1    4    4    0    0  0.23440786416E+01  0.27879757917E+02  0.26009330729E-01  0.27978139372E+02  0.00000000000E+00 0.  1.
         12    1    4    4    0    0  0.26753615003E+02  0.35403279532E+02  0.14491571687E+03  0.15155762308E+03  0.00000000000E+00 0. -1.
         -5    1    5    5    0  502 -0.39361391756E+02 -0.26015852013E+02  0.86131877320E+02  0.98320567571E+02  0.47000000000E+01 0.  1.
         13    1    6    6    0    0  0.41881672760E+02 -0.70168510473E+02  0.75528100472E+02  0.11127528178E+03  0.00000000000E+00 0. -1.
        -14    1    6    6    0    0  0.57053342459E+02 -0.99254109746E+01  0.28360936681E+01  0.57979661055E+02  0.00000000000E+00 0.  1.
</event>
<event>
12    1  0.8407180E-002  0.1896606E+03  0.7818608E-02  0.1158917E+00
         21   -1    0    0  503  502  0.00000000000E+00  0.00000000000E+00  0.10802691510E+04  0.10802691510E+04  0.00000000000E+00 0. -1.
         21   -1    0    0  501  503 -0.00000000000E+00 -0.00000000000E+00 -0.39396749095E+02  0.39396749095E+02  0.00000000000E+00 0. -1.
          6    2    1    2  501    0  0.77823095782E+02  0.10063725634E+02  0.29886463099E+03  0.35396499455E+03  0.17266567956E+03 0.  0.
         24    2    3    3    0    0  0.88812053604E+01  0.52962348243E+02  0.98475957655E+02  0.13769898595E+03  0.79872463055E+02 0.  0.
         -6    2    1    2    0  502 -0.77823095782E+02 -0.10063725634E+02  0.74200777096E+03  0.76570090559E+03  0.17194368801E+03 0.  0.
        -24    2    5    5    0    0 -0.54968138802E+02  0.41852742864E+02  0.60633321467E+03  0.61857054168E+03  0.10107620617E+03 0.  0.
          5    1    3    3  501    0  0.68941890422E+02 -0.42898622609E+02  0.20038867333E+03  0.21626600860E+03  0.47000000000E+01 0. -1.
        -13    1    4    4    0    0 -0.13658302134E+02 -0.15134838065E+02  0.72226113795E+01  0.21628191223E+02  0.00000000000E+00 0.  1.
         14    1    4    4    0    0  0.22539507495E+02  0.68097186308E+02  0.91253346275E+02  0.11607079472E+03  0.00000000000E+00 0. -1.
         -5    1    5    5    0  502 -0.22854956981E+02 -0.51916468498E+02  0.13567455630E+03  0.14713036392E+03  0.47000000000E+01 0.  1.
         11    1    6    6    0    0 -0.54985824127E+02 -0.91910275898E+01  0.16218724495E+03  0.17150107366E+03  0.00000000000E+00 0. -1.
        -12    1    6    6    0    0  0.17685325739E-01  0.51043770453E+02  0.44414596972E+03  0.44706946802E+03  0.00000000000E+00 0.  1.
</event>
<event>
12    1  0.8407180E-002  0.1972669E+03  0.7818608E-02  0.1152309E+00
         21   -1    0    0  503  502  0.00000000000E+00  0.00000000000E+00  0.93694827358E+02  0.93694827358E+02  0.00000000000E+00 0. -1.
         21   -1    0    0  501  503 -0.00000000000E+00 -0.00000000000E+00 -0.73713444929E+03  0.73713444929E+03  0.00000000000E+00 0. -1.
          6    2    1    2  501    0 -0.14964858075E+02 -0.92819504289E+02 -0.59772468072E+03  0.62943546640E+03  0.17342088995E+03 0.  0.
         24    2    3    3    0    0  0.21970162718E+02 -0.48610645797E+02 -0.14875021495E+03  0.17675591104E+03  0.79185495552E+02 0.  0.
         -6    2    1    2    0  502  0.14964858075E+02  0.92819504289E+02 -0.45714941214E+02  0.20139381025E+03  0.17213426039E+03 0.  0.
        -24    2    5    5    0    0 -0.18408440047E+02  0.12036139260E+03 -0.53875535828E+02  0.15711042799E+03  0.83398907236E+02 0.  0.
          5    1    3    3  501    0 -0.36935020793E+02 -0.44208858492E+02 -0.44897446577E+03  0.45267955536E+03  0.47000000000E+01 0. -1.
        -13    1    4    4    0    0 -0.26344801392E+02 -0.20406766523E+02 -0.88358658328E+02  0.94433771405E+02  0.00000000000E+00 0.  1.
         14    1    4    4    0    0  0.48314964110E+02 -0.28203879274E+02 -0.60391556622E+02  0.82322139636E+02  0.00000000000E+00 0. -1.
         -5    1    5    5    0  502  0.33373298122E+02 -0.27541888314E+02  0.81605946144E+01  0.44283382255E+02  0.47000000000E+01 0.  1.
         13    1    6    6    0    0  0.12880161901E+02  0.30786886552E+02  0.18148842442E+02  0.37988306571E+02  0.00000000000E+00 0. -1.
        -14    1    6    6    0    0 -0.31288601948E+02  0.89574506051E+02 -0.72024378270E+02  0.11912212142E+03  0.00000000000E+00 0.  1.
</event>
<event>
12    1  0.8407180E-002  0.1775591E+03  0.7818608E-02  0.1170377E+00
         21   -1    0    0  503  502  0.00000000000E+00  0.00000000000E+00  0.32660646158E+03  0.32660646158E+03  0.00000000000E+00 0.  1.
         21   -1    0    0  501  503 -0.00000000000E+00 -0.00000000000E+00 -0.98024976804E+02  0.98024976804E+02  0.00000000000E+00 0.  1.
          6    2    1    2  501    0 -0.20420293047E+02  0.43734739695E+02  0.84372535954E+02  0.19588826297E+03  0.17006990011E+03 0.  0.
         24    2    3    3    0    0 -0.66686207097E+02  0.28652551859E+02  0.98056444531E+02  0.14512068920E+03  0.78593442315E+02 0.  0.
         -6    2    1    2    0  502  0.20420293047E+02 -0.43734739695E+02  0.14420894882E+03  0.22874317541E+03  0.17087277007E+03 0.  0.
        -24    2    5    5    0    0  0.44545072971E+01 -0.65144530817E+02  0.24876742327E+02  0.10636854169E+03  0.80198265706E+02 0.  0.
          5    1    3    3  501    0  0.46265914051E+02  0.15082187836E+02 -0.13683908577E+02  0.50767573773E+02  0.47000000000E+01 0. -1.
        -11    1    4    4    0    0 -0.70166254874E+02 -0.73872462167E+01  0.69137211141E+02  0.98781722470E+02  0.00000000000E+00 0.  1.
         12    1    4    4    0    0  0.34800477762E+01  0.36039798075E+02  0.28919233389E+02  0.46338966731E+02  0.00000000000E+00 0. -1.
         -5    1    5    5    0  502  0.15965785750E+02  0.21409791122E+02  0.11933220650E+03  0.12237463372E+03  0.47000000000E+01 0.  1.
         13    1    6    6    0    0  0.27059442071E+02 -0.73837565299E+02  0.14247683232E+02  0.79919934510E+02  0.00000000000E+00 0. -1.
        -14    1    6    6    0    0 -0.22604934774E+02  0.86930344828E+01  0.10629059095E+02  0.26448607182E+02  0.00000000000E+00 0.  1.
</event>
<event>
12    1  0.8407180E-002  0.2271238E+03  0.7818608E-02  0.1128894E+00
         21   -1    0    0  501  502  0.00000000000E+00  0.00000000000E+00  0.93391481772E+03  0.93391481772E+03  0.00000000000E+00 0.  1.
         21   -1    0    0  502  503 -0.00000000000E+00 -0.00000000000E+00 -0.10849381190E+03  0.10849381190E+03  0.00000000000E+00 0.  1.
         -6    2    1    2    0  503  0.13873418703E+03 -0.47858079514E+02  0.45997480316E+02  0.23056736219E+03  0.17177884004E+03 0.  0.
        -24    2    3    3    0    0  0.78690093525E+02 -0.59836968569E+02  0.87549570242E+02  0.15642255033E+03  0.83848037399E+02 0.  0.
          6    2    1    2  501    0 -0.13873418703E+03  0.47858079514E+02  0.77942352551E+03  0.81184126744E+03  0.17334255384E+03 0.  0.
         24    2    5    5    0    0 -0.63341166252E+02 -0.40676187679E+02  0.39667763082E+03  0.41179260296E+03  0.80952760745E+02 0.  0.
          5    1    5    5  501    0 -0.75393020782E+02  0.88534267193E+02  0.38274589469E+03  0.40004866448E+03  0.47000000000E+01 0. -1.
        -13    1    6    6    0    0  0.12233866993E+02 -0.31770447052E+02  0.13937821224E+03  0.14347583370E+03  0.00000000000E+00 0.  1.
         14    1    6    6    0    0 -0.75575033244E+02 -0.89057406266E+01  0.25729941858E+03  0.26831676926E+03  0.00000000000E+00 0. -1.
         -5    1    3    3    0  503  0.60044093508E+02  0.11978889054E+02 -0.41552089926E+02  0.74144811858E+02  0.47000000000E+01 0.  1.
         13    1    4    4    0    0  0.43161481271E+02 -0.21913497593E+02  0.92317349465E+02  0.10423822646E+03  0.00000000000E+00 0. -1.
        -14    1    4    4    0    0  0.35528612254E+02 -0.37923470976E+02 -0.47677792230E+01  0.52184323875E+02  0.00000000000E+00 0.  1.
</event>
<event>
12    1  0.8407180E-002  0.1984954E+03  0.7818608E-02  0.1151133E+00
         21   -1    0    0  501  502  0.00000000000E+00  0.00000000000E+00  0.19303445630E+02  0.19303445630E+02  0.00000000000E+00 0. -1.
         21   -1    0    0  502  503 -0.00000000000E+00 -0.00000000000E+00 -0.23452389754E+04  0.23452389754E+04  0.00000000000E+00 0. -1.
         -6    2    1    2    0  503 -0.91490059232E+02 -0.36543395863E+02 -0.15912739973E+04  0.16035378226E+04  0.17168215754E+03 0.  0.
        -24    2    3    3    0    0 -0.65353498428E+02 -0.78738543249E+02 -0.13935535067E+04  0.13996284488E+04  0.80607573781E+02 0.  0.
          6    2    1    2  501    0  0.91490059232E+02  0.36543395863E+02 -0.73466153247E+03  0.76100459846E+03  0.17232115616E+03 0.  0.
         24    2    5    5    0    0  0.11524893534E+02  0.64519017907E+02 -0.28589081224E+03  0.30428333501E+03  0.80989286918E+02 0.  0.
          5    1    5    5  501    0  0.79965165698E+02 -0.27975622044E+02 -0.44877072023E+03  0.45672126345E+03  0.47000000000E+01 0. -1.
        -13    1    6    6    0    0  0.43471175039E+01  0.13450511237E+02 -0.22074017103E+03  0.22119230725E+03  0.00000000000E+00 0.  1.
         14    1    6    6    0    0  0.71777760300E+01  0.51068506671E+02 -0.65150641215E+02  0.83091027753E+02  0.00000000000E+00 0. -1.
         -5    1    3    3    0  503 -0.26136560804E+02  0.42195147386E+02 -0.19772049062E+03  0.20390937371E+03  0.47000000000E+01 0.  1.
         11    1    4    4    0    0 -0.40153296600E+02 -0.45887107636E+02 -0.35126445523E+03  0.35651736477E+03  0.00000000000E+00 0. -1.
        -12    1    4    4    0    0 -0.25200201827E+02 -0.32851435613E+02 -0.10422890514E+04  0.10431110841E+04  0.00000000000E+00 0.  1.
</event>
<event>
12    1  0.8407180E-002  0.2328848E+03  0.7818608E-02  0.1124838E+00
         21   -1    0    0  501  502  0.00000000000E+00  0.00000000000E+00  0.26512005407E+03  0.26512005407E+03  0.00000000000E+00 0. -1.
         21   -1    0    0  502  503 -0.00000000000E+00 -0.00000000000E+00 -0.22380463574E+03  0.22380463574E+03  0.00000000000E+00 0. -1.
         -6    2    1    2    0  503 -0.15478629224E+03  0.14215262797E+02 -0.53031929352E+02  0.23765443815E+03  0.17177420202E+03 0.  0.
        -24    2    3    3    0    0 -0.17825394517E+03 -0.48415775248E+01 -0.63282178081E+02  0.20538910852E+03  0.79888309493E+02 0.  0.
          6    2    1    2  501    0  0.15478629224E+03 -0.14215262797E+02  0.94347347681E+02  0.25127025166E+03  0.17341985870E+03 0.  0.
         24    2    5    5    0    0  0.31703846566E+02 -0.20857645680E+02 -0.84101015456E+01  0.90725575460E+02  0.81976978257E+02 0.  0.
          5    1    5    5  501    0  0.12308244568E+03  0.66423828830E+01  0.10275744923E+03  0.16054467620E+03  0.47000000000E+01 0. -1.
        -11    1    6    6    0    0 -0.45760014119E+00  0.21603312026E+02  0.20785837413E+02  0.29982720446E+02  0.00000000000E+00 0.  1.
         12    1    6    6    0    0  0.32161446707E+02 -0.42460957706E+02 -0.29195938958E+02  0.60742855014E+02  0.00000000000E+00 0. -1.
         -5    1    3    3    0  503  0.23467652931E+02  0.19056840321E+02  0.10250248729E+02  0.32265329630E+02  0.47000000000E+01 0.  1.
         13    1    4    4    0    0 -0.40533331162E+02 -0.23585454841E+02  0.10459677261E+02  0.48048199379E+02  0.00000000000E+00 0. -1.
        -14    1    4    4    0    0 -0.13772061401E+03  0.18743877316E+02 -0.73741855342E+02  0.15734090914E+03  0.00000000000E+00 0.  1.
</event>
<event>
12    1  0.8407180E-002  0.2019501E+03  0.7818608E-02  0.1148242E+00
         21   -1    0    0  501  502  0.00000000000E+00  0.00000000000E+00  0.82670809670E+02  0.82670809670E+02  0.00000000000E+00 0. -1.
         21   -1    0    0  502  503 -0.00000000000E+00 -0.00000000000E+00 -0.13727170406E+04  0.13727170406E+04  0.00000000000E+00 0. -1.
         -6    2    1    2    0  503  0.96949584392E+02 -0.37037667909E+02 -0.12276147257E+04  0.12440077955E+04  0.17247164896E+03 0.  0.
        -24    2    3    3    0    0  0.66759033460E+02 -0.55456962479E+01 -0.34751861194E+03  0.36281855752E+03  0.79878637551E+02 0.  0.
          6    2    1    2  501    0 -0.96949584392E+02  0.37037667909E+02 -0.62431505219E+02  0.21138005478E+03  0.17324209638E+03 0.  0.
         24    2    5    5    0    0  0.18243666527E+01  0.60668218175E+02 -0.56327363706E+02  0.10952698976E+03  0.71689808017E+02 0.  0.
          5    1    5    5  501    0 -0.98773951045E+02 -0.23630550266E+02 -0.61041415128E+01  0.10185306502E+03  0.47000000000E+01 0. -1.
        -13    1    6    6    0    0 -0.32132779354E+02  0.15588924018E+02 -0.11717474437E+02  0.37587621210E+02  0.00000000000E+00 0.  1.
         14    1    6    6    0    0  0.33957146007E+02  0.45079294157E+02 -0.44609889269E+02  0.71939368549E+02  0.00000000000E+00 0. -1.
         -5    1    3    3    0  503  0.30190550932E+02 -0.31491971661E+02 -0.88009611379E+03  0.88118923799E+03  0.47000000000E+01 0.  1.
         13    1    4    4    0    0  0.49117480254E+02  0.34343346332E+02 -0.22151626269E+03  0.22948082042E+03  0.00000000000E+00 0. -1.
        -14    1    4    4    0    0  0.17641553207E+02 -0.39889042580E+02 -0.12600234926E+03  0.13333773710E+03  0.00000000000E+00 0.  1.
</event>
<event>
12    1  0.8407180E-002  0.2240364E+03  0.7818608E-02  0.1131077E+00
         21   -1    0    0  501  502  0.00000000000E+00  0.00000000000E+00  0.13161057052E+03  0.13161057052E+03  0.00000000000E+00 0.  1.
         21   -1    0    0  502  503 -0.00000000000E+00 -0.00000000000E+00 -0.43364091685E+03  0.43364091685E+03  0.00000000000E+00 0. -1.
         -6    2    1    2    0  503 -0.95107622743E+02 -0.10769023188E+03 -0.25032406526E+03  0.33532573262E+03  0.17070021487E+03 0.  0.
        -24    2    3    3    0    0 -0.34464058471E+02 -0.10682877471E+03 -0.23549833125E+03  0.27271362209E+03  0.79455001198E+02 0.  0.
          6    2    1    2  501    0  0.95107622743E+02  0.10769023188E+03 -0.51706281069E+02  0.22992575475E+03  0.17190016652E+03 0.  0.
         24    2    5    5    0    0  0.10335112407E+03  0.13535958239E+03 -0.24922893381E+02  0.19026484040E+03  0.81091845984E+02 0.  0.
          5    1    5    5  501    0 -0.82435013310E+01 -0.27669350506E+02 -0.26783387688E+02  0.39660914358E+02  0.47000000000E+01 0. -1.
        -11    1    6    6    0    0  0.25723971796E+02 -0.52338605267E+01  0.54674572466E+01  0.26814345223E+02  0.00000000000E+00 0.  1.
         12    1    6    6    0    0  0.77627152278E+02  0.14059344291E+03 -0.30390350627E+02  0.16345049517E+03  0.00000000000E+00 0. -1.
         -5    1    3    3    0  503 -0.60643564272E+02 -0.86145717247E+00 -0.14825734010E+02  0.62612110530E+02  0.47000000000E+01 0.  1.
         11    1    4    4    0    0 -0.44229717898E+02 -0.67356951242E+02 -0.20946981902E+03  0.22443447130E+03  0.00000000000E+00 0. -1.
        -12    1    4    4    0    0  0.97656594265E+01 -0.39471823467E+02 -0.26028512236E+02  0.48279150790E+02  0.00000000000E+00 0.  1.
</event>
<event>
12    1  0.8407180E-002  0.1981167E+03  0.7818608E-02  0.1151476E+00
         21   -1    0    0  501  502  0.00000000000E+00  0.00000000000E+00  0.70839928304E+02  0.70839928304E+02  0.00000000000E+00 0. -1.
         21   -1    0    0  502  503 -0.00000000000E+00 -0.00000000000E+00 -0.11016179833E+04  0.11016179833E+04  0.00000000000E+00 0. -1.
         -6    2    1    2    0  503 -0.25415716954E+02 -0.96200793969E+02 -0.92894576139E+03  0.94970237306E+03  0.17056910140E+03 0.  0.
        -24    2    3    3    0    0 -0.60554233039E+02 -0.58899323285E+02 -0.83050676613E+03  0.83862383860E+03  0.80078140999E+02 0.  0.
          6    2    1    2  501    0  0.25415716954E+02  0.96200793969E+02 -0.10183229361E+03  0.22275553856E+03  0.17131743200E+03 0.  0.
         24    2    5    5    0    0  0.60259198115E+02  0.19231615225E+02 -0.94031776784E+02  0.13777753718E+03  0.78355910583E+02 0.  0.
          5    1    5    5  501    0 -0.34843481162E+02  0.76969178744E+02 -0.78005168306E+01  0.84978001382E+02  0.47000000000E+01 0. -1.
        -13    1    6    6    0    0 -0.53833196837E+01 -0.20191191640E+02 -0.36286601932E+02  0.41873402422E+02  0.00000000000E+00 0.  1.
         14    1    6    6    0    0  0.65642517799E+02  0.39422806864E+02 -0.57745174852E+02  0.95904134753E+02  0.00000000000E+00 0. -1.
         -5    1    3    3    0  503  0.35138516085E+02 -0.37301470685E+02 -0.98438995260E+02  0.11107853445E+03  0.47000000000E+01 0.  1.
         11    1    4    4    0    0 -0.39647592604E+02 -0.67557094057E+02 -0.77084866946E+03  0.77481840696E+03  0.00000000000E+00 0. -1.
        -12    1    4    4    0    0 -0.20906640434E+02  0.86577707725E+01 -0.59658096674E+02  0.63805431648E+02  0.00000000000E+00 0.  1.
</event>
<event>
12    1  0.8407180E-002  0.2438046E+03  0.7818608E-02  0.1117670E+00
         21   -1    0    0  503  502  0.00000000000E+00  0.00000000000E+00  0.17570300849E+04  0.17570300849E+04  0.00000000000E+00 0.  1.
         21   -1    0    0  501  503 -0.00000000000E+00 -0.00000000000E+00 -0.60084683308E+02  0.60084683308E+02  0.00000000000E+00 0.  1.
          6    2    1    2  501    0  0.31405050819E+02 -0.16666985711E+03  0.24647418463E+03  0.34668461744E+03  0.17514445977E+03 0.  0.
         24    2    3    3    0    0 -0.38906532145E+01 -0.78223784083E+02  0.39717435437E+02  0.11900295832E+03  0.80312712776E+02 0.  0.
         -6    2    1    2    0  502 -0.31405050819E+02  0.16666985711E+03  0.14504712170E+04  0.14704301508E+04  0.17185155976E+03 0.  0.
        -24    2    5    5    0    0 -0.76157947835E+02  0.65759187991E+02  0.71796854064E+03  0.72964135108E+03  0.82300498395E+02 0.  0.
          5    1    3    3  501    0  0.35295704033E+02 -0.88446073030E+02  0.20675674920E+03  0.22768165911E+03  0.47000000000E+01 0. -1.
        -11    1    4    4    0    0 -0.33257186634E+02 -0.21350772113E+02  0.38219099688E+02  0.54978136687E+02  0.00000000000E+00 0.  1.
         12    1    4    4    0    0  0.29366533419E+02 -0.56873011970E+02  0.14983357495E+01  0.64024821637E+02  0.00000000000E+00 0. -1.
         -5    1    5    5    0  502  0.44752897017E+02  0.10091066912E+03  0.73250267634E+03  0.74078879972E+03  0.47000000000E+01 0.  1.
         13    1    6    6    0    0 -0.22490687643E+02  0.44992745350E+02  0.13902482923E+03  0.14784478789E+03  0.00000000000E+00 0. -1.
        -14    1    6    6    0    0 -0.53667260192E+02  0.20766442641E+02  0.57894371141E+03  0.58179656319E+03  0.00000000000E+00 0.  1.
</event>
<event>
12    1  0.8407180E-002  0.1777532E+03  0.7818608E-02  0.1170302E+00
         21   -1    0    0  501  502  0.00000000000E+00  0.00000000000E+00  0.20502913354E+02  0.20502913354E+02  0.00000000000E+00 0. -1.
         21   -1    0    0  502  503 -0.00000000000E+00 -0.00000000000E+00 -0.17833799201E+04  0.17833799201E+04  0.00000000000E+00 0. -1.
         -6    2    1    2    0  503  0.69298070167E+01 -0.45092798341E+02 -0.12185540514E+04  0.12312715588E+04  0.17051185501E+03 0.  0.
        -24    2    3    3    0    0  0.95392658517E+01  0.32336152584E+02 -0.87408207984E+03  0.87816381194E+03  0.77560131202E+02 0.  0.
          6    2    1    2  501    0 -0.69298070167E+01  0.45092798341E+02 -0.54432295537E+03  0.57261127466E+03  0.17179874688E+03 0.  0.
         24    2    5    5    0    0  0.24420406482E+02 -0.14258383751E+02 -0.16583236315E+03  0.18818622721E+03  0.84344683790E+02 0.  0.
          5    1    5    5  501    0 -0.31350213499E+02  0.59351182093E+02 -0.37849059223E+03  0.38442504745E+03  0.47000000000E+01 0. -1.
        -13    1    6    6    0    0 -0.21096853329E+02 -0.33458023577E+02 -0.72847957744E+02  0.82893555296E+02  0.00000000000E+00 0.  1.
         14    1    6    6    0    0  0.45517259811E+02  0.19199639826E+02 -0.92984405402E+02  0.10529267191E+03  0.00000000000E+00 0. -1.
         -5    1    3    3    0  503 -0.26094588349E+01 -0.77428950926E+02 -0.34447197152E+03  0.35310774684E+03  0.47000000000E+01 0.  1.
         13    1    4    4    0    0  0.37946972839E+02  0.21104444986E+02 -0.70560698860E+03  0.70694171804E+03  0.00000000000E+00 0. -1.
        -14    1    4    4    0    0 -0.28407706987E+02  0.11231707599E+02 -0.16847509124E+03  0.17122209390E+03  0.00000000000E+00 0.  1.
</event>
<event>
12    1  0.8407180E-002  0.1740049E+03  0.7818608E-02  0.1174263E+00
         21   -1    0    0  503  502  0.00000000000E+00  0.00000000000E+00  0.34201786702E+03  0.34201786702E+03  0.00000000000E+00 0. -1.
         21   -1    0    0  501  503 -0.00000000000E+00 -0.00000000000E+00 -0.65469127477E+03  0.65469127477E+03  0.00000000000E+00 0. -1.
          6    2    1    2  501    0  0.19408523374E+02  0.11180191468E+02 -0.62032986237E+03  0.64427232292E+03  0.17255723828E+03 0.  0.
         24    2    3    3    0    0 -0.34646621844E+02  0.22128083983E+02 -0.18643322819E+03  0.20685925245E+03  0.79645221098E+02 0.  0.
         -6    2    1    2    0  502 -0.19408523374E+02 -0.11180191468E+02  0.30765645461E+03  0.35243681886E+03  0.17046269317E+03 0.  0.
        -24    2    5    5    0    0  0.25872670532E+02 -0.89352689255E+01  0.29215999573E+03  0.30429477448E+03  0.80551924633E+02 0.  0.
          5    1    3    3  501    0  0.54055145217E+02 -0.10947892515E+02 -0.43389663417E+03  0.43741307048E+03  0.47000000000E+01 0. -1.
        -13    1    4    4    0    0  0.20488383138E+02 -0.10821980585E+02 -0.31204273435E+02  0.38866383778E+02  0.00000000000E+00 0.  1.
         14    1    4    4    0    0 -0.55135004981E+02  0.32950064568E+02 -0.15522895476E+03  0.16799286867E+03  0.00000000000E+00 0. -1.
         -5    1    5    5    0  502 -0.45281193906E+02 -0.22449225422E+01  0.15496458883E+02  0.48142044376E+02  0.47000000000E+01 0.  1.
         11    1    6    6    0    0  0.11290090426E+02  0.32465445484E+02  0.19030744782E+03  0.19338664894E+03  0.00000000000E+00 0. -1.
        -12    1    6    6    0    0  0.14582580106E+02 -0.41400714409E+02  0.10185254791E+03  0.11090812555E+03  0.00000000000E+00 0.  1.
</event>
<event>
12    1  0.8407180E-002  0.1991190E+03  0.7818608E-02  0.1152118E+00
         21   -1    0    0  503  502  0.00000000000E+00  0.00000000000E+00  0.13507888945E+04  0.13507888945E+04  0.00000000000E+00 0. -1.
         21   -1    0    0  501  503 -0.00000000000E+00 -0.00000000000E+00 -0.48985450032E+02  0.48985450032E+02  0.00000000000E+00 0. -1.
          6    2    1    2  501    0 -0.10089908200E+02  0.89532002899E+02  0.20284935481E+03  0.28424679792E+03  0.17756856588E+03 0.  0.
         24    2    3    3    0    0 -0.57368919889E+02  0.19048253175E+02  0.16106862032E+03  0.18953152093E+03  0.79530296457E+02 0.  0.
         -6    2    1    2    0  502  0.10089908200E+02 -0.89532002899E+02  0.10989540896E+04  0.11155275466E+04  0.16906753174E+03 0.  0.
        -24    2    5    5    0    0  0.13695012051E+02 -0.82875955305E+02  0.11004228455E+04  0.11064972095E+04  0.79684743885E+02 0.  0.
          5    1    3    3  501    0  0.47279011688E+02  0.70483749724E+02  0.41780734492E+02  0.94715276995E+02  0.47000000000E+01 0. -1.
        -13    1    4    4    0    0 -0.52474147185E+02  0.42929165128E+02  0.79932778651E+02  0.10481268265E+03  0.00000000000E+00 0.  1.
         14    1    4    4    0    0 -0.48947727035E+01 -0.23880911953E+02  0.81135841670E+02  0.84718838277E+02  0.00000000000E+00 0. -1.
         -5    1    5    5    0  502 -0.36051038504E+01 -0.66560475941E+01 -0.14687559066E+01  0.90303370513E+01  0.47000000000E+01 0.  1.
         11    1    6    6    0    0 -0.54266459179E+01 -0.20251198630E+02  0.73204650845E+03  0.73234667341E+03  0.00000000000E+00 0. -1.
        -12    1    6    6    0    0  0.19121657969E+02 -0.62624756675E+02  0.36837633710E+03  0.37415053613E+03  0.00000000000E+00 0.  1.
</event>
<event>
12    1  0.8407180E-002  0.1752004E+03  0.7818608E-02  0.1173768E+00
         21   -1    0    0  501  502  0.00000000000E+00  0.00000000000E+00  0.39889288694E+02  0.39889288694E+02  0.00000000000E+00 0.  1.
         21   -1    0    0  502  503 -0.00000000000E+00 -0.00000000000E+00 -0.86009781333E+03  0.86009781333E+03  0.00000000000E+00 0.  1.
         -6    2    1    2    0  503  0.27747643267E+02 -0.57449759811E+00 -0.56730294094E+03  0.59232429846E+03  0.16806304172E+03 0.  0.
        -24    2    3    3    0    0  0.36994596682E+02  0.56790373926E+02 -0.27088054795E+03  0.29022405070E+03  0.79120045443E+02 0.  0.
          6    2    1    2  501    0 -0.27747643267E+02  0.57449759811E+00 -0.25290558370E+03  0.30766280357E+03  0.17298816341E+03 0.  0.
         24    2    5    5    0    0 -0.22159942044E+02 -0.48572546107E+02 -0.83035885470E+02  0.13067563260E+03  0.85620134393E+02 0.  0.
          5    1    5    5  501    0 -0.55877012228E+01  0.49147043706E+02 -0.16986969823E+03  0.17698717096E+03  0.47000000000E+01 0. -1.
        -13    1    6    6    0    0 -0.52333256299E+02 -0.27193105364E+02 -0.30407098945E+02  0.66353796880E+02  0.00000000000E+00 0.  1.
         14    1    6    6    0    0  0.30173314255E+02 -0.21379440744E+02 -0.52628786525E+02  0.64321835722E+02  0.00000000000E+00 0. -1.
         -5    1    3    3    0  503 -0.92469534147E+01 -0.57364871524E+02 -0.29642239299E+03  0.30210024776E+03  0.47000000000E+01 0.  1.
         11    1    4    4    0    0  0.48366581513E+02  0.23519820221E+01 -0.13371506422E+03  0.14221313731E+03  0.00000000000E+00 0. -1.
        -12    1    4    4    0    0 -0.11371984832E+02  0.54438391904E+02 -0.13716548373E+03  0.14801091338E+03  0.00000000000E+00 0.  1.
</event>
<event>
12    1  0.8407180E-002  0.2416751E+03  0.7818608E-02  0.1118712E+00
         21   -1    0    0  501  502  0.00000000000E+00  0.00000000000E+00  0.92135085636E+03  0.92135085636E+03  0.00000000000E+00 0.  1.
         21   -1    0    0  502  503 -0.00000000000E+00 -0.00000000000E+00 -0.64152971919E+02  0.64152971919E+02  0.00000000000E+00 0. -1.
         -6    2    1    2    0  503 -0.97606711394E+02 -0.14123963204E+03  0.37315512752E+03  0.44448236372E+03  0.16983556370E+03 0.  0.
        -24    2    3    3    0    0  0.11078806268E+02 -0.59403177368E+02  0.13179788219E+03  0.16738101595E+03  0.83631604801E+02 0.  0.
          6    2    1    2  501    0  0.97606711394E+02  0.14123963204E+03  0.48404275692E+03  0.54102146455E+03  0.17009153657E+03 0.  0.
         24    2    5    5    0    0  0.16127197422E+02  0.12579443767E+03  0.23464885364E+03  0.27815862158E+03  0.78916457073E+02 0.  0.
          5    1    5    5  501    0  0.81479513972E+02  0.15445194373E+02  0.24939390328E+03  0.26286284298E+03  0.47000000000E+01 0. -1.
        -13    1    6    6    0    0  0.43145984221E+01 -0.11067624712E+02  0.21894591772E+02  0.24909460556E+02  0.00000000000E+00 0.  1.
         14    1    6    6    0    0  0.11812599000E+02  0.13686206238E+03  0.21275426187E+03  0.25324916102E+03  0.00000000000E+00 0. -1.
         -5    1    3    3    0  503 -0.10868551766E+03 -0.81836454674E+02  0.24135724533E+03  0.27710134777E+03  0.47000000000E+01 0.  1.
         13    1    4    4    0    0  0.51428080917E+01 -0.64241262684E+02  0.41266977833E+02  0.76526804230E+02  0.00000000000E+00 0. -1.
        -14    1    4    4    0    0  0.59359981768E+01  0.48380853156E+01  0.90530904357E+02  0.90854211722E+02  0.00000000000E+00 0.  1.
</event>
<event>
12    1  0.8407180E-002  0.1945028E+03  0.7818608E-02  0.1154719E+00
         21   -1    0    0  501  502  0.00000000000E+00  0.00000000000E+00  0.66157535118E+02  0.66157535118E+02  0.00000000000E+00 0.  1.
         21   -1    0    0  502  503 -0.00000000000E+00 -0.00000000000E+00 -0.16962996298E+04  0.16962996298E+04  0.00000000000E+00 0.  1.
         -6    2    1    2    0  503  0.15598497124E+02  0.88244927674E+02 -0.15328215433E+04  0.15449654836E+04  0.17130668814E+03 0.  0.
        -24    2    3    3    0    0 -0.49829240616E+02  0.72440924970E+02 -0.75712538535E+03  0.76634030105E+03  0.79422711151E+02 0.  0.
          6    2    1    2  501    0 -0.15598497124E+02 -0.88244927674E+02 -0.97320551326E+02  0.21749168131E+03  0.17262925985E+03 0.  0.
         24    2    5    5    0    0  0.46415674527E+02 -0.15603034179E+02 -0.23556100453E+02  0.96719638232E+02  0.80012055553E+02 0.  0.
          5    1    5    5  501    0 -0.62014171650E+02 -0.72641893495E+02 -0.73764450873E+02  0.12077204308E+03  0.47000000000E+01 0. -1.
        -11    1    6    6    0    0 -0.61301910905E+01 -0.35935795872E+02 -0.23923937119E+01  0.36533330199E+02  0.00000000000E+00 0.  1.
         12    1    6    6    0    0  0.52545865617E+02  0.20332761694E+02 -0.21163706741E+02  0.60186308032E+02  0.00000000000E+00 0. -1.
         -5    1    3    3    0  503  0.65427737740E+02  0.15804002704E+02 -0.77569615798E+03  0.77862518254E+03  0.47000000000E+01 0.  1.
         13    1    4    4    0    0 -0.38136595879E+02  0.73834177194E+00 -0.40538741912E+03  0.40717797666E+03  0.00000000000E+00 0. -1.
        -14    1    4    4    0    0 -0.11692644737E+02  0.71702583198E+02 -0.35173796623E+03  0.35916232440E+03  0.00000000000E+00 0.  1.
</event>
<event>
12    1  0.8407180E-002  0.1851062E+03  0.7818608E-02  0.1163947E+00
         21   -1    0    0  503  502  0.00000000000E+00  0.00000000000E+00  0.91634449060E+03  0.91634449060E+03  0.00000000000E+00 0. -1.
         21   -1    0    0  501  503 -0.00000000000E+00 -0.00000000000E+00 -0.40786779129E+02  0.40786779129E+02  0.00000000000E+00 0. -1.
          6    2    1    2  501    0  0.63006233013E+02  0.10943768041E+02  0.59661988852E+03  0.62467557900E+03  0.17370876827E+03 0.  0.
         24    2    3    3    0    0  0.21120955541E+02 -0.54551710425E+02  0.23066683340E+03  0.25052619344E+03  0.78321144631E+02 0.  0.
         -6    2    1    2    0  502 -0.63006233013E+02 -0.10943768041E+02  0.27893782296E+03  0.33245569073E+03  0.16920675449E+03 0.  0.
        -24    2    5    5    0    0 -0.81337540628E+02 -0.53462524807E+02  0.24177181724E+03  0.27289661504E+03  0.80900641618E+02 0.  0.
          5    1    3    3  501    0  0.41885277472E+02  0.65495478466E+02  0.36595305512E+03  0.37414938556E+03  0.47000000000E+01 0. -1.
        -13    1    4    4    0    0  0.44635571687E+02 -0.16638849685E+02  0.16012786843E+03  0.16706322104E+03  0.00000000000E+00 0.  1.
         14    1    4    4    0    0 -0.23514616146E+02 -0.37912860740E+02  0.70538964973E+02  0.83462972397E+02  0.00000000000E+00 0. -1.
         -5    1    5    5    0  502  0.18331307615E+02  0.42518756766E+02  0.37166005717E+02  0.59559075688E+02  0.47000000000E+01 0.  1.
         11    1    6    6    0    0  0.42531812348E+01 -0.36868846152E+02  0.50300483750E+02  0.62510319409E+02  0.00000000000E+00 0. -1.
        -12    1    6    6    0    0 -0.85590721863E+02 -0.16593678655E+02  0.19147133349E+03  0.21038629563E+03  0.00000000000E+00 0.  1.
</event>
<event>
12    1  0.8407180E-002  0.2003666E+03  0.7818608E-02  0.1153304E+00
         21   -1    0    0  501  502  0.00000000000E+00  0.00000000000E+00  0.93779785842E+03  0.93779785842E+03  0.00000000000E+00 0. -1.
         21   -1    0    0  502  503 -0.00000000000E+00 -0.00000000000E+00 -0.58233498863E+02  0.58233498863E+02  0.00000000000E+00 0. -1.
         -6    2    1    2    0  503  0.58754529347E+02 -0.28006841068E+02  0.14133666115E+03  0.23109547069E+03  0.17085838265E+03 0.  0.
        -24    2    3    3    0    0  0.55671493131E+02 -0.39294742026E+02  0.17662737889E+02  0.10678034242E+03  0.80291203252E+02 0.  0.
          6    2    1    2  501    0 -0.58754529347E+02  0.28006841068E+02  0.73822769840E+03  0.76493588659E+03  0.18950012676E+03 0.  0.
         24    2    5    5    0    0  0.79577516120E+01 -0.37590362423E+02  0.51900379250E+03  0.52653552489E+03  0.79989756801E+02 0.  0.
          5    1    5    5  501    0 -0.66712280959E+02  0.65597203492E+02  0.21922390591E+03  0.23840036170E+03  0.47000000000E+01 0. -1.
        -11    1    6    6    0    0  0.85650460048E+00  0.15110846898E+02  0.22049714496E+02  0.26744367697E+02  0.00000000000E+00 0.  1.
         12    1    6    6    0    0  0.71012470115E+01 -0.52701209322E+02  0.49695407800E+03  0.49979115720E+03  0.00000000000E+00 0. -1.
         -5    1    3    3    0  503  0.30830362157E+01  0.11287900958E+02  0.12367392326E+03  0.12431512827E+03  0.47000000000E+01 0.  1.
         13    1    4    4    0    0 -0.37976988229E+01  0.32833228261E+01 -0.22695660338E+02  0.23244262159E+02  0.00000000000E+00 0. -1.
        -14    1    4    4    0    0  0.59469191954E+02 -0.42578064852E+02  0.40358398227E+02  0.83536080263E+02  0.00000000000E+00 0.  1.
</event>
<event>
12    1  0.8407180E-002  0.1807035E+03  0.7818608E-02  0.1167456E+00
         21   -1    0    0  501  502  0.00000000000E+00  0.00000000000E+00  0.21655623375E+02  0.21655623375E+02  0.00000000000E+00 0. -1.
         21   -1    0    0  502  503 -0.00000000000E+00 -0.00000000000E+00 -0.15903569731E+04  0.15903569731E+04  0.00000000000E+00 0. -1.
         -6    2    1    2    0  503  0.43723458168E+02 -0.21284680359E+02 -0.97742769203E+03  0.99374218747E+03  0.17260899050E+03 0.  0.
        -24    2    3    3    0    0  0.10109256458E+01 -0.66224195414E+02 -0.40819221774E+03  0.42112099014E+03  0.79594821948E+02 0.  0.
          6    2    1    2  501    0 -0.43723458168E+02  0.21284680359E+02 -0.59127365773E+03  0.61827040904E+03  0.17403730047E+03 0.  0.
         24    2    5    5    0    0 -0.59379189450E+02 -0.35817385304E+02 -0.24407260916E+03  0.26602559934E+03  0.79933770939E+02 0.  0.
          5    1    5    5  501    0  0.15655731282E+02  0.57102065663E+02 -0.34720104858E+03  0.35224480970E+03  0.47000000000E+01 0. -1.
        -11    1    6    6    0    0  0.50521227791E+01 -0.26713333353E+02 -0.14477948179E+03  0.14730996053E+03  0.00000000000E+00 0.  1.
         12    1    6    6    0    0 -0.64431312229E+02 -0.91040519506E+01 -0.99293127366E+02  0.11871563882E+03  0.00000000000E+00 0. -1.
         -5    1    3    3    0  503  0.42712532522E+02  0.44939515055E+02 -0.56923547429E+03  0.57262119733E+03  0.47000000000E+01 0.  1.
         13    1    4    4    0    0  0.37555244388E+01 -0.23711785780E+02 -0.21927381293E+02  0.32514040030E+02  0.00000000000E+00 0. -1.
        -14    1    4    4    0    0 -0.27445987930E+01 -0.42512409634E+02 -0.38626483645E+03  0.38860695011E+03  0.00000000000E+00 0.  1.
</event>
<event>
12    1  0.8407180E-002  0.1871867E+03  0.7818608E-02  0.1161345E+00
         21   -1    0    0  501  502  0.00000000000E+00  0.00000000000E+00  0.46846156299E+03  0.46846156299E+03  0.00000000000E+00 0.  1.
         21   -1    0    0  502  503 -0.00000000000E+00 -0.00000000000E+00 -0.32991627421E+03  0.32991627421E+03  0.00000000000E+00 0.  1.
         -6    2    1    2    0  503  0.34512213809E+02 -0.65224207116E+02 -0.28208490035E+03  0.33854210679E+03  0.17202783778E+03 0.  0.
        -24    2    3    3    0    0 -0.19189164920E+01 -0.85486462155E+02 -0.27063331698E+03  0.29505630456E+03  0.80648702096E+02 0.  0.
          6    2    1    2  501    0 -0.34512213809E+02  0.65224207116E+02  0.42063018913E+03  0.45983573041E+03  0.17051056524E+03 0.  0.
         24    2    5    5    0    0  0.19637518591E+02  0.92858881015E+02  0.30688875016E+03  0.33078119287E+03  0.78911904451E+02 0.  0.
          5    1    5    5  501    0 -0.54149732400E+02 -0.27634673899E+02  0.11374143897E+03  0.12905453754E+03  0.47000000000E+01 0. -1.
        -13    1    6    6    0    0 -0.19278140259E+02  0.23735305293E+02  0.16865087757E+03  0.17140049566E+03  0.00000000000E+00 0.  1.
         14    1    6    6    0    0  0.38915658850E+02  0.69123575721E+02  0.13823787259E+03  0.15938069721E+03  0.00000000000E+00 0. -1.
         -5    1    3    3    0  503  0.36431130301E+02  0.20262255039E+02 -0.11451583370E+02  0.43485802234E+02  0.47000000000E+01 0.  1.
         11    1    4    4    0    0  0.10598777788E+02 -0.23642793752E+02 -0.11492318502E+02  0.28344120581E+02  0.00000000000E+00 0. -1.
        -12    1    4    4    0    0 -0.12517694280E+02 -0.61843668403E+02 -0.25914099847E+03  0.26671218398E+03  0.00000000000E+00 0.  1.
</event>
<event>
12    1  0.8407180E-002  0.2415747E+03  0.7818608E-02  0.1118793E+00
         21   -1    0    0  503  502  0.00000000000E+00  0.00000000000E+00  0.20787539994E+03  0.20787539994E+03  0.00000000000E+00 0. -1.
         21   -1    0    0  501  503 -0.00000000000E+00 -0.00000000000E+00 -0.28815591130E+03  0.28815591130E+03  0.00000000000E+00 0.  1.
          6    2    1    2  501    0 -0.14124523581E+03 -0.94051591420E+02 -0.80793550573E+02  0.25472713846E+03  0.17193719425E+03 0.  0.
         24    2    3    3    0    0 -0.12779417960E+03 -0.43812360094E+02 -0.11332553271E+03  0.19320209365E+03  0.78952500825E+02 0.  0.
         -6    2    1    2    0  502  0.14124523581E+03  0.94051591420E+02  0.51303921904E+00  0.24130417278E+03  0.17155617769E+03 0.  0.
        -24    2    5    5    0    0  0.10766454315E+03  0.71816249912E+02 -0.64392460126E+02  0.16477387044E+03  0.79087368490E+02 0.  0.
          5    1    3    3  501    0 -0.13451056207E+02 -0.50239231326E+02  0.32531982139E+02  0.61525044813E+02  0.47000000000E+01 0. -1.
        -13    1    4    4    0    0 -0.86497840580E+02 -0.36331325265E+02 -0.11824888248E+03  0.15094581752E+03  0.00000000000E+00 0.  1.
         14    1    4    4    0    0 -0.41296339025E+02 -0.74810348290E+01  0.49233497635E+01  0.42256276124E+02  0.00000000000E+00 0. -1.
         -5    1    5    5    0  502  0.33580692659E+02  0.22235341508E+02  0.64905499345E+02  0.76530302343E+02  0.47000000000E+01 0.  1.
         13    1    6    6    0    0  0.10833298930E+03  0.78765630204E+02 -0.40570686816E+02  0.13995014005E+03  0.00000000000E+00 0. -1.
        -14    1    6    6    0    0 -0.66844614582E+00 -0.69493802920E+01 -0.23821773310E+02  0.24823730387E+02  0.00000000000E+00 0.  1.
</event>
<event>
12    1  0.8407180E-002  0.2444183E+03  0.7818608E-02  0.1116917E+00
         21   -1    0    0  501  502  0.00000000000E+00  0.00000000000E+00  0.66657976559E+03  0.66657976559E+03  0.00000000000E+00 0. -1.
         21   -1    0    0  502  503 -0.00000000000E+00 -0.00000000000E+00 -0.89810599340E+02  0.89810599340E+02  0.00000000000E+00 0.  1.
         -6    2    1    2    0  503 -0.17275971290E+03 -0.22100167802E+02  0.30874913774E+03  0.39365760742E+03  0.17118979527E+03 0.  0.
        -24    2    3    3    0    0 -0.76027734739E+02  0.26866289606E+02  0.11969050178E+03  0.17566667325E+03  0.10015462998E+03 0.  0.
          6    2    1    2  501    0  0.17275971290E+03  0.22100167802E+02  0.26802002852E+03  0.36273275752E+03  0.17148172460E+03 0.  0.
         24    2    5    5    0    0  0.67736557837E+02  0.63079652195E+02  0.95819085597E+02  0.15685795094E+03  0.82799974757E+02 0.  0.
          5    1    5    5  501    0  0.10502315507E+03 -0.40979484393E+02  0.17220094292E+03  0.20587480658E+03  0.47000000000E+01 0. -1.
        -11    1    6    6    0    0  0.51906868047E+02  0.86018620438E+01  0.93489241283E+01  0.53438912446E+02  0.00000000000E+00 0.  1.
         12    1    6    6    0    0  0.15829689790E+02  0.54477790151E+02  0.86470161468E+02  0.10341903849E+03  0.00000000000E+00 0. -1.
         -5    1    3    3    0  503 -0.96731978164E+02 -0.48966457408E+02  0.18905863596E+03  0.21799093417E+03  0.47000000000E+01 0.  1.
         13    1    4    4    0    0  0.68502970909E+01  0.26092193550E+02  0.78715159062E+02  0.83209406924E+02  0.00000000000E+00 0. -1.
        -14    1    4    4    0    0 -0.82878031830E+02  0.77409605576E+00  0.40975342719E+02  0.92457266322E+02  0.00000000000E+00 0.  1.
</event>
<event>
12    1  0.8407180E-002  0.2277208E+03  0.7818608E-02  0.1128447E+00
         21   -1    0    0  503  502  0.00000000000E+00  0.00000000000E+00  0.77873739906E+02  0.77873739906E+02  0.00000000000E+00 0.  1.
         21   -1    0    0  501  503 -0.00000000000E+00 -0.00000000000E+00 -0.77720938768E+03  0.77720938768E+03  0.00000000000E+00 0.  1.
          6    2    1    2  501    0 -0.14627135532E+03 -0.13640278657E+02 -0.51444219128E+03  0.56259003320E+03  0.17399830658E+03 0.  0.
         24    2    3    3    0    0 -0.30472689614E+02 -0.34901635462E+02 -0.12246565706E+03  0.15328688191E+03  0.79701455670E+02 0.  0.
         -6    2    1    2    0  502  0.14627135532E+03  0.13640278657E+02 -0.18489345649E+03  0.29249309439E+03  0.17258404741E+03 0.  0.
        -24    2    5    5    0    0  0.42653049349E+02 -0.40474857225E+02 -0.12141985776E+03  0.15939091935E+03  0.84883370726E+02 0.  0.
          5    1    3    3  501    0 -0.11579866571E+03  0.21261356805E+02 -0.39197653422E+03  0.40930315129E+03  0.47000000000E+01 0. -1.
        -13    1    4    4    0    0 -0.55895573405E+02 -0.12134208669E+02 -0.86555196920E+02  0.10374659638E+03  0.00000000000E+00 0.  1.
         14    1    4    4    0    0  0.25422883790E+02 -0.22767426793E+02 -0.35910460138E+02  0.49540285529E+02  0.00000000000E+00 0. -1.
         -5    1    5    5    0  502  0.10361830597E+03  0.54115135882E+02 -0.63473598732E+02  0.13310217504E+03  0.47000000000E+01 0.  1.
         11    1    6    6    0    0 -0.25138687071E+02 -0.54714117283E+01 -0.42062487362E+02  0.49306620012E+02  0.00000000000E+00 0. -1.
        -12    1    6    6    0    0  0.67791736421E+02 -0.35003445496E+02 -0.79357370398E+02  0.11008429933E+03  0.00000000000E+00 0.  1.
</event>
<event>
12    1  0.8407180E-002  0.2260225E+03  0.7818608E-02  0.1133192E+00
         21   -1    0    0  503  502  0.00000000000E+00  0.00000000000E+00  0.28607971113E+02  0.28607971113E+02  0.00000000000E+00 0. -1.
         21   -1    0    0  501  503 -0.00000000000E+00 -0.00000000000E+00 -0.16468884653E+04  0.16468884653E+04  0.00000000000E+00 0.  1.
          6    2    1    2  501    0 -0.11583189682E+03  0.48597977630E+01 -0.77028643533E+03  0.80276232064E+03  0.19402449598E+03 0.  0.
         24    2    3    3    0    0 -0.10642619333E+03  0.69200305686E+02 -0.63566494655E+03  0.65318557293E+03  0.80413005601E+02 0.  0.
         -6    2    1    2    0  502  0.11583189682E+03 -0.48597977630E+01 -0.84799405888E+03  0.87273411579E+03  0.17067591222E+03 0.  0.
        -24    2    5    5    0    0  0.53580291297E+02  0.49338636556E+02 -0.34914468030E+03  0.36708055338E+03  0.86838794397E+02 0.  0.
          5    1    3    3  501    0 -0.94057034901E+01 -0.64340507923E+02 -0.13462148877E+03  0.14957674772E+03  0.47000000000E+01 0. -1.
        -11    1    4    4    0    0 -0.19941077077E+02  0.59095630246E+02 -0.23208812791E+03  0.24032236514E+03  0.00000000000E+00 0.  1.
         12    1    4    4    0    0 -0.86485116252E+02  0.10104675440E+02 -0.40357681865E+03  0.41286320779E+03  0.00000000000E+00 0. -1.
         -5    1    5    5    0  502  0.62251605522E+02 -0.54198434319E+02 -0.49884937858E+03  0.50565356241E+03  0.47000000000E+01 0.  1.
         13    1    6    6    0    0  0.17097920695E+02  0.63852146540E+02 -0.27871104521E+03  0.28644245885E+03  0.00000000000E+00 0. -1.
        -14    1    6    6    0    0  0.36482370601E+02 -0.14513509985E+02 -0.70433635090E+02  0.80638094526E+02  0.00000000000E+00 0.  1.
</event>
<event>
12    1  0.8407180E-002  0.1761982E+03  0.7818608E-02  0.1172453E+00
         21   -1    0    0  501  502  0.00000000000E+00  0.00000000000E+00  0.12967202876E+03  0.12967202876E+03  0.00000000000E+00 0. -1.
         21   -1    0    0  502  503 -0.00000000000E+00 -0.00000000000E+00 -0.23650043552E+03  0.23650043552E+03  0.00000000000E+00 0. -1.
         -6    2    1    2    0  503  0.10824127333E+02 -0.33931188380E+01 -0.69773177644E+02  0.18611995130E+03  0.17217335730E+03 0.  0.
        -24    2    3    3    0    0 -0.39295877838E+02  0.40559008242E+02 -0.68254455996E+02  0.11927534861E+03  0.79867007319E+02 0.  0.
          6    2    1    2  501    0 -0.10824127333E+02  0.33931188380E+01 -0.37055229115E+02  0.18005251298E+03  0.17583271151E+03 0.  0.
         24    2    5    5    0    0  0.38818826943E+02 -0.43631464983E+02 -0.48896330832E+02  0.11049652055E+03  0.80050133188E+02 0.  0.
          5    1    5    5  501    0 -0.49642954276E+02  0.47024583821E+02  0.11841101717E+02  0.69555992429E+02  0.47000000000E+01 0. -1.
        -11    1    6    6    0    0  0.59887772268E+02 -0.13639574012E+02 -0.38133954317E+02  0.72296484827E+02  0.00000000000E+00 0.  1.
         12    1    6    6    0    0 -0.21068945325E+02 -0.29991890971E+02 -0.10762376515E+02  0.38200035725E+02  0.00000000000E+00 0. -1.
         -5    1    3    3    0  503  0.50120005171E+02 -0.43952127080E+02 -0.15187216484E+01  0.66844602689E+02  0.47000000000E+01 0.  1.
         11    1    4    4    0    0  0.24509444281E+02  0.66103711964E+01 -0.20748035532E+02  0.32785527977E+02  0.00000000000E+00 0. -1.
        -12    1    4    4    0    0 -0.63805322118E+02  0.33948637045E+02 -0.47506420464E+02  0.86489820633E+02  0.00000000000E+00 0.  1.
</event>
<event>
12    1  0.8407180E-002  0.2010657E+03  0.7818608E-02  0.1149702E+00
         21   -1    0    0  503  502  0.00000000000E+00  0.00000000000E+00  0.59901498451E+02  0.59901498451E+02  0.00000000000E+00 0.  1.
         21   -1    0    0  501  503 -0.00000000000E+00 -0.00000000000E+00 -0.73926667771E+03  0.73926667771E+03  0.00000000000E+00 0.  1.
          6    2    1    2  501    0 -0.22851503916E+02  0.99915265062E+02 -0.47249290179E+03  0.51349483653E+03  0.17298021122E+03 0.  0.
         24    2    3    3    0    0 -0.60783207110E+01 -0.84197416852E+01 -0.14778984636E+03  0.17075298386E+03  0.84893490788E+02 0.  0.
         -6    2    1    2    0  502  0.22851503916E+02 -0.99915265062E+02 -0.20687227747E+03  0.28567333964E+03  0.16824941715E+03 0.  0.
        -24    2    5    5    0    0  0.10744030341E+01 -0.10107310500E+03 -0.21797614340E+03  0.26075409899E+03  0.10130238966E+03 0.  0.
          5    1    3    3  501    0 -0.16773183205E+02  0.10833500675E+03 -0.32470305543E+03  0.34274185267E+03  0.47000000000E+01 0. -1.
        -13    1    4    4    0    0 -0.43306485257E+02  0.70907884648E+00 -0.52613597512E+02  0.68147964763E+02  0.00000000000E+00 0.  1.
         14    1    4    4    0    0  0.37228164546E+02 -0.91288205316E+01 -0.95176248845E+02  0.10260501910E+03  0.00000000000E+00 0. -1.
         -5    1    5    5    0  502  0.21777100882E+02  0.11578399399E+01  0.11103865926E+02  0.24919240651E+02  0.47000000000E+01 0.  1.
         13    1    6    6    0    0 -0.40507467257E+02 -0.59027296966E+02 -0.17049904554E+03  0.18491890444E+03  0.00000000000E+00 0. -1.
        -14    1    6    6    0    0  0.41581870291E+02 -0.42045808036E+02 -0.47477097858E+02  0.75835194543E+02  0.00000000000E+00 0.  1.
</event>
<event>
12    1  0.8407180E-002  0.2774851E+03  0.7818608E-02  0.1097126E+00
         21   -1    0    0  503  502  0.00000000000E+00  0.00000000000E+00  0.15492076470E+03  0.15492076470E+03  0.00000000000E+00 0.  1.
         21   -1    0    0  501  503 -0.00000000000E+00 -0.00000000000E+00 -0.49726090334E+03  0.49726090334E+03  0.00000000000E+00 0.  1.
          6    2    1    2  501    0 -0.69035237119E+02 -0.20640785956E+03 -0.18570172464E+03  0.33389085595E+03  0.17212758262E+03 0.  0.
         24    2    3    3    0    0 -0.11200525255E+02 -0.27332352157E+02 -0.90484517044E+02  0.12293754863E+03  0.77805422672E+02 0.  0.
         -6    2    1    2    0  502  0.69035237119E+02  0.20640785956E+03 -0.15663841400E+03  0.31829081208E+03  0.17147413760E+03 0.  0.
        -24    2    5    5    0    0 -0.17558745423E+02  0.90618012320E+02 -0.26718629724E+02  0.12385046935E+03  0.78135266596E+02 0.  0.
          5    1    3    3  501    0 -0.57834711864E+02 -0.17907550740E+03 -0.95217207595E+02  0.21095330732E+03  0.47000000000E+01 0. -1.
        -13    1    4    4    0    0  0.17792635240E+01 -0.50744987251E+02 -0.78768699621E+02  0.93716207508E+02  0.00000000000E+00 0.  1.
         14    1    4    4    0    0 -0.12979788779E+02  0.23412635094E+02 -0.11715817423E+02  0.29221341118E+02  0.00000000000E+00 0. -1.
         -5    1    5    5    0  502  0.86593982542E+02  0.11578984724E+03 -0.12991978428E+03  0.19444034273E+03  0.47000000000E+01 0.  1.
         13    1    6    6    0    0 -0.32974090301E+02  0.62016799467E+01 -0.16629266879E+02  0.37447082427E+02  0.00000000000E+00 0. -1.
        -14    1    6    6    0    0  0.15415344878E+02  0.84416332373E+02 -0.10089362845E+02  0.86403386923E+02  0.00000000000E+00 0.  1.
</event>
<event>
12    1  0.8407180E-002  0.1768500E+03  0.7818608E-02  0.1171114E+00
         21   -1    0    0  503  502  0.00000000000E+00  0.00000000000E+00  0.22334874645E+03  0.22334874645E+03  0.00000000000E+00 0.  1.
         21   -1    0    0  501  503 -0.00000000000E+00 -0.00000000000E+00 -0.22103008861E+03  0.22103008861E+03  0.00000000000E+00 0.  1.
          6    2    1    2  501    0 -0.34767238010E+02 -0.13923055766E+02 -0.13394284460E+03  0.22184813921E+03  0.17283893928E+03 0.  0.
         24    2    3    3    0    0 -0.38649741995E+02  0.46804638491E+02 -0.34894269090E+02  0.10550538268E+03  0.78925908408E+02 0.  0.
         -6    2    1    2    0  502  0.34767238010E+02  0.13923055766E+02  0.13626150244E+03  0.22253069585E+03  0.17190142881E+03 0.  0.
        -24    2    5    5    0    0  0.88921589776E+02  0.53651740365E+01  0.10656325623E+03  0.16000064721E+03  0.79426980988E+02 0.  0.
          5    1    3    3  501    0  0.38825039853E+01 -0.60727694257E+02 -0.99048575506E+02  0.11634275653E+03  0.47000000000E+01 0. -1.
        -13    1    4    4    0    0  0.62961001168E+01  0.41753879270E+02 -0.42191071027E+02  0.59691823437E+02  0.00000000000E+00 0.  1.
         14    1    4    4    0    0 -0.44945842112E+02  0.50507592205E+01  0.72968019363E+01  0.45813559241E+02  0.00000000000E+00 0. -1.
         -5    1    5    5    0  502 -0.54154351766E+02  0.85578817295E+01  0.29698246214E+02  0.62530048642E+02  0.47000000000E+01 0.  1.
         11    1    6    6    0    0 -0.12926719536E+02 -0.12972730256E+01  0.79443109024E+00  0.13015917794E+02  0.00000000000E+00 0. -1.
        -12    1    6    6    0    0  0.10184830931E+03  0.66624470621E+01  0.10576882514E+03  0.14698472942E+03  0.00000000000E+00 0.  1.
</event>
<event>
12    1  0.8407180E-002  0.1787912E+03  0.7818608E-02  0.1169506E+00
         21   -1    0    0  503  502  0.00000000000E+00  0.00000000000E+00  0.45855950797E+03  0.45855950797E+03  0.00000000000E+00 0. -1.
         21   -1    0    0  501  503 -0.00000000000E+00 -0.00000000000E+00 -0.18922905964E+03  0.18922905964E+03  0.00000000000E+00 0. -1.
          6    2    1    2  501    0 -0.36319959882E+02 -0.17124660429E+02 -0.12334613010E+03  0.21721084328E+03  0.17422367562E+03 0.  0.
         24    2    3    3    0    0  0.28286084954E+02 -0.40264007720E+02 -0.24832300024E+02  0.97059126108E+02  0.79890787433E+02 0.  0.
         -6    2    1    2    0  502  0.36319959882E+02  0.17124660429E+02  0.39267657842E+03  0.43057772434E+03  0.17201711535E+03 0.  0.
        -24    2    5    5    0    0  0.75564213536E+02  0.13807552513E+02  0.36614603175E+03  0.38285902196E+03  0.81348111581E+02 0.  0.
          5    1    3    3  501    0 -0.64606044837E+02  0.23139347290E+02 -0.98513830073E+02  0.12015171717E+03  0.47000000000E+01 0. -1.
        -11    1    4    4    0    0  0.79658745194E+01  0.60288197546E+01 -0.42381958586E+02  0.43543452298E+02  0.00000000000E+00 0.  1.
         12    1    4    4    0    0  0.20320210435E+02 -0.46292827474E+02  0.17549658562E+02  0.53515673810E+02  0.00000000000E+00 0. -1.
         -5    1    5    5    0  502 -0.39244253653E+02  0.33171079168E+01  0.26530546675E+02  0.47718702378E+02  0.47000000000E+01 0.  1.
         13    1    6    6    0    0  0.58535357806E+02  0.32702351749E+02  0.33935800504E+03  0.34591861400E+03  0.00000000000E+00 0. -1.
        -14    1    6    6    0    0  0.17028855730E+02 -0.18894799236E+02  0.26788026703E+02  0.36940407961E+02  0.00000000000E+00 0.  1.
</event>
<event>
12    1  0.8407180E-002  0.2362545E+03  0.7818608E-02  0.1122515E+00
         21   -1    0    0  501  502  0.00000000000E+00  0.00000000000E+00  0.29776540433E+02  0.29776540433E+02  0.00000000000E+00 0. -1.
         21   -1    0    0  502  503 -0.00000000000E+00 -0.00000000000E+00 -0.19461409344E+04  0.19461409344E+04  0.00000000000E+00 0. -1.
         -6    2    1    2    0  503  0.14803676077E+03  0.62041454272E+02 -0.11620782981E+04  0.11858508213E+04  0.17335563140E+03 0.  0.
        -24    2    3    3    0    0  0.36144023297E+02  0.65753706774E+02 -0.77826357186E+03  0.78601385505E+03  0.80583203457E+02 0.  0.
          6    2    1    2  501    0 -0.14803676077E+03 -0.62041454272E+02 -0.75428609590E+03  0.79006665354E+03  0.17173752642E+03 0.  0.
         24    2    5    5    0    0 -0.43131632821E+02 -0.12638796278E+02 -0.53222140034E+03  0.53950622670E+03  0.76074126621E+02 0.  0.
          5    1    5    5  501    0 -0.10490512795E+03 -0.49402657994E+02 -0.22206469556E+03  0.25056042684E+03  0.47000000000E+01 0. -1.
        -11    1    6    6    0    0  0.80975044368E+00 -0.34003682413E+02 -0.13193487491E+03  0.13624873332E+03  0.00000000000E+00 0.  1.
         12    1    6    6    0    0 -0.43941383265E+02  0.21364886136E+02 -0.40028652544E+03  0.40325749338E+03  0.00000000000E+00 0. -1.
         -5    1    3    3    0  503  0.11189273747E+03 -0.37122525022E+01 -0.38381472622E+03  0.39983696626E+03  0.47000000000E+01 0.  1.
         13    1    4    4    0    0  0.48693137502E+02  0.89757847567E+01 -0.27717776783E+03  0.28156544769E+03  0.00000000000E+00 0. -1.
        -14    1    4    4    0    0 -0.12549114205E+02  0.56777922017E+02 -0.50108580403E+03  0.50444840737E+03  0.00000000000E+00 0.  1.
</event>
<event>
12    1  0.8407180E-002  0.1758919E+03  0.7818608E-02  0.1171954E+00
         21   -1    0    0  503  502  0.00000000000E+00  0.00000000000E+00  0.63989951325E+03  0.63989951325E+03  0.00000000000E+00 0. -1.
         21   -1    0    0  501  503 -0.00000000000E+00 -0.00000000000E+00 -0.16984368334E+03  0.16984368334E+03  0.00000000000E+00 0. -1.
          6    2    1    2  501    0  0.16725852980E+02 -0.34488700241E+02 -0.10749330495E+03  0.20613771484E+03  0.17166456323E+03 0.  0.
         24    2    3    3    0    0 -0.55845932799E+01 -0.32090982780E+02  0.11591327284E+02  0.84866346843E+02  0.77504316656E+02 0.  0.
         -6    2    1    2    0  502 -0.16725852980E+02  0.34488700241E+02  0.57754913486E+03  0.60360548175E+03  0.17119389538E+03 0.  0.
        -24    2    5    5    0    0 -0.59415626361E+02  0.46530923155E+02  0.51591548572E+03  0.52752507304E+03  0.80115983459E+02 0.  0.
          5    1    3    3  501    0  0.22310446260E+02 -0.23977174612E+01 -0.11908463223E+03  0.12127136799E+03  0.47000000000E+01 0. -1.
        -11    1    4    4    0    0  0.11137701241E+02  0.22778618001E+02  0.10638789301E+02  0.27497230129E+02  0.00000000000E+00 0.  1.
         12    1    4    4    0    0 -0.16722294520E+02 -0.54869600781E+02  0.95253798286E+00  0.57369116714E+02  0.00000000000E+00 0. -1.
         -5    1    5    5    0  502  0.42689773381E+02 -0.12042222913E+02  0.61633649140E+02  0.76080408716E+02  0.47000000000E+01 0.  1.
         13    1    6    6    0    0 -0.41723241266E+01 -0.70085049732E+00  0.29359316393E+03  0.29362364582E+03  0.00000000000E+00 0. -1.
        -14    1    6    6    0    0 -0.55243302234E+02  0.47231773652E+02  0.22232232180E+03  0.23390142721E+03  0.00000000000E+00 0.  1.
</event>
<event>
12    1  0.8407180E-002  0.1945180E+03  0.7818608E-02  0.1154982E+00
         21   -1    0    0  503  502  0.00000000000E+00  0.00000000000E+00  0.33711578177E+02  0.33711578177E+02  0.00000000000E+00 0. -1.
         21   -1    0    0  501  503 -0.00000000000E+00 -0.00000000000E+00 -0.23546503697E+04  0.23546503697E+04  0.00000000000E+00 0. -1.
          6    2    1    2  501    0 -0.35030039165E+02 -0.83668188696E+02 -0.20258008599E+04  0.20348882322E+04  0.16933258369E+03 0.  0.
         24    2    3    3    0    0 -0.34499754382E+02 -0.10250489119E+03 -0.10110638012E+04  0.10199653332E+04  0.79886075126E+02 0.  0.
         -6    2    1    2    0  502  0.35030039165E+02  0.83668188696E+02 -0.29513793158E+03  0.35347371569E+03  0.17207498245E+03 0.  0.
        -24    2    5    5    0    0  0.36631898286E+02  0.62731231847E+02 -0.30898866620E+03  0.32788358157E+03  0.82198198322E+02 0.  0.
          5    1    3    3  501    0 -0.53028478331E+00  0.18836702491E+02 -0.10147370587E+04  0.10149228990E+04  0.47000000000E+01 0. -1.
        -11    1    4    4    0    0  0.24251015293E+02 -0.38335003138E+02 -0.43667895336E+03  0.43902869213E+03  0.00000000000E+00 0.  1.
         12    1    4    4    0    0 -0.58750769675E+02 -0.64169888048E+02 -0.57438484783E+03  0.58093664102E+03  0.00000000000E+00 0. -1.
         -5    1    5    5    0  502 -0.16018591210E+01  0.20936956849E+02  0.13850734616E+02  0.25590134117E+02  0.47000000000E+01 0.  1.
         13    1    6    6    0    0  0.22236931600E+02  0.28798460481E+02 -0.32003906944E+02  0.48457017167E+02  0.00000000000E+00 0. -1.
        -14    1    6    6    0    0  0.14394966686E+02  0.33932771366E+02 -0.27698475925E+03  0.27942656441E+03  0.00000000000E+00 0.  1.
</event>
<event>
12    1  0.8407180E-002  0.1859921E+03  0.7818608E-02  0.1162573E+00
         21   -1    0    0  501  502  0.00000000000E+00  0.00000000000E+00  0.11456361362E+03  0.11456361362E+03  0.00000000000E+00 0. -1.
         21   -1    0    0  502  503 -0.00000000000E+00 -0.00000000000E+00 -0.91720066166E+03  0.91720066166E+03  0.00000000000E+00 0. -1.
         -6    2    1    2    0  503 -0.50683979325E+02  0.50399025298E+02 -0.82557202036E+03  0.84626367767E+03  0.17170941681E+03 0.  0.
        -24    2    3    3    0    0 -0.90427401318E+02  0.51902281781E+02 -0.74138313864E+03  0.75303462009E+03  0.80877803037E+02 0.  0.
          6    2    1    2  501    0  0.50683979325E+02 -0.50399025298E+02  0.22934972324E+02  0.18550059761E+03  0.16963352041E+03 0.  0.
         24    2    5    5    0    0  0.40035785519E+02 -0.10228992582E+03 -0.32878859684E+01  0.12620660226E+03  0.62058063241E+02 0.  0.
          5    1    5    5  501    0  0.10648193805E+02  0.51890900520E+02  0.26222858293E+02  0.59293995355E+02  0.47000000000E+01 0. -1.
        -13    1    6    6    0    0 -0.23180971843E+01 -0.37374397670E+02  0.23486332106E+02  0.44202115012E+02  0.00000000000E+00 0.  1.
         14    1    6    6    0    0  0.42353882704E+02 -0.64915528148E+02 -0.26774218075E+02  0.82004487245E+02  0.00000000000E+00 0. -1.
         -5    1    3    3    0  503  0.39743421994E+02 -0.15032564828E+01 -0.84188881721E+02  0.93229057580E+02  0.47000000000E+01 0.  1.
         11    1    4    4    0    0 -0.45887623880E+01  0.26934448483E+02 -0.61457666841E+02  0.67257461065E+02  0.00000000000E+00 0. -1.
        -12    1    4    4    0    0 -0.85838638930E+02  0.24967833298E+02 -0.67992547180E+03  0.68577715902E+03  0.00000000000E+00 0.  1.
</event>
<event>
12    1  0.8407180E-002  0.1740535E+03  0.7818608E-02  0.1173712E+00
         21   -1    0    0  501  502  0.00000000000E+00  0.00000000000E+00  0.41737417591E+03  0.41737417591E+03  0.00000000000E+00 0. -1.
         21   -1    0    0  502  503 -0.00000000000E+00 -0.00000000000E+00 -0.16205026996E+03  0.16205026996E+03  0.00000000000E+00 0. -1.
         -6    2    1    2    0  503 -0.26803303325E+02  0.76093713179E+00 -0.87671814490E+02  0.19479384365E+03  0.17187000429E+03 0.  0.
        -24    2    3    3    0    0  0.62084456869E+01 -0.20171776822E+02 -0.11967699768E+03  0.14405553626E+03  0.77356114020E+02 0.  0.
          6    2    1    2  501    0  0.26803303325E+02 -0.76093713179E+00  0.34299572044E+03  0.38463060222E+03  0.17197569546E+03 0.  0.
         24    2    5    5    0    0  0.31349303189E+02  0.59913850373E+02  0.15235802373E+03  0.18446337873E+03  0.79002040606E+02 0.  0.
          5    1    5    5  501    0 -0.45459998644E+01 -0.60674787505E+02  0.19063769671E+03  0.20016722350E+03  0.47000000000E+01 0. -1.
        -13    1    6    6    0    0  0.53065394489E+02  0.31763567248E+02  0.62956324229E+02  0.88251680193E+02  0.00000000000E+00 0.  1.
         14    1    6    6    0    0 -0.21716091299E+02  0.28150283126E+02  0.89401699498E+02  0.96211698533E+02  0.00000000000E+00 0. -1.
         -5    1    3    3    0  503 -0.33011749012E+02  0.20932713954E+02  0.32005183188E+02  0.50738307394E+02  0.47000000000E+01 0.  1.
         11    1    4    4    0    0  0.22202353345E+02 -0.41678368158E+02 -0.10067770190E+03  0.11120265522E+03  0.00000000000E+00 0. -1.
        -12    1    4    4    0    0 -0.15993907658E+02  0.21506591336E+02 -0.18999295773E+02  0.32852881044E+02  0.00000000000E+00 0.  1.
</event>
<event>
12    1  0.8407180E-002  0.1909950E+03  0.7818608E-02  0.1157827E+00
         21   -1    0    0  501  502  0.00000000000E+00  0.00000000000E+00  0.74373582939E+02  0.74373582939E+02  0.00000000000E+00 0.  1.
         21   -1    0    0  502  503 -0.00000000000E+00 -0.00000000000E+00 -0.60425676304E+03  0.60425676304E+03  0.00000000000E+00 0.  1.
         -6    2    1    2    0  503  0.75801895868E+02  0.34873179362E+02 -0.41473152299E+03  0.45659755616E+03  0.17180519803E+03 0.  0.
        -24    2    3    3    0    0  0.51669556297E+01  0.32809809513E+02 -0.87593140159E+02  0.12188101369E+03  0.77969495732E+02 0.  0.
          6    2    1    2  501    0 -0.75801895868E+02 -0.34873179362E+02 -0.11515165711E+03  0.22203278982E+03  0.17051859008E+03 0.  0.
         24    2    5    5    0    0 -0.79349001689E+02 -0.76047929224E+02 -0.52195518264E+02  0.14657745599E+03  0.81737548704E+02 0.  0.
          5    1    5    5  501    0  0.35471058204E+01  0.41174749862E+02 -0.62956138844E+02  0.75455333834E+02  0.47000000000E+01 0. -1.
        -11    1    6    6    0    0 -0.80431018459E+02 -0.29685960020E+02 -0.51864945035E+02  0.10020168400E+03  0.00000000000E+00 0.  1.
         12    1    6    6    0    0  0.10820167701E+01 -0.46361969203E+02 -0.33057322884E+00  0.46375771987E+02  0.00000000000E+00 0. -1.
         -5    1    3    3    0  503  0.70634940239E+02  0.20633698481E+01 -0.32713838283E+03  0.33471654247E+03  0.47000000000E+01 0.  1.
         11    1    4    4    0    0 -0.70276686468E+01 -0.24352236395E+02 -0.35280151662E+02  0.43440863773E+02  0.00000000000E+00 0. -1.
        -12    1    4    4    0    0  0.12194624277E+02  0.57162045909E+02 -0.52312988498E+02  0.78440149919E+02  0.00000000000E+00 0.  1.
</event>
<event>
12    1  0.8407180E-002  0.3002025E+03  0.7818608E-02  0.1085265E+00
         21   -1    0    0  503  502  0.00000000000E+00  0.00000000000E+00  0.20680570265E+03  0.20680570265E+03  0.00000000000E+00 0.  1.
         21   -1    0    0  501  503 -0.00000000000E+00 -0.00000000000E+00 -0.65606272768E+03  0.65606272768E+03  0.00000000000E+00 0.  1.
          6    2    1    2  501    0  0.20144359189E+03  0.14127876219E+03 -0.47569971940E+03  0.56250489658E+03  0.17199513446E+03 0.  0.
         24    2    3    3    0    0  0.21014071521E+03  0.10065000274E+03 -0.45198992568E+03  0.51443639997E+03  0.77848400417E+02 0.  0.
         -6    2    1    2    0  502 -0.20144359189E+03 -0.14127876219E+03  0.26442694369E+02  0.30036353375E+03  0.17023462329E+03 0.  0.
        -24    2    5    5    0    0 -0.10644619276E+03 -0.32293125205E+01  0.22887911807E+02  0.13268263778E+03  0.75760183798E+02 0.  0.
          5    1    3    3  501    0 -0.86971233282E+01  0.40628759446E+02 -0.23709793716E+02  0.48068496610E+02  0.47000000000E+01 0. -1.
        -11    1    4    4    0    0  0.12505173321E+03  0.78338498076E+02 -0.20762927275E+03  0.25472489309E+03  0.00000000000E+00 0.  1.
         12    1    4    4    0    0  0.85088982005E+02  0.22311504667E+02 -0.24436065294E+03  0.25971150687E+03  0.00000000000E+00 0. -1.
         -5    1    5    5    0  502 -0.94997399122E+02 -0.13804944967E+03  0.35547825612E+01  0.16768089597E+03  0.47000000000E+01 0.  1.
         11    1    6    6    0    0 -0.10910180755E+03  0.72943002801E+01  0.36497058741E+02  0.11527552439E+03  0.00000000000E+00 0. -1.
        -12    1    6    6    0    0  0.26556147883E+01 -0.10523612801E+02 -0.13609146934E+02  0.17407113389E+02  0.00000000000E+00 0.  1.
</event>
<event>
12    1  0.8407180E-002  0.1938354E+03  0.7818608E-02  0.1155241E+00
         21   -1    0    0  501  502  0.00000000000E+00  0.00000000000E+00  0.72936177348E+03  0.72936177348E+03  0.00000000000E+00 0. -1.
         21   -1    0    0  502  503 -0.00000000000E+00 -0.00000000000E+00 -0.54400765800E+02  0.54400765800E+02  0.00000000000E+00 0. -1.
         -6    2    1    2    0  503  0.37919238492E+01  0.88920653130E+02  0.24434621530E+03  0.31189295998E+03  0.17219432136E+03 0.  0.
        -24    2    3    3    0    0  0.23279579581E+02  0.12717379608E+03  0.19807862874E+03  0.24860116558E+03  0.76500216530E+02 0.  0.
          6    2    1    2  501    0 -0.37919238492E+01 -0.88920653130E+02  0.43061479238E+03  0.47186957930E+03  0.17120321031E+03 0.  0.
         24    2    5    5    0    0  0.47709231827E+02 -0.78208376530E+01  0.26231265176E+03  0.27802105689E+03  0.78424769666E+02 0.  0.
          5    1    5    5  501    0 -0.51501155676E+02 -0.81099815477E+02  0.16830214062E+03  0.19384852241E+03  0.47000000000E+01 0. -1.
        -11    1    6    6    0    0  0.26281790088E+02  0.10262932117E+02  0.24139819728E+03  0.24304145719E+03  0.00000000000E+00 0.  1.
         12    1    6    6    0    0  0.21427441739E+02 -0.18083769770E+02  0.20914454483E+02  0.34979599696E+02  0.00000000000E+00 0. -1.
         -5    1    3    3    0  503 -0.19487655732E+02 -0.38253142950E+02  0.46267586562E+02  0.63291794395E+02  0.47000000000E+01 0.  1.
         13    1    4    4    0    0 -0.22656913974E+02  0.61058545511E+02  0.11954316731E+03  0.13613247438E+03  0.00000000000E+00 0. -1.
        -14    1    4    4    0    0  0.45936493555E+02  0.66115250569E+02  0.78535461433E+02  0.11246869120E+03  0.00000000000E+00 0.  1.
</event>
<event>
12    1  0.8407180E-002  0.2275381E+03  0.7818608E-02  0.1130073E+00
         21   -1    0    0  503  502  0.00000000000E+00  0.00000000000E+00  0.77157414890E+03  0.77157414890E+03  0.00000000000E+00 0. -1.
         21   -1    0    0  501  503 -0.00000000000E+00 -0.00000000000E+00 -0.78999819384E+02  0.78999819384E+02  0.00000000000E+00 0.  1.
          6    2    1    2  501    0  0.72956047011E+02  0.12799332728E+03  0.16934747750E+03  0.28364088145E+03  0.17340330121E+03 0.  0.
         24    2    3    3    0    0  0.16531843819E+02  0.14303518106E+03  0.14895761122E+03  0.22161036704E+03  0.78679221890E+02 0.  0.
         -6    2    1    2    0  502 -0.72956047011E+02 -0.12799332728E+03  0.52322685202E+03  0.56693308684E+03  0.16106492374E+03 0.  0.
        -24    2    5    5    0    0 -0.74131223588E+02 -0.92350350947E+02  0.22488882757E+03  0.26643438529E+03  0.79926661814E+02 0.  0.
          5    1    3    3  501    0  0.56424203192E+02 -0.15041853783E+02  0.20389866280E+02  0.62030514410E+02  0.47000000000E+01 0. -1.
        -13    1    4    4    0    0 -0.20292922490E+02  0.20332929895E+02  0.54485619858E+01  0.29238973460E+02  0.00000000000E+00 0.  1.
         14    1    4    4    0    0  0.36824766310E+02  0.12270225116E+03  0.14350904924E+03  0.19237139358E+03  0.00000000000E+00 0. -1.
         -5    1    5    5    0  502  0.11751765771E+01 -0.35642976329E+02  0.29833802445E+03  0.30049870155E+03  0.47000000000E+01 0.  1.
         11    1    6    6    0    0 -0.12787086440E+02 -0.61544750229E+02  0.16028523091E+03  0.17217032586E+03  0.00000000000E+00 0. -1.
        -12    1    6    6    0    0 -0.61344137149E+02 -0.30805600718E+02  0.64603596659E+02  0.94264059426E+02  0.00000000000E+00 0.  1.
</event>
<event>
12    1  0.8407180E-002  0.2447433E+03  0.7818608E-02  0.1116874E+00
         21   -1    0    0  503  502  0.00000000000E+00  0.00000000000E+00  0.44961232670E+03  0.44961232670E+03  0.00000000000E+00 0. -1.
         21   -1    0    0  501  503 -0.00000000000E+00 -0.00000000000E+00 -0.30574839458E+03  0.30574839458E+03  0.00000000000E+00 0.  1.
          6    2    1    2  501    0  0.16319668084E+03 -0.61013790238E+02 -0.21240410779E+03  0.32312677430E+03  0.17011633675E+03 0.  0.
         24    2    3    3    0    0  0.28330645108E+02 -0.59850681312E+02 -0.60576028373E+02  0.11999121337E+03  0.79647388951E+02 0.  0.
         -6    2    1    2    0  502 -0.16319668084E+03  0.61013790238E+02  0.35626803991E+03  0.43223394697E+03  0.17188202179E+03 0.  0.
        -24    2    5    5    0    0 -0.12813551672E+03  0.28598308725E+02  0.35222823398E+03  0.38408357103E+03  0.78859918946E+02 0.  0.
          5    1    3    3  501    0  0.13486603573E+03 -0.11631089262E+01 -0.15182807942E+03  0.20313556093E+03  0.47000000000E+01 0. -1.
        -13    1    4    4    0    0  0.54673681704E+02 -0.36387424298E+02 -0.26119881992E+02  0.70678881948E+02  0.00000000000E+00 0.  1.
         14    1    4    4    0    0 -0.26343036596E+02 -0.23463257014E+02 -0.34456146381E+02  0.49312331422E+02  0.00000000000E+00 0. -1.
         -5    1    5    5    0  502 -0.35061164118E+02  0.32415481513E+02  0.40398059317E+01  0.48150375939E+02  0.47000000000E+01 0.  1.
         13    1    6    6    0    0 -0.10676779498E+03 -0.11828070478E+02  0.24843899405E+03  0.27066806065E+03  0.00000000000E+00 0. -1.
        -14    1    6    6    0    0 -0.21367721740E+02  0.40426379202E+02  0.10378923994E+03  0.11341551038E+03  0.00000000000E+00 0.  1.
</event>
<event>
12    1  0.8407180E-002  0.1790542E+03  0.7818608E-02  0.1169066E+00
         21   -1    0    0  501  502  0.00000000000E+00  0.00000000000E+00  0.55107944581E+02  0.55107944581E+02  0.00000000000E+00 0. -1.
         21   -1    0    0  502  503 -0.00000000000E+00 -0.00000000000E+00 -0.60388352219E+03  0.60388352219E+03  0.00000000000E+00 0. -1.
         -6    2    1    2    0  503 -0.31877546502E+02  0.36035749650E+02 -0.34467529002E+03  0.38840887230E+03  0.17246925323E+03 0.  0.
        -24    2    3    3    0    0 -0.20948357267E+02  0.80073764423E+02 -0.31121585705E+03  0.33183663903E+03  0.80060001908E+02 0.  0.
          6    2    1    2  501    0  0.31877546502E+02 -0.36035749650E+02 -0.20410028759E+03  0.27058259447E+03  0.17100660751E+03 0.  0.
         24    2    5    5    0    0  0.83244579629E+02 -0.42533100033E+02 -0.16026617338E+03  0.20258033552E+03  0.81331552126E+02 0.  0.
          5    1    5    5  501    0 -0.51367033127E+02  0.64973503825E+01 -0.43834114208E+02  0.68002258953E+02  0.47000000000E+01 0. -1.
        -13    1    6    6    0    0  0.44312903159E+02  0.18525592539E+02 -0.41481330854E+02  0.63462837746E+02  0.00000000000E+00 0.  1.
         14    1    6    6    0    0  0.38931676470E+02 -0.61058692572E+02 -0.11878484253E+03  0.13911749777E+03  0.00000000000E+00 0. -1.
         -5    1    3    3    0  503 -0.10929189235E+02 -0.44038014773E+02 -0.33459432973E+02  0.56572233271E+02  0.47000000000E+01 0.  1.
         11    1    4    4    0    0 -0.10475122300E+02  0.65513211343E+01 -0.18486077879E+03  0.18527319161E+03  0.00000000000E+00 0. -1.
        -12    1    4    4    0    0 -0.10473234967E+02  0.73522443289E+02 -0.12635507826E+03  0.14656344742E+03  0.00000000000E+00 0.  1.
</event>
<event>
12    1  0.8407180E-002  0.3126809E+03  0.7818608E-02  0.1079121E+00
         21   -1    0    0  501  502  0.00000000000E+00  0.00000000000E+00  0.77105103631E+02  0.77105103631E+02  0.00000000000E+00 0. -1.
         21   -1    0    0  502  503 -0.00000000000E+00 -0.00000000000E+00 -0.15557552188E+04  0.15557552188E+04  0.00000000000E+00 0.  1.
         -6    2    1    2    0  503  0.26084442878E+03  0.63858809482E+01 -0.10919713538E+04  0.11358568633E+04  0.17230432664E+03 0.  0.
        -24    2    3    3    0    0  0.23351507345E+03 -0.29912078790E+02 -0.10193951064E+04  0.10501023461E+04  0.90136187518E+02 0.  0.
          6    2    1    2  501    0 -0.26084442878E+03 -0.63858809482E+01 -0.38667876142E+03  0.49700345914E+03  0.17149745878E+03 0.  0.
         24    2    5    5    0    0 -0.38854232107E+02 -0.16357478358E+02 -0.10592810150E+03  0.13892231859E+03  0.79381543602E+02 0.  0.
          5    1    5    5  501    0 -0.22199019667E+03  0.99715974096E+01 -0.28075065992E+03  0.35808114055E+03  0.47000000000E+01 0. -1.
        -11    1    6    6    0    0 -0.52572288518E+02 -0.19293940062E+02 -0.11073726892E+03  0.12409208021E+03  0.00000000000E+00 0.  1.
         12    1    6    6    0    0  0.13718056411E+02  0.29364617044E+01  0.48091674233E+01  0.14830238378E+02  0.00000000000E+00 0. -1.
         -5    1    3    3    0  503  0.27329355322E+02  0.36297959738E+02 -0.72576247364E+02  0.85754517227E+02  0.47000000000E+01 0.  1.
         11    1    4    4    0    0  0.19007923530E+03 -0.19572279388E+02 -0.63513428534E+03  0.66325617240E+03  0.00000000000E+00 0. -1.
        -12    1    4    4    0    0  0.43435838155E+02 -0.10339799402E+02 -0.38426082108E+03  0.38684617370E+03  0.00000000000E+00 0.  1.
</event>
<event>
12    1  0.8407180E-002  0.3064975E+03  0.7818608E-02  0.1082091E+00
         21   -1    0    0  503  502  0.00000000000E+00  0.00000000000E+00  0.14768256205E+03  0.14768256205E+03  0.00000000000E+00 0.  1.
         21   -1    0    0  501  503 -0.00000000000E+00 -0.00000000000E+00 -0.96699527472E+03  0.96699527472E+03  0.00000000000E+00 0. -1.
          6    2    1    2  501    0  0.19495874990E+02 -0.25239402579E+03 -0.73594391442E+03  0.79704427754E+03  0.17199797033E+03 0.  0.
         24    2    3    3    0    0 -0.55851972714E+01 -0.17189933830E+03 -0.31710843107E+03  0.36978123560E+03  0.81239326741E+02 0.  0.
         -6    2    1    2    0  502 -0.19495874990E+02  0.25239402579E+03 -0.83368798260E+02  0.31763355923E+03  0.17279435185E+03 0.  0.
        -24    2    5    5    0    0  0.18444520074E+02  0.50295177237E+02 -0.53945264279E+02  0.10985662953E+03  0.79300582214E+02 0.  0.
          5    1    3    3  501    0  0.25081072262E+02 -0.80494687492E+02 -0.41883548335E+03  0.42726304195E+03  0.47000000000E+01 0. -1.
        -13    1    4    4    0    0  0.10344585609E+02 -0.12317581119E+03 -0.14672126495E+03  0.19184999479E+03  0.00000000000E+00 0.  1.
         14    1    4    4    0    0 -0.15929782880E+02 -0.48723527108E+02 -0.17038716612E+03  0.17793124080E+03  0.00000000000E+00 0. -1.
         -5    1    5    5    0  502 -0.37940395065E+02  0.20209884855E+03 -0.29423533981E+02  0.20777692970E+03  0.47000000000E+01 0.  1.
         11    1    6    6    0    0  0.19177552476E+02  0.13813127110E+02  0.17650951739E+02  0.29498086325E+02  0.00000000000E+00 0. -1.
        -12    1    6    6    0    0 -0.73303240165E+00  0.36482050126E+02 -0.71596216018E+02  0.80358543205E+02  0.00000000000E+00 0.  1.
</event>
<event>
12    1  0.8407180E-002  0.1738629E+03  0.7818608E-02  0.1174115E+00
         21   -1    0    0  503  502  0.00000000000E+00  0.00000000000E+00  0.26569784816E+03  0.26569784816E+03  0.00000000000E+00 0.  1.
         21   -1    0    0  501  503 -0.00000000000E+00 -0.00000000000E+00 -0.11492572485E+03  0.11492572485E+03  0.00000000000E+00 0.  1.
          6    2    1    2  501    0  0.79027326704E+01  0.22427233058E+02  0.52000476476E+02  0.18147277115E+03  0.17222915882E+03 0.  0.
         24    2    3    3    0    0  0.12135218268E+01  0.80272147500E+02  0.24665089468E+02  0.11697398782E+03  0.81421476824E+02 0.  0.
         -6    2    1    2    0  502 -0.79027326704E+01 -0.22427233058E+02  0.98771646838E+02  0.19915080186E+03  0.17128855681E+03 0.  0.
        -24    2    5    5    0    0  0.48140778526E+02  0.15913757774E+02  0.20749124676E+02  0.95610902834E+02  0.78359021959E+02 0.  0.
          5    1    3    3  501    0  0.66892108436E+01 -0.57844914441E+02  0.27335387008E+02  0.64498783332E+02  0.47000000000E+01 0. -1.
        -11    1    4    4    0    0 -0.23916064460E+02 -0.55806536227E+01  0.90116182501E+01  0.26159722812E+02  0.00000000000E+00 0.  1.
         12    1    4    4    0    0  0.25129586287E+02  0.85852801122E+02  0.15653471218E+02  0.90814265006E+02  0.00000000000E+00 0. -1.
         -5    1    5    5    0  502 -0.56043511196E+02 -0.38340990832E+02  0.78022522162E+02  0.10353989902E+03  0.47000000000E+01 0.  1.
         11    1    6    6    0    0  0.30211246446E+02 -0.30704965613E+02  0.57374773970E+01  0.43456103967E+02  0.00000000000E+00 0. -1.
        -12    1    6    6    0    0  0.17929532080E+02  0.46618723387E+02  0.15011647279E+02  0.52154798867E+02  0.00000000000E+00 0.  1.
</event>
<event>
12    1  0.8407180E-002  0.1867153E+03  0.7818608E-02  0.1161521E+00
         21   -1    0    0  501  502  0.00000000000E+00  0.00000000000E+00  0.66371895166E+02  0.66371895166E+02  0.00000000000E+00 0. -1.
         21   -1    0    0  502  503 -0.00000000000E+00 -0.00000000000E+00 -0.55406104892E+03  0.55406104892E+03  0.00000000000E+00 0. -1.
         -6    2    1    2    0  503 -0.22271514175E+02 -0.69656181646E+02 -0.31567266374E+03  0.36675855361E+03  0.17179814326E+03 0.  0.
        -24    2    3    3    0    0  0.96714418159E+01  0.27134201147E+02 -0.15903882208E+03  0.17982278659E+03  0.78823131051E+02 0.  0.
          6    2    1    2  501    0  0.22271514175E+02  0.69656181646E+02 -0.17201649002E+03  0.25367439048E+03  0.17150224361E+03 0.  0.
         24    2    5    5    0    0  0.29175833578E+01 -0.18891285501E+02 -0.13204915003E+03  0.15450430002E+03  0.77905120120E+02 0.  0.
          5    1    5    5  501    0  0.19353930817E+02  0.88547467147E+02 -0.39967339990E+02  0.99170090461E+02  0.47000000000E+01 0. -1.
        -11    1    6    6    0    0 -0.25056312981E+02  0.12360798367E+02 -0.93328587790E+02  0.97420908718E+02  0.00000000000E+00 0.  1.
         12    1    6    6    0    0  0.27973896339E+02 -0.31252083868E+02 -0.38720562236E+02  0.57083391300E+02  0.00000000000E+00 0. -1.
         -5    1    3    3    0  503 -0.31942955991E+02 -0.96790382792E+02 -0.15663384165E+03  0.18693576702E+03  0.47000000000E+01 0.  1.
         13    1    4    4    0    0 -0.21375630564E+02  0.77668789179E+01 -0.13295284385E+03  0.13488402677E+03  0.00000000000E+00 0. -1.
        -14    1    4    4    0    0  0.31047072379E+02  0.19367322229E+02 -0.26085978231E+02  0.44938759817E+02  0.00000000000E+00 0.  1.
</event>
<event>
12    1  0.8407180E-002  0.1992216E+03  0.7818608E-02  0.1151238E+00
         21   -1    0    0  501  502  0.00000000000E+00  0.00000000000E+00  0.12092938464E+03  0.12092938464E+03  0.00000000000E+00 0. -1.
         21   -1    0    0  502  503 -0.00000000000E+00 -0.00000000000E+00 -0.34048786164E+03  0.34048786164E+03  0.00000000000E+00 0. -1.
         -6    2    1    2    0  503  0.45657312739E+00  0.91855290218E+02 -0.16489870622E+03  0.25861325091E+03  0.17678129832E+03 0.  0.
        -24    2    3    3    0    0 -0.40956699616E+02  0.31385660343E+02 -0.15843694082E+03  0.18488754503E+03  0.80116347705E+02 0.  0.
          6    2    1    2  501    0 -0.45657312739E+00 -0.91855290218E+02 -0.54659770775E+02  0.20280399537E+03  0.17234896924E+03 0.  0.
         24    2    5    5    0    0  0.50869791563E+02 -0.10374020216E+03 -0.51096612170E+02  0.14979047876E+03  0.80477068249E+02 0.  0.
          5    1    5    5  501    0 -0.51326364690E+02  0.11884911941E+02 -0.35631586055E+01  0.53013516610E+02  0.47000000000E+01 0. -1.
        -13    1    6    6    0    0  0.28212266960E+02 -0.36070151642E+02 -0.62543638423E+02  0.77515769710E+02  0.00000000000E+00 0.  1.
         14    1    6    6    0    0  0.22657524603E+02 -0.67670050517E+02  0.11447026254E+02  0.72274709049E+02  0.00000000000E+00 0. -1.
         -5    1    3    3    0  503  0.41413272744E+02  0.60469629875E+02 -0.64617653952E+01  0.73725705887E+02  0.47000000000E+01 0.  1.
         11    1    4    4    0    0 -0.46953787506E+02  0.54113027303E+02 -0.11476598325E+03  0.13529267828E+03  0.00000000000E+00 0. -1.
        -12    1    4    4    0    0  0.59970878898E+01 -0.22727366960E+02 -0.43670957570E+02  0.49594866743E+02  0.00000000000E+00 0.  1.
</event>
<event>
12    1  0.8407180E-002  0.1751103E+03  0.7818608E-02  0.1173502E+00
         21   -1    0    0  501  502  0.00000000000E+00  0.00000000000E+00  0.29436196215E+03  0.29436196215E+03  0.00000000000E+00 0. -1.
         21   -1    0    0  502  503 -0.00000000000E+00 -0.00000000000E+00 -0.16219804077E+03  0.16219804077E+03  0.00000000000E+00 0. -1.
         -6    2    1    2    0  503  0.25800415528E+02  0.37000082296E+01 -0.73270277526E+02  0.18662141306E+03  0.16964570947E+03 0.  0.
        -24    2    3    3    0    0  0.62218110381E+02 -0.37492563899E+02 -0.11336696736E+02  0.10367001207E+03  0.73090116309E+02 0.  0.
          6    2    1    2  501    0 -0.25800415528E+02 -0.37000082296E+01  0.20543419890E+03  0.26993858987E+03  0.17315969716E+03 0.  0.
         24    2    5    5    0    0  0.39824225017E+02  0.32071301309E+02  0.84668579494E+02  0.12783790421E+03  0.80989037122E+02 0.  0.
          5    1    5    5  501    0 -0.65624640545E+02 -0.35771309539E+02  0.12076561941E+03  0.14210068566E+03  0.47000000000E+01 0. -1.
        -11    1    6    6    0    0 -0.11460631618E+02  0.13771407254E+02 -0.85723141546E+01  0.19861578608E+02  0.00000000000E+00 0.  1.
         12    1    6    6    0    0  0.51284856635E+02  0.18299894055E+02  0.93240893649E+02  0.10797632560E+03  0.00000000000E+00 0. -1.
         -5    1    3    3    0  503 -0.36417694852E+02  0.41192572129E+02 -0.61933580790E+02  0.82951400992E+02  0.47000000000E+01 0.  1.
         11    1    4    4    0    0  0.53634768825E+02 -0.34178410471E+02 -0.38940227183E+02  0.74573409888E+02  0.00000000000E+00 0. -1.
        -12    1    4    4    0    0  0.85833415554E+01 -0.33141534281E+01  0.27603530447E+02  0.29096602179E+02  0.00000000000E+00 0.  1.
</event>
<event>
12    1  0.8407180E-002  0.2428913E+03  0.7818608E-02  0.1117939E+00
         21   -1    0    0  501  502  0.00000000000E+00  0.00000000000E+00  0.55366780199E+03  0.55366780199E+03  0.00000000000E+00 0. -1.
         21   -1    0    0  502  503 -0.00000000000E+00 -0.00000000000E+00 -0.14592789320E+03  0.14592789320E+03  0.00000000000E+00 0. -1.
         -6    2    1    2    0  503  0.13788155500E+03 -0.10099207963E+03  0.21927613762E+02  0.24387906383E+03  0.17258462901E+03 0.  0.
        -24    2    3    3    0    0  0.82565889627E+02 -0.16588845225E+02 -0.43926058721E+02  0.12328667189E+03  0.78598911669E+02 0.  0.
          6    2    1    2  501    0 -0.13788155500E+03  0.10099207963E+03  0.38581229503E+03  0.45571663135E+03  0.17209241046E+03 0.  0.
         24    2    5    5    0    0 -0.21431357087E+02  0.83120502332E+02  0.24671301569E+03  0.27336877317E+03  0.80590651201E+02 0.  0.
          5    1    5    5  501    0 -0.11645019791E+03  0.17871577300E+02  0.13909927934E+03  0.18234785818E+03  0.47000000000E+01 0. -1.
        -13    1    6    6    0    0 -0.43562059804E+02  0.22702598209E+02  0.71796141582E+02  0.86992798356E+02  0.00000000000E+00 0.  1.
         14    1    6    6    0    0  0.22130702717E+02  0.60417904123E+02  0.17491687411E+03  0.18637597482E+03  0.00000000000E+00 0. -1.
         -5    1    3    3    0  503  0.55315665374E+02 -0.84403234406E+02  0.65853672483E+02  0.12059239194E+03  0.47000000000E+01 0.  1.
         11    1    4    4    0    0 -0.88402994478E+01 -0.20891575740E+02 -0.15466556597E+02  0.27455840985E+02  0.00000000000E+00 0. -1.
        -12    1    4    4    0    0  0.91406189075E+02  0.43027305151E+01 -0.28459502124E+02  0.95830830907E+02  0.00000000000E+00 0.  1.
</event>
<event>
12    1  0.8407180E-002  0.2335634E+03  0.7818608E-02  0.1124769E+00
         21   -1    0    0  501  502  0.00000000000E+00  0.00000000000E+00  0.32990815703E+03  0.32990815703E+03  0.00000000000E+00 0. -1.
         21   -1    0    0  502  503 -0.00000000000E+00 -0.00000000000E+00 -0.16434105987E+03  0.16434105987E+03  0.00000000000E+00 0.  1.
         -6    2    1    2    0  503  0.12898859331E+03  0.91784471568E+02  0.58788349132E+02  0.23743499039E+03  0.16690373945E+03 0.  0.
        -24    2    3    3    0    0  0.10125358697E+03  0.79681562410E+02 -0.20598100561E+02  0.15234674572E+03  0.78637198074E+02 0.  0.
          6    2    1    2  501    0 -0.12898859331E+03 -0.91784471568E+02  0.10677874803E+03  0.25681422652E+03  0.17172477831E+03 0.  0.
         24    2    5    5    0    0 -0.12383607199E+02 -0.40928712913E+01 -0.22163663864E+01  0.74636937833E+02  0.73455121580E+02 0.  0.
          5    1    5    5  501    0 -0.11660498612E+03 -0.87691600276E+02  0.10899511441E+03  0.18217728868E+03  0.47000000000E+01 0. -1.
        -13    1    6    6    0    0  0.21722511601E+02  0.15108324201E+02  0.16572176263E+02  0.31221242712E+02  0.00000000000E+00 0.  1.
         14    1    6    6    0    0 -0.34106118799E+02 -0.19201195492E+02 -0.18788542650E+02  0.43415695120E+02  0.00000000000E+00 0. -1.
         -5    1    3    3    0  503  0.27735006343E+02  0.12102909157E+02  0.79386449693E+02  0.85088244675E+02  0.47000000000E+01 0.  1.
         11    1    4    4    0    0  0.70158089392E+02  0.93432747857E+02 -0.13556811380E+02  0.11762492514E+03  0.00000000000E+00 0. -1.
        -12    1    4    4    0    0  0.31095497578E+02 -0.13751185446E+02 -0.70412891814E+01  0.34721820576E+02  0.00000000000E+00 0.  1.
</event>
<event>
12    1  0.8407180E-002  0.2187225E+03  0.7818608E-02  0.1134967E+00
         21   -1    0    0  503  502  0.00000000000E+00  0.00000000000E+00  0.19175375294E+03  0.19175375294E+03  0.00000000000E+00 0.  1.
         21   -1    0    0  501  503 -0.00000000000E+00 -0.00000000000E+00 -0.29279376600E+03  0.29279376600E+03  0.00000000000E+00 0.  1.
          6    2    1    2  501    0 -0.40894612465E+02 -0.12946823679E+03 -0.14446069007E+03  0.26155674967E+03  0.17061256887E+03 0.  0.
         24    2    3    3    0    0 -0.67621023783E+02 -0.15115538757E+03 -0.11502085378E+03  0.21602184513E+03  0.77556990145E+02 0.  0.
         -6    2    1    2    0  502  0.40894612465E+02  0.12946823679E+03  0.43420677003E+02  0.22299076927E+03  0.17147925333E+03 0.  0.
        -24    2    5    5    0    0  0.92532179695E+02  0.82763633021E+02  0.16620246578E+02  0.14823709756E+03  0.79284180436E+02 0.  0.
          5    1    3    3  501    0  0.26726411318E+02  0.21687150780E+02 -0.29439836287E+02  0.45534904541E+02  0.47000000000E+01 0. -1.
        -11    1    4    4    0    0  0.10200884225E+02 -0.28194836701E+02  0.86734260259E+00  0.29995985378E+02  0.00000000000E+00 0.  1.
         12    1    4    4    0    0 -0.77821908008E+02 -0.12296055087E+03 -0.11588819638E+03  0.18602585975E+03  0.00000000000E+00 0. -1.
         -5    1    5    5    0  502 -0.51637567230E+02  0.46704603766E+02  0.26800430425E+02  0.74753671705E+02  0.47000000000E+01 0.  1.
         13    1    6    6    0    0  0.46408999469E+02  0.13902417042E+02  0.39218163875E+02  0.62330865621E+02  0.00000000000E+00 0. -1.
        -14    1    6    6    0    0  0.46123180226E+02  0.68861215978E+02 -0.22597917297E+02  0.85906231941E+02  0.00000000000E+00 0.  1.
</event>
<event>
12    1  0.8407180E-002  0.2025359E+03  0.7818608E-02  0.1147778E+00
         21   -1    0    0  503  502  0.00000000000E+00  0.00000000000E+00  0.16344656536E+03  0.16344656536E+03  0.00000000000E+00 0. -1.
         21   -1    0    0  501  503 -0.00000000000E+00 -0.00000000000E+00 -0.32633366033E+03  0.32633366033E+03  0.00000000000E+00 0. -1.
          6    2    1    2  501    0 -0.71280314829E+02  0.76044525467E+02 -0.19998894681E+03  0.28463372900E+03  0.17365807699E+03 0.  0.
         24    2    3    3    0    0  0.31256148025E+02  0.45749721750E+02 -0.83245878687E+02  0.12625906151E+03  0.77081064252E+02 0.  0.
         -6    2    1    2    0  502  0.71280314829E+02 -0.76044525467E+02  0.37101851840E+02  0.20514649669E+03  0.17275672074E+03 0.  0.
        -24    2    5    5    0    0  0.70231351435E+02  0.19100957753E+02  0.38555625556E+02  0.10986813210E+03  0.72713003502E+02 0.  0.
          5    1    3    3  501    0 -0.10253646285E+03  0.30294803717E+02 -0.11674306812E+03  0.15837466749E+03  0.47000000000E+01 0. -1.
        -11    1    4    4    0    0 -0.56250634462E+01 -0.18282745295E+02 -0.78114134258E+01  0.20662001210E+02  0.00000000000E+00 0.  1.
         12    1    4    4    0    0  0.36881211471E+02  0.64032467045E+02 -0.75434465261E+02  0.10559706030E+03  0.00000000000E+00 0. -1.
         -5    1    5    5    0  502  0.10489633937E+01 -0.95145483219E+02 -0.14537737156E+01  0.95278364592E+02  0.47000000000E+01 0.  1.
         11    1    6    6    0    0  0.49337160716E+01 -0.21739986844E+02 -0.27687659195E+01  0.22464074586E+02  0.00000000000E+00 0. -1.
        -12    1    6    6    0    0  0.65297635363E+02  0.40840944597E+02  0.41324391476E+02  0.87404057517E+02  0.00000000000E+00 0.  1.
</event>
<event>
12    1  0.8407180E-002  0.2064397E+03  0.7818608E-02  0.1144629E+00
         21   -1    0    0  501  502  0.00000000000E+00  0.00000000000E+00  0.80520196343E+03  0.80520196343E+03  0.00000000000E+00 0. -1.
         21   -1    0    0  502  503 -0.00000000000E+00 -0.00000000000E+00 -0.54938051395E+02  0.54938051395E+02  0.00000000000E+00 0. -1.
         -6    2    1    2    0  503 -0.72609260706E+02  0.86777297140E+02  0.28846983335E+03  0.35472835297E+03  0.17267007733E+03 0.  0.
        -24    2    3    3    0    0 -0.37208009356E+02  0.83203465432E+02  0.85878594731E+02  0.14898258549E+03  0.80705793629E+02 0.  0.
          6    2    1    2  501    0  0.72609260706E+02 -0.86777297140E+02  0.46179407868E+03  0.50541166185E+03  0.17141987281E+03 0.  0.
         24    2    5    5    0    0 -0.10505542551E+02 -0.14747080161E+02  0.29185976758E+03  0.30293652074E+03  0.79123756682E+02 0.  0.
          5    1    5    5  501    0  0.83114803257E+02 -0.72030216979E+02  0.16993431110E+03  0.20247514111E+03  0.47000000000E+01 0. -1.
        -11    1    6    6    0    0 -0.17047859075E+02 -0.90267926313E+01  0.11532697660E+02  0.22474776964E+02  0.00000000000E+00 0.  1.
         12    1    6    6    0    0  0.65423165241E+01 -0.57202875296E+01  0.28032706992E+03  0.28046174378E+03  0.00000000000E+00 0. -1.
         -5    1    3    3    0  503 -0.35401251350E+02  0.35738317073E+01  0.20259123862E+03  0.20574576748E+03  0.47000000000E+01 0.  1.
         11    1    4    4    0    0  0.41679979355E+01  0.29539856888E+02 -0.10098120097E+02  0.31495196161E+02  0.00000000000E+00 0. -1.
        -12    1    4    4    0    0 -0.41376007292E+02  0.53663608544E+02  0.95976714828E+02  0.11748738933E+03  0.00000000000E+00 0.  1.
</event>
<event>
12    1  0.8407180E-002  0.2184583E+03  0.7818608E-02  0.1135777E+00
         21   -1    0    0  501  502  0.00000000000E+00  0.00000000000E+00  0.19327432620E+03  0.19327432620E+03  0.00000000000E+00 0.  1.
         21   -1    0    0  502  503 -0.00000000000E+00 -0.00000000000E+00 -0.25233068656E+03  0.25233068656E+03  0.00000000000E+00 0.  1.
         -6    2    1    2    0  503  0.22641620891E+02 -0.13251506928E+03 -0.73148532480E+02  0.22669263110E+03  0.16723024429E+03 0.  0.
        -24    2    3    3    0    0 -0.88037297336E+01 -0.50475003420E+02 -0.96419545765E+02  0.13568157385E+03  0.80545198793E+02 0.  0.
          6    2    1    2  501    0 -0.22641620891E+02  0.13251506928E+03  0.14092172116E+02  0.21891238166E+03  0.17219510721E+03 0.  0.
         24    2    5    5    0    0  0.32130941523E+02  0.11845387142E+03 -0.26730602696E+02  0.14901002246E+03  0.80160742358E+02 0.  0.
          5    1    5    5  501    0 -0.54772562414E+02  0.14061197856E+02  0.40822774811E+02  0.69902359201E+02  0.47000000000E+01 0. -1.
        -11    1    6    6    0    0 -0.22681522538E+02  0.57164814389E+02  0.30076819334E+01  0.61573643870E+02  0.00000000000E+00 0.  1.
         12    1    6    6    0    0  0.54812464062E+02  0.61289057035E+02 -0.29738284629E+02  0.87436378593E+02  0.00000000000E+00 0. -1.
         -5    1    3    3    0  503  0.31445350624E+02 -0.82040065860E+02  0.23271013284E+02  0.91011057249E+02  0.47000000000E+01 0.  1.
         13    1    4    4    0    0 -0.22271750605E+02 -0.74504880337E+01  0.56011509363E+01  0.24143602439E+02  0.00000000000E+00 0. -1.
        -14    1    4    4    0    0  0.13468020871E+02 -0.43024515386E+02 -0.10202069670E+03  0.11153797141E+03  0.00000000000E+00 0.  1.
</event>
<event>
12    1  0.8407180E-002  0.2023017E+03  0.7818608E-02  0.1147989E+00
         21   -1    0    0  503  502  0.00000000000E+00  0.00000000000E+00  0.24065654031E+02  0.24065654031E+02  0.00000000000E+00 0. -1.
         21   -1    0    0  501  503 -0.00000000000E+00 -0.00000000000E+00 -0.18636527300E+04  0.18636527300E+04  0.00000000000E+00 0. -1.
          6    2    1    2  501    0 -0.48351989006E+02 -0.93300920703E+02 -0.12032723426E+04  0.12200190374E+04  0.17186955672E+03 0.  0.
         24    2    3    3    0    0 -0.45113838758E+02 -0.72377486035E+02 -0.11873859820E+04  0.11931351726E+04  0.80076905761E+02 0.  0.
         -6    2    1    2    0  502  0.48351989006E+02  0.93300920703E+02 -0.63631473337E+03  0.66769934663E+03  0.17286700360E+03 0.  0.
        -24    2    5    5    0    0  0.83540030649E+02  0.28732707125E+02 -0.26134643250E+03  0.28555988369E+03  0.73742689197E+02 0.  0.
          5    1    3    3  501    0 -0.32381502485E+01 -0.20923434667E+02 -0.15886360587E+02  0.26883864826E+02  0.47000000000E+01 0. -1.
        -13    1    4    4    0    0 -0.22318370192E+02 -0.70405782833E+01 -0.74259645762E+02  0.77859966473E+02  0.00000000000E+00 0.  1.
         14    1    4    4    0    0 -0.22795468566E+02 -0.65336907752E+02 -0.11131263363E+04  0.11152752061E+04  0.00000000000E+00 0. -1.
         -5    1    5    5    0  502 -0.35188041642E+02  0.64568213577E+02 -0.37496830087E+03  0.38213946294E+03  0.47000000000E+01 0.  1.
         13    1    6    6    0    0  0.53319712163E+02  0.44421057339E+02 -0.10723991815E+03  0.12773653387E+03  0.00000000000E+00 0. -1.
        -14    1    6    6    0    0  0.30220318486E+02 -0.15688350214E+02 -0.15410651435E+03  0.15782334981E+03  0.00000000000E+00 0.  1.
</event>
<event>
12    1  0.8407180E-002  0.1828616E+03  0.7818608E-02  0.1165306E+00
         21   -1    0    0  501  502  0.00000000000E+00  0.00000000000E+00  0.35277995469E+03  0.35277995469E+03  0.00000000000E+00 0.  1.
         21   -1    0    0  502  503 -0.00000000000E+00 -0.00000000000E+00 -0.99819347869E+02  0.99819347869E+02  0.00000000000E+00 0.  1.
         -6    2    1    2    0  503  0.37206248916E+01 -0.58000184320E+02  0.17957462500E+03  0.25556154365E+03  0.17229855547E+03 0.  0.
        -24    2    3    3    0    0 -0.24622062270E+02 -0.10065189543E+03  0.12350205242E+03  0.17947803840E+03  0.78883200430E+02 0.  0.
          6    2    1    2  501    0 -0.37206248916E+01  0.58000184320E+02  0.73385981821E+02  0.19703775891E+03  0.17337967493E+03 0.  0.
         24    2    5    5    0    0 -0.96537305900E-01 -0.35760050351E+02  0.21869578483E+02  0.89892318366E+02  0.79520814367E+02 0.  0.
          5    1    5    5  501    0 -0.36240875857E+01  0.93760234671E+02  0.51516403339E+02  0.10714544054E+03  0.47000000000E+01 0. -1.
        -11    1    6    6    0    0 -0.67668547673E+01  0.43274205635E+01 -0.25933975790E+02  0.27149364495E+02  0.00000000000E+00 0.  1.
         12    1    6    6    0    0  0.66703174614E+01 -0.40087470915E+02  0.47803554273E+02  0.62742953871E+02  0.00000000000E+00 0. -1.
         -5    1    3    3    0  503  0.28342687161E+02  0.42651711109E+02  0.56072572576E+02  0.76083505251E+02  0.47000000000E+01 0.  1.
         11    1    4    4    0    0  0.69371515460E+01 -0.68248909789E+02  0.28553029122E+02  0.74305539706E+02  0.00000000000E+00 0. -1.
        -12    1    4    4    0    0 -0.31559213816E+02 -0.32402985639E+02  0.94949023299E+02  0.10517249869E+03  0.00000000000E+00 0.  1.
</event>
<event>
12    1  0.8407180E-002  0.1718704E+03  0.7818608E-02  0.1179655E+00
         21   -1    0    0  503  502  0.00000000000E+00  0.00000000000E+00  0.39409450170E+03  0.39409450170E+03  0.00000000000E+00 0.  1.
         21   -1    0    0  501  503 -0.00000000000E+00 -0.00000000000E+00 -0.91525813112E+02  0.91525813112E+02  0.00000000000E+00 0.  1.
          6    2    1    2  501    0  0.24094932230E+01 -0.75930009581E+01  0.35739846560E+02  0.17554708889E+03  0.17168571421E+03 0.  0.
         24    2    3    3    0    0 -0.57406299519E+02  0.69451459343E+01  0.52011738254E+02  0.11170234567E+03  0.80177770214E+02 0.  0.
         -6    2    1    2    0  502 -0.24094932230E+01  0.75930009581E+01  0.26682884203E+03  0.31007322592E+03  0.15774763129E+03 0.  0.
        -24    2    5    5    0    0 -0.27600922093E+02 -0.47989429867E+02  0.15405860800E+03  0.18176410549E+03  0.78989487058E+02 0.  0.
          5    1    3    3  501    0  0.59815792742E+02 -0.14538146892E+02 -0.16271891694E+02  0.63844743211E+02  0.47000000000E+01 0. -1.
        -13    1    4    4    0    0 -0.31612832007E+02  0.26138058826E+02 -0.96707689420E+01  0.42143718851E+02  0.00000000000E+00 0.  1.
         14    1    4    4    0    0 -0.25793467512E+02 -0.19192912891E+02  0.61682507196E+02  0.69558626824E+02  0.00000000000E+00 0. -1.
         -5    1    5    5    0  502  0.25191428870E+02  0.55582430825E+02  0.11277023403E+03  0.12830912044E+03  0.47000000000E+01 0.  1.
         11    1    6    6    0    0 -0.29384464880E+01  0.12222764850E+02  0.88530880282E+02  0.89418942131E+02  0.00000000000E+00 0. -1.
        -12    1    6    6    0    0 -0.24662475605E+02 -0.60212194717E+02  0.65527727720E+02  0.92345163358E+02  0.00000000000E+00 0.  1.
</event>
<event>
12    1  0.8407180E-002  0.2779925E+03  0.7818608E-02  0.1097860E+00
         21   -1    0    0  501  502  0.00000000000E+00  0.00000000000E+00  0.11950837732E+03  0.11950837732E+03  0.00000000000E+00 0.  1.
         21   -1    0    0  502  503 -0.00000000000E+00 -0.00000000000E+00 -0.69180771172E+03  0.69180771172E+03  0.00000000000E+00 0. -1.
         -6    2    1    2    0  503 -0.19264857817E+03  0.75803224855E+02 -0.41200274696E+03  0.49701722186E+03  0.18552695693E+03 0.  0.
        -24    2    3    3    0    0 -0.17827785709E+03  0.89213015007E+02 -0.42273620811E+03  0.47413409960E+03  0.79720050040E+02 0.  0.
          6    2    1    2  501    0  0.19264857817E+03 -0.75803224855E+02 -0.16029658743E+03  0.31429886719E+03  0.17386540313E+03 0.  0.
         24    2    5    5    0    0  0.12382790080E+03 -0.56409435297E+01 -0.28837175036E+02  0.15009564413E+03  0.79573553795E+02 0.  0.
          5    1    5    5  501    0  0.68820677373E+02 -0.70162281326E+02 -0.13145941239E+03  0.16420322306E+03  0.47000000000E+01 0. -1.
        -11    1    6    6    0    0 -0.68495475370E+01 -0.13739849220E+02  0.22789873421E+01  0.15520745515E+02  0.00000000000E+00 0.  1.
         12    1    6    6    0    0  0.13067744833E+03  0.80989056903E+01 -0.31116162378E+02  0.13457489861E+03  0.00000000000E+00 0. -1.
         -5    1    3    3    0  503 -0.14370721076E+02 -0.13409790152E+02  0.10733461145E+02  0.22883122259E+02  0.47000000000E+01 0.  1.
         13    1    4    4    0    0 -0.94393661736E+02  0.19631936859E+02 -0.26843391099E+03  0.28522331758E+03  0.00000000000E+00 0. -1.
        -14    1    4    4    0    0 -0.83884195356E+02  0.69581078148E+02 -0.15430229712E+03  0.18891078202E+03  0.00000000000E+00 0.  1.
</event>
<event>
12    1  0.8407180E-002  0.2314635E+03  0.7818608E-02  0.1125852E+00
         21   -1    0    0  501  502  0.00000000000E+00  0.00000000000E+00  0.33991046340E+03  0.33991046340E+03  0.00000000000E+00 0. -1.
         21   -1    0    0  502  503 -0.00000000000E+00 -0.00000000000E+00 -0.26299676606E+03  0.26299676606E+03  0.00000000000E+00 0. -1.
         -6    2    1    2    0  503 -0.10596927598E+03  0.11054424126E+03 -0.15326569630E+03  0.27647514625E+03  0.17175161165E+03 0.  0.
        -24    2    3    3    0    0 -0.29250159009E+02  0.93663778863E+02 -0.28898741143E+02  0.12930177075E+03  0.79090678385E+02 0.  0.
          6    2    1    2  501    0  0.10596927598E+03 -0.11054424126E+03  0.23017939365E+03  0.32643208321E+03  0.17356795488E+03 0.  0.
         24    2    5    5    0    0  0.60697731275E+02 -0.14182244198E+03  0.15339987482E+03  0.23185395090E+03  0.80168031788E+02 0.  0.
          5    1    5    5  501    0  0.45271544708E+02  0.31278200718E+02  0.76779518822E+02  0.94578132308E+02  0.47000000000E+01 0. -1.
        -11    1    6    6    0    0  0.41256554302E+02 -0.86571372317E+02  0.39380558391E+02  0.10367031473E+03  0.00000000000E+00 0.  1.
         12    1    6    6    0    0  0.19441176973E+02 -0.55251069662E+02  0.11401931643E+03  0.12818363617E+03  0.00000000000E+00 0. -1.
         -5    1    3    3    0  503 -0.76719116974E+02  0.16880462398E+02 -0.12436695516E+03  0.14717337550E+03  0.47000000000E+01 0.  1.
         13    1    4    4    0    0 -0.24535376738E+02  0.43955736942E+02 -0.53652951273E+02  0.73571262747E+02  0.00000000000E+00 0. -1.
        -14    1    4    4    0    0 -0.47147822711E+01  0.49708041921E+02  0.24754210131E+02  0.55730508007E+02  0.00000000000E+00 0.  1.
</event>
<event>
12    1  0.8407180E-002  0.2013869E+03  0.7818608E-02  0.1148613E+00
         21   -1    0    0  501  502  0.00000000000E+00  0.00000000000E+00  0.30526697561E+03  0.30526697561E+03  0.00000000000E+00 0. -1.
         21   -1    0    0  502  503 -0.00000000000E+00 -0.00000000000E+00 -0.13311485955E+03  0.13311485955E+03  0.00000000000E+00 0. -1.
         -6    2    1    2    0  503  0.11764531923E+02 -0.10399133751E+03  0.97740423682E+02  0.22368724427E+03  0.17184350537E+03 0.  0.
        -24    2    3    3    0    0  0.64289374010E+02 -0.24466292302E+02  0.34027556960E+02  0.10895054030E+03  0.77334484733E+02 0.  0.
          6    2    1    2  501    0 -0.11764531923E+02  0.10399133751E+03  0.74411692378E+02  0.21469459089E+03  0.17205831833E+03 0.  0.
         24    2    5    5    0    0 -0.44163854094E+02  0.10582283208E+03  0.97284975145E+02  0.17471525230E+03  0.88950183817E+02 0.  0.
          5    1    5    5  501    0  0.32399322171E+02 -0.18314945635E+01 -0.22873282767E+02  0.39979338589E+02  0.47000000000E+01 0. -1.
        -13    1    6    6    0    0  0.99785159721E+00 -0.13450126444E+02 -0.12549598749E+01  0.13545350991E+02  0.00000000000E+00 0.  1.
         14    1    6    6    0    0 -0.45161705691E+02  0.11927295852E+03  0.98539935020E+02  0.16116990131E+03  0.00000000000E+00 0. -1.
         -5    1    3    3    0  503 -0.52524842086E+02 -0.79525045210E+02  0.63712866722E+02  0.11473670397E+03  0.47000000000E+01 0.  1.
         13    1    4    4    0    0  0.22650621640E+02 -0.35108675649E+02 -0.14409004035E+02  0.44196031086E+02  0.00000000000E+00 0. -1.
        -14    1    4    4    0    0  0.41638752369E+02  0.10642383347E+02  0.48436560995E+02  0.64754509211E+02  0.00000000000E+00 0.  1.
</event>
<event>
12    1  0.8407180E-002  0.1822947E+03  0.7818608E-02  0.1165645E+00
         21   -1    0    0  503  502  0.00000000000E+00  0.00000000000E+00  0.70898663086E+02  0.70898663086E+02  0.00000000000E+00 0. -1.
         21   -1    0    0  501  503 -0.00000000000E+00 -0.00000000000E+00 -0.12838851645E+04  0.12838851645E+04  0.00000000000E+00 0. -1.
          6    2    1    2  501    0 -0.63391738865E+02 -0.22779891283E+02 -0.11462988072E+04  0.11606740867E+04  0.16919203340E+03 0.  0.
         24    2    3    3    0    0  0.91994823911E+01 -0.26880602125E+02 -0.30729803303E+03  0.31851573445E+03  0.78822552209E+02 0.  0.
         -6    2    1    2    0  502  0.63391738865E+02  0.22779891283E+02 -0.66687694238E+02  0.19410974090E+03  0.16939275943E+03 0.  0.
        -24    2    5    5    0    0  0.98552570558E+02 -0.13618681924E+02 -0.65435896126E+02  0.14326883989E+03  0.79661950274E+02 0.  0.
          5    1    3    3  501    0 -0.72591221256E+02  0.41007108420E+01 -0.83900077416E+03  0.84215835225E+03  0.47000000000E+01 0. -1.
        -11    1    4    4    0    0 -0.15502665592E+02  0.19139276475E+02 -0.16708209959E+03  0.16888775133E+03  0.00000000000E+00 0.  1.
         12    1    4    4    0    0  0.24702147983E+02 -0.46019878600E+02 -0.14021593344E+03  0.14962798312E+03  0.00000000000E+00 0. -1.
         -5    1    5    5    0  502 -0.35160831693E+02  0.36398573207E+02 -0.12517981120E+01  0.50840901008E+02  0.47000000000E+01 0.  1.
         13    1    6    6    0    0  0.26367271399E+02  0.31668590735E+02 -0.12988195667E+02  0.43206780334E+02  0.00000000000E+00 0. -1.
        -14    1    6    6    0    0  0.72185299159E+02 -0.45287272659E+02 -0.52447700459E+02  0.10006205956E+03  0.00000000000E+00 0.  1.
</event>
<event>
12    1  0.8407180E-002  0.1762962E+03  0.7818608E-02  0.1171456E+00
         21   -1    0    0  503  502  0.00000000000E+00  0.00000000000E+00  0.17979892771E+03  0.17979892771E+03  0.00000000000E+00 0.  1.
         21   -1    0    0  501  503 -0.00000000000E+00 -0.00000000000E+00 -0.20673500895E+03  0.20673500895E+03  0.00000000000E+00 0. -1.
          6    2    1    2  501    0  0.21386502547E+02 -0.31035694819E+02 -0.91785240852E+02  0.19868886261E+03  0.17213987580E+03 0.  0.
         24    2    3    3    0    0  0.46013458825E+02 -0.63832963671E+02 -0.10782360086E+03  0.15440041252E+03  0.77599438388E+02 0.  0.
         -6    2    1    2    0  502 -0.21386502547E+02  0.31035694819E+02  0.64849159615E+02  0.18784507406E+03  0.17222009610E+03 0.  0.
        -24    2    5    5    0    0  0.13845978082E+02  0.14413773347E+02 -0.28328406179E+02  0.86742330614E+02  0.79512674163E+02 0.  0.
          5    1    3    3  501    0 -0.24626956278E+02  0.32797268852E+02  0.16038360010E+02  0.44288450091E+02  0.47000000000E+01 0. -1.
        -13    1    4    4    0    0  0.41272886529E+02 -0.19198290929E+02 -0.97624334194E+01  0.46554598519E+02  0.00000000000E+00 0.  1.
         14    1    4    4    0    0  0.47405722968E+01 -0.44634672741E+02 -0.98061167442E+02  0.10784581400E+03  0.00000000000E+00 0. -1.
         -5    1    5    5    0  502 -0.35232480629E+02  0.16621921472E+02  0.93177565794E+02  0.10110274344E+03  0.47000000000E+01 0.  1.
         13    1    6    6    0    0  0.39496438246E+02  0.21301462070E+02  0.38262329795E+01  0.45037328731E+02  0.00000000000E+00 0. -1.
        -14    1    6    6    0    0 -0.25650460164E+02 -0.68876887233E+01 -0.32154639159E+02  0.41705001883E+02  0.00000000000E+00 0.  1.
</event>
<event>
12    1  0.8407180E-002  0.1958081E+03  0.7818608E-02  0.1153540E+00
         21   -1    0    0  503  502  0.00000000000E+00  0.00000000000E+00  0.43711921291E+03  0.43711921291E+03  0.00000000000E+00 0.  1.
         21   -1    0    0  501  503 -0.00000000000E+00 -0.00000000000E+00 -0.10655508456E+03  0.10655508456E+03  0.00000000000E+00 0. -1.
          6    2    1    2  501    0 -0.90569759079E+02 -0.24974330657E+02  0.49979492746E+02  0.20208599117E+03  0.17179697227E+03 0.  0.
         24    2    3    3    0    0 -0.68941050226E+02  0.49988344281E+02  0.46104051872E+02  0.12382800294E+03  0.77175693985E+02 0.  0.
         -6    2    1    2    0  502  0.90569759079E+02  0.24974330657E+02  0.28058463560E+03  0.34158830630E+03  0.17066995873E+03 0.  0.
        -24    2    5    5    0    0  0.49284894250E+02  0.62411803826E+02  0.93413478083E+02  0.14623954980E+03  0.79597072677E+02 0.  0.
          5    1    3    3  501    0 -0.21628708852E+02 -0.74962674938E+02  0.38754408739E+01  0.78257988234E+02  0.47000000000E+01 0. -1.
        -11    1    4    4    0    0 -0.33244428938E+02 -0.17686021639E+02  0.86323526481E+01  0.38632951338E+02  0.00000000000E+00 0.  1.
         12    1    4    4    0    0 -0.35696621288E+02  0.67674365921E+02  0.37471699224E+02  0.85195051599E+02  0.00000000000E+00 0. -1.
         -5    1    5    5    0  502  0.41284864829E+02 -0.37437473169E+02  0.18717115751E+03  0.19534875650E+03  0.47000000000E+01 0.  1.
         11    1    6    6    0    0  0.68087617307E+02  0.56731946203E+02  0.89985950837E+02  0.12630086579E+03  0.00000000000E+00 0. -1.
        -12    1    6    6    0    0 -0.18802723057E+02  0.56798576230E+01  0.34275272466E+01  0.19938684009E+02  0.00000000000E+00 0.  1.
</event>
<event>
12    1  0.8407180E-002  0.1745205E+03  0.7818608E-02  0.1175872E+00
         21   -1    0    0  501  502  0.00000000000E+00  0.00000000000E+00  0.29161834071E+03  0.29161834071E+03  0.00000000000E+00 0. -1.
         21   -1    0    0  502  503 -0.00000000000E+00 -0.00000000000E+00 -0.10117953152E+03  0.10117953152E+03  0.00000000000E+00 0. -1.
         -6    2    1    2    0  503  0.11603925260E+02 -0.48363964664E+01  0.59992340363E+02  0.17491330993E+03  0.16382168134E+03 0.  0.
        -24    2    3    3    0    0  0.18537513367E+02 -0.37167020064E+02 -0.19538294125E+02  0.88654654200E+02  0.75847715798E+02 0.  0.
          6    2    1    2  501    0 -0.11603925260E+02  0.48363964664E+01  0.13044646883E+03  0.21788456230E+03  0.17406711190E+03 0.  0.
         24    2    5    5    0    0  0.23899899970E+02 -0.48756516262E+02  0.11709745955E+03  0.15205897496E+03  0.80384785467E+02 0.  0.
          5    1    5    5  501    0 -0.35503825229E+02  0.53592912729E+02  0.13349009281E+02  0.65825587346E+02  0.47000000000E+01 0. -1.
        -11    1    6    6    0    0 -0.18968880416E+02 -0.50352228846E+02  0.59169822971E+02  0.79976454813E+02  0.00000000000E+00 0.  1.
         12    1    6    6    0    0  0.42868780385E+02  0.15957125833E+01  0.57927636581E+02  0.72082520143E+02  0.00000000000E+00 0. -1.
         -5    1    3    3    0  503 -0.69335881078E+01  0.32330623597E+02  0.79530634488E+02  0.86258655730E+02  0.47000000000E+01 0.  1.
         13    1    4    4    0    0  0.24854990075E+02  0.67662216147E+01  0.17253098983E+02  0.31003575779E+02  0.00000000000E+00 0. -1.
        -14    1    4    4    0    0 -0.63174767072E+01 -0.43933241678E+02 -0.36791393108E+02  0.57651078421E+02  0.00000000000E+00 0.  1.
</event>
<event>
12    1  0.8407180E-002  0.3407071E+03  0.7818608E-02  0.1066858E+00
         21   -1    0    0  501  502  0.00000000000E+00  0.00000000000E+00  0.12058170397E+03  0.12058170397E+03  0.00000000000E+00 0. -1.
         21   -1    0    0  502  503 -0.00000000000E+00 -0.00000000000E+00 -0.96442965746E+03  0.96442965746E+03  0.00000000000E+00 0.  1.
         -6    2    1    2    0  503  0.28828690856E+03  0.62837605725E+02 -0.48283702009E+03  0.59094240617E+03  0.17036265171E+03 0.  0.
        -24    2    3    3    0    0  0.22603569261E+03  0.29536974356E+01 -0.26628587176E+03  0.35775195567E+03  0.77313890243E+02 0.  0.
          6    2    1    2  501    0 -0.28828690856E+03 -0.62837605725E+02 -0.36101093339E+03  0.49406895526E+03  0.16345437339E+03 0.  0.
         24    2    5    5    0    0 -0.26516067737E+03 -0.10268193818E+02 -0.32077574283E+03  0.42378861521E+03  0.79272268599E+02 0.  0.
          5    1    5    5  501    0 -0.23126231187E+02 -0.52569411907E+02 -0.40235190570E+02  0.70280340049E+02  0.47000000000E+01 0. -1.
        -11    1    6    6    0    0 -0.19115877585E+03 -0.40499769658E+02 -0.24758157800E+03  0.31540219830E+03  0.00000000000E+00 0.  1.
         12    1    6    6    0    0 -0.74001901517E+02  0.30231575840E+02 -0.73194164823E+02  0.10838641691E+03  0.00000000000E+00 0. -1.
         -5    1    3    3    0  503  0.62251215944E+02  0.59883908289E+02 -0.21655114833E+03  0.23319045049E+03  0.47000000000E+01 0.  1.
         11    1    4    4    0    0  0.12243108233E+03  0.35167380565E+02 -0.11521646513E+03  0.17175840129E+03  0.00000000000E+00 0. -1.
        -12    1    4    4    0    0  0.10360461029E+03 -0.32213683129E+02 -0.15106940663E+03  0.18599355438E+03  0.00000000000E+00 0.  1.
</event>
<event>
12    1  0.8407180E-002  0.2031010E+03  0.7818608E-02  0.1147416E+00
         21   -1    0    0  503  502  0.00000000000E+00  0.00000000000E+00  0.62951123112E+02  0.62951123112E+02  0.00000000000E+00 0. -1.
         21   -1    0    0  501  503 -0.00000000000E+00 -0.00000000000E+00 -0.65128677668E+03  0.65128677668E+03  0.00000000000E+00 0.  1.
          6    2    1    2  501    0  0.10245866868E+03 -0.28251708677E+02 -0.28761672043E+03  0.35135789585E+03  0.17156064606E+03 0.  0.
         24    2    3    3    0    0  0.40092885841E+01 -0.56223309975E+02 -0.16245191046E+03  0.18960805636E+03  0.79896538383E+02 0.  0.
         -6    2    1    2    0  502 -0.10245866868E+03  0.28251708677E+02 -0.30071893313E+03  0.36288000394E+03  0.17307247812E+03 0.  0.
        -24    2    5    5    0    0 -0.49649376710E+02 -0.50601888814E+02 -0.17946250482E+03  0.20882831598E+03  0.79855263821E+02 0.  0.
          5    1    3    3  501    0  0.98449380092E+02  0.27971601298E+02 -0.12516480997E+03  0.16174983949E+03  0.47000000000E+01 0. -1.
        -11    1    4    4    0    0  0.18187922573E+02  0.15500925787E+02 -0.30411352010E+02  0.38677248595E+02  0.00000000000E+00 0.  1.
         12    1    4    4    0    0 -0.14178633989E+02 -0.71724235762E+02 -0.13204055845E+03  0.15093080777E+03  0.00000000000E+00 0. -1.
         -5    1    5    5    0  502 -0.52809291966E+02  0.78853597491E+02 -0.12125642831E+03  0.15405168796E+03  0.47000000000E+01 0.  1.
         11    1    6    6    0    0 -0.54740785199E+02 -0.10635748589E+02 -0.56295426539E+02  0.79239180722E+02  0.00000000000E+00 0. -1.
        -12    1    6    6    0    0  0.50914084894E+01 -0.39966140225E+02 -0.12316707828E+03  0.12958913526E+03  0.00000000000E+00 0.  1.
</event>
<event>
12    1  0.8407180E-002  0.2163498E+03  0.7818608E-02  0.1137255E+00
         21   -1    0    0  501  502  0.00000000000E+00  0.00000000000E+00  0.38690190458E+03  0.38690190458E+03  0.00000000000E+00 0. -1.
         21   -1    0    0  502  503 -0.00000000000E+00 -0.00000000000E+00 -0.21957970361E+03  0.21957970361E+03  0.00000000000E+00 0.  1.
         -6    2    1    2    0  503 -0.42742897374E+02 -0.12437751807E+03 -0.12104482235E+03  0.24790945835E+03  0.17178628654E+03 0.  0.
        -24    2    3    3    0    0 -0.58740068615E+02 -0.14130373214E+03 -0.44241364662E+02  0.16751501001E+03  0.51834735967E+02 0.  0.
          6    2    1    2  501    0  0.42742897374E+02  0.12437751807E+03  0.28836702333E+03  0.35857214984E+03  0.16769533154E+03 0.  0.
         24    2    5    5    0    0  0.57778371773E+02  0.15178634178E+03  0.24383926003E+03  0.30396335191E+03  0.80985806031E+02 0.  0.
          5    1    5    5  501    0 -0.15035474399E+02 -0.27408823702E+02  0.44527763304E+02  0.54608797936E+02  0.47000000000E+01 0. -1.
        -11    1    6    6    0    0  0.36335418850E+02  0.71034522801E+02  0.53418403180E+02  0.96019226673E+02  0.00000000000E+00 0.  1.
         12    1    6    6    0    0  0.21442952924E+02  0.80751818976E+02  0.19042085685E+03  0.20794412523E+03  0.00000000000E+00 0. -1.
         -5    1    3    3    0  503  0.15997171240E+02  0.16926214069E+02 -0.76803457693E+02  0.80394448341E+02  0.47000000000E+01 0.  1.
         13    1    4    4    0    0 -0.46869275194E+02 -0.46748606900E+02 -0.20597781920E+02  0.69328420033E+02  0.00000000000E+00 0. -1.
        -14    1    4    4    0    0 -0.11870793421E+02 -0.94555125244E+02 -0.23643582742E+02  0.98186589977E+02  0.00000000000E+00 0.  1.
</event>
<event>
12    1  0.8407180E-002  0.3931626E+03  0.7818608E-02  0.1046235E+00
         21   -1    0    0  501  502  0.00000000000E+00  0.00000000000E+00  0.32611310943E+03  0.32611310943E+03  0.00000000000E+00 0. -1.
         21   -1    0    0  502  503 -0.00000000000E+00 -0.00000000000E+00 -0.47640363415E+03  0.47640363415E+03  0.00000000000E+00 0.  1.
         -6    2    1    2    0  503  0.22341679597E+01 -0.35257148488E+03 -0.42060857450E+02  0.39540601868E+03  0.17396884901E+03 0.  0.
        -24    2    3    3    0    0 -0.13178811012E+02 -0.23589550840E+03 -0.94073888244E+02  0.26664931486E+03  0.80197186497E+02 0.  0.
          6    2    1    2  501    0 -0.22341679597E+01  0.35257148488E+03 -0.10822966727E+03  0.40711072489E+03  0.17237702280E+03 0.  0.
         24    2    5    5    0    0 -0.46019108567E+02  0.10172253128E+03 -0.46262348244E+02  0.14499556476E+03  0.80114151129E+02 0.  0.
          5    1    5    5  501    0  0.43784940607E+02  0.25084895360E+03 -0.61967319028E+02  0.26211516014E+03  0.47000000000E+01 0. -1.
        -13    1    6    6    0    0  0.13350521011E+02  0.35291555804E+02  0.10734358999E+02  0.39229539705E+02  0.00000000000E+00 0.  1.
         14    1    6    6    0    0 -0.59369629578E+02  0.66430975472E+02 -0.56996707244E+02  0.10576602505E+03  0.00000000000E+00 0. -1.
         -5    1    3    3    0  503  0.15412978972E+02 -0.11667597648E+03  0.52013030794E+02  0.12875670383E+03  0.47000000000E+01 0.  1.
         11    1    4    4    0    0  0.95754926722E+01 -0.10460764537E+02  0.99572252630E+01  0.17328127122E+02  0.00000000000E+00 0. -1.
        -12    1    4    4    0    0 -0.22754303684E+02 -0.22543474386E+03 -0.10403111351E+03  0.24932118774E+03  0.00000000000E+00 0.  1.
</event>
<event>
12    1  0.8407180E-002  0.2088097E+03  0.7818608E-02  0.1144259E+00
         21   -1    0    0  501  502  0.00000000000E+00  0.00000000000E+00  0.95519500648E+02  0.95519500648E+02  0.00000000000E+00 0. -1.
         21   -1    0    0  502  503 -0.00000000000E+00 -0.00000000000E+00 -0.45109579360E+03  0.45109579360E+03  0.00000000000E+00 0. -1.
         -6    2    1    2    0  503 -0.87171135286E+02  0.50919223825E+02 -0.22085365541E+03  0.29811643197E+03  0.17293205522E+03 0.  0.
        -24    2    3    3    0    0  0.15776076236E+02  0.40543670940E+02 -0.14334731514E+03  0.16875220493E+03  0.77692857296E+02 0.  0.
          6    2    1    2  501    0  0.87171135286E+02 -0.50919223825E+02 -0.13472263755E+03  0.24849886228E+03  0.18278381029E+03 0.  0.
         24    2    5    5    0    0  0.54229951233E+02 -0.16360436511E+02  0.12064556727E+02  0.94070879742E+02  0.74129787487E+02 0.  0.
          5    1    5    5  501    0  0.32941184053E+02 -0.34558787314E+02 -0.14678719427E+03  0.15442798254E+03  0.47000000000E+01 0. -1.
        -13    1    6    6    0    0 -0.54597436083E+01  0.18870414927E+02 -0.90301678463E+01  0.21620483138E+02  0.00000000000E+00 0.  1.
         14    1    6    6    0    0  0.59689694841E+02 -0.35230851438E+02  0.21094724573E+02  0.72450396604E+02  0.00000000000E+00 0. -1.
         -5    1    3    3    0  503 -0.10294721152E+03  0.10375552885E+02 -0.77506340269E+02  0.12936422705E+03  0.47000000000E+01 0.  1.
         13    1    4    4    0    0  0.20982556664E+01  0.40876723121E+02 -0.21679434342E+02  0.46317459379E+02  0.00000000000E+00 0. -1.
        -14    1    4    4    0    0  0.13677820570E+02 -0.33305218147E+00 -0.12166788080E+03  0.12243474555E+03  0.00000000000E+00 0.  1.
</event>
<event>
12    1  0.8407180E-002  0.1884013E+03  0.7818608E-02  0.1159989E+00
         21   -1    0    0  501  502  0.00000000000E+00  0.00000000000E+00  0.58563640091E+03  0.58563640091E+03  0.00000000000E+00 0. -1.
         21   -1    0    0  502  503 -0.00000000000E+00 -0.00000000000E+00 -0.30546217479E+03  0.30546217479E+03  0.00000000000E+00 0. -1.
         -6    2    1    2    0  503 -0.74625797785E+02  0.17721790243E+02 -0.25893236025E+03  0.32001981989E+03  0.17170802659E+03 0.  0.
        -24    2    3    3    0    0 -0.68776175368E+02  0.94729532715E+01 -0.27817123709E+03  0.29778278376E+03  0.80470180946E+02 0.  0.
          6    2    1    2  501    0  0.74625797785E+02 -0.17721790243E+02  0.53910658637E+03  0.57107875581E+03  0.17208126665E+03 0.  0.
         24    2    5    5    0    0  0.80773886104E+02 -0.65143964458E+02  0.45937081688E+03  0.47798447815E+03  0.81727946092E+02 0.  0.
          5    1    5    5  501    0 -0.61480883190E+01  0.47422174215E+02  0.79735769487E+02  0.93094277659E+02  0.47000000000E+01 0. -1.
        -11    1    6    6    0    0  0.17061891807E+02 -0.16638951148E+02  0.28626609770E+03  0.28725640383E+03  0.00000000000E+00 0.  1.
         12    1    6    6    0    0  0.63711994297E+02 -0.48505013310E+02  0.17310471918E+03  0.19072807432E+03  0.00000000000E+00 0. -1.
         -5    1    3    3    0  503 -0.58496224167E+01  0.82488369711E+01  0.19238876837E+02  0.22237036127E+02  0.47000000000E+01 0.  1.
         11    1    4    4    0    0 -0.52060451111E+02  0.23193723099E+02 -0.26780212338E+03  0.27379959212E+03  0.00000000000E+00 0. -1.
        -12    1    4    4    0    0 -0.16715724258E+02 -0.13720769827E+02 -0.10369113707E+02  0.23983191639E+02  0.00000000000E+00 0.  1.
</event>
<event>
12    1  0.8407180E-002  0.1860687E+03  0.7818608E-02  0.1162100E+00
         21   -1    0    0  501  502  0.00000000000E+00  0.00000000000E+00  0.57351369879E+03  0.57351369879E+03  0.00000000000E+00 0.  1.
         21   -1    0    0  502  503 -0.00000000000E+00 -0.00000000000E+00 -0.66222849702E+02  0.66222849702E+02  0.00000000000E+00 0.  1.
         -6    2    1    2    0  503 -0.83791081782E+01 -0.69598228217E+02  0.15815115326E+03  0.24419937431E+03  0.17235841816E+03 0.  0.
        -24    2    3    3    0    0  0.37189124979E+02 -0.13612308056E+02  0.14458039303E+03  0.17059813341E+03  0.81436522057E+02 0.  0.
          6    2    1    2  501    0  0.83791081782E+01  0.69598228217E+02  0.34913969582E+03  0.39553717418E+03  0.17215401864E+03 0.  0.
         24    2    5    5    0    0  0.58554512317E+02  0.31007240964E+02  0.29499957978E+03  0.31211009439E+03  0.77445974989E+02 0.  0.
          5    1    5    5  501    0 -0.50175404139E+02  0.38590987253E+02  0.54140116040E+02  0.83427079791E+02  0.47000000000E+01 0. -1.
        -13    1    6    6    0    0 -0.12225556765E+02  0.26748996131E+02  0.11356810757E+03  0.11731448372E+03  0.00000000000E+00 0.  1.
         14    1    6    6    0    0  0.70780069082E+02  0.42582448332E+01  0.18143147221E+03  0.19479561067E+03  0.00000000000E+00 0. -1.
         -5    1    3    3    0  503 -0.45568233157E+02 -0.55985920162E+02  0.13570760230E+02  0.73601240904E+02  0.47000000000E+01 0.  1.
         11    1    4    4    0    0 -0.12237569510E+02  0.21550170452E+02  0.71217060065E+02  0.75405819393E+02  0.00000000000E+00 0. -1.
        -12    1    4    4    0    0  0.49426694489E+02 -0.35162478508E+02  0.73363332969E+02  0.95192314014E+02  0.00000000000E+00 0.  1.
</event>
<event>
12    1  0.8407180E-002  0.1917507E+03  0.7818608E-02  0.1157487E+00
         21   -1    0    0  503  502  0.00000000000E+00  0.00000000000E+00  0.86527245419E+03  0.86527245419E+03  0.00000000000E+00 0. -1.
         21   -1    0    0  501  503 -0.00000000000E+00 -0.00000000000E+00 -0.12356195720E+03  0.12356195720E+03  0.00000000000E+00 0. -1.
          6    2    1    2  501    0  0.38749519650E+02 -0.80356023123E+02 -0.31936786112E+02  0.19177830322E+03  0.16673435025E+03 0.  0.
         24    2    3    3    0    0 -0.41957737265E+02 -0.44810472354E+02 -0.18345395167E+02  0.10242527637E+03  0.79912161573E+02 0.  0.
         -6    2    1    2    0  502 -0.38749519650E+02  0.80356023123E+02  0.77364728310E+03  0.79705610817E+03  0.16973421929E+03 0.  0.
        -24    2    5    5    0    0  0.37086768141E+02  0.12948319322E+02  0.39373887148E+03  0.40380373082E+03  0.80523703095E+02 0.  0.
          5    1    3    3  501    0  0.80707256915E+02 -0.35545550769E+02 -0.13591390945E+02  0.89353026844E+02  0.47000000000E+01 0. -1.
        -13    1    4    4    0    0 -0.40213151431E+02 -0.52416871792E+01 -0.40273087549E+02  0.57153253742E+02  0.00000000000E+00 0.  1.
         14    1    4    4    0    0 -0.17445858338E+01 -0.39568785175E+02  0.21927692382E+02  0.45272022631E+02  0.00000000000E+00 0. -1.
         -5    1    5    5    0  502 -0.75836287791E+02  0.67407703801E+02  0.37990841162E+03  0.39325237736E+03  0.47000000000E+01 0.  1.
         13    1    6    6    0    0  0.18583115776E+02 -0.31535516784E+02  0.10806975135E+03  0.11410036007E+03  0.00000000000E+00 0. -1.
        -14    1    6    6    0    0  0.18503652366E+02  0.44483836106E+02  0.28566912013E+03  0.28970337074E+03  0.00000000000E+00 0.  1.
</event>
<event>
12    1  0.8407180E-002  0.2804510E+03  0.7818608E-02  0.1095598E+00
         21   -1    0    0  501  502  0.00000000000E+00  0.00000000000E+00  0.36721174199E+03  0.36721174199E+03  0.00000000000E+00 0. -1.
         21   -1    0    0  502  503 -0.00000000000E+00 -0.00000000000E+00 -0.51475612864E+03  0.51475612864E+03  0.00000000000E+00 0. -1.
         -6    2    1    2    0  503  0.21980067960E+03  0.12931179193E+02 -0.41128893611E+03  0.49780655029E+03  0.17370439948E+03 0.  0.
        -24    2    3    3    0    0  0.63799177871E+02  0.40107399607E+02 -0.10204760801E+03  0.15034820098E+03  0.80696521848E+02 0.  0.
          6    2    1    2  501    0 -0.21980067960E+03 -0.12931179193E+02  0.26374454946E+03  0.38416132034E+03  0.17186965562E+03 0.  0.
         24    2    5    5    0    0 -0.26837419243E+02  0.98011905125E+01  0.70007768787E+02  0.10973899860E+03  0.79531438541E+02 0.  0.
          5    1    5    5  501    0 -0.19296326036E+03 -0.22732369705E+02  0.19373678068E+03  0.27442232174E+03  0.47000000000E+01 0. -1.
        -13    1    6    6    0    0 -0.14342100821E+02 -0.27134238373E+02  0.63061179528E+02  0.70133266796E+02  0.00000000000E+00 0.  1.
         14    1    6    6    0    0 -0.12495318421E+02  0.36935428886E+02  0.69465892583E+01  0.39605731804E+02  0.00000000000E+00 0. -1.
         -5    1    3    3    0  503  0.15600150173E+03 -0.27176220414E+02 -0.30924132810E+03  0.34745834931E+03  0.47000000000E+01 0.  1.
         11    1    4    4    0    0  0.63138393863E+02  0.46275121699E+02 -0.11317438920E+03  0.13760917861E+03  0.00000000000E+00 0. -1.
        -12    1    4    4    0    0  0.66078400867E+00 -0.61677220919E+01  0.11126781191E+02  0.12739022371E+02  0.00000000000E+00 0.  1.
</event>
<event>
12    1  0.8407180E-002  0.2617158E+03  0.7818608E-02  0.1106247E+00
         21   -1    0    0  503  502  0.00000000000E+00  0.00000000000E+00  0.29940622297E+03  0.29940622297E+03  0.00000000000E+00 0.  1.
         21   -1    0    0  501  503 -0.00000000000E+00 -0.00000000000E+00 -0.22810364448E+03  0.22810364448E+03  0.00000000000E+00 0.  1.
          6    2    1    2  501    0 -0.16109407143E+03 -0.11419858833E+03  0.30366779243E+02  0.26347163706E+03  0.17176304849E+03 0.  0.
         24    2    3    3    0    0 -0.60811804733E+02 -0.70612390879E+01  0.51019268625E+02  0.11520309712E+03  0.83191652966E+02 0.  0.
         -6    2    1    2    0  502  0.16109407143E+03  0.11419858833E+03  0.40935799251E+02  0.26403823040E+03  0.17043423958E+03 0.  0.
        -24    2    5    5    0    0  0.14078752433E+03  0.11975143725E+03  0.85302039763E+02  0.21470626020E+03  0.68270099237E+02 0.  0.
          5    1    3    3  501    0 -0.10028226670E+03 -0.10713734924E+03 -0.20652489382E+02  0.14826853994E+03  0.47000000000E+01 0. -1.
        -13    1    4    4    0    0 -0.14422849644E+02 -0.42358482176E+02  0.26161565267E+02  0.51833262500E+02  0.00000000000E+00 0.  1.
         14    1    4    4    0    0 -0.46388955089E+02  0.35297243089E+02  0.24857703358E+02  0.63369834623E+02  0.00000000000E+00 0. -1.
         -5    1    5    5    0  502  0.20306547100E+02 -0.55528489201E+01 -0.44366240512E+02  0.49331970196E+02  0.47000000000E+01 0.  1.
         13    1    6    6    0    0  0.26906259325E+02  0.50371199885E+02  0.52057625016E+02  0.77273545868E+02  0.00000000000E+00 0. -1.
        -14    1    6    6    0    0  0.11388126501E+03  0.69380237366E+02  0.33244414747E+02  0.13743271433E+03  0.00000000000E+00 0.  1.
</event>
<event>
12    1  0.8407180E-002  0.1836188E+03  0.7818608E-02  0.1164365E+00
         21   -1    0    0  501  502  0.00000000000E+00  0.00000000000E+00  0.10937765551E+04  0.10937765551E+04  0.00000000000E+00 0. -1.
         21   -1    0    0  502  503 -0.00000000000E+00 -0.00000000000E+00 -0.30897809614E+02  0.30897809614E+02  0.00000000000E+00 0. -1.
         -6    2    1    2    0  503  0.24929143313E+02  0.59822195470E+02  0.50164267248E+03  0.53416457819E+03  0.17171566173E+03 0.  0.
        -24    2    3    3    0    0  0.21318153620E+02  0.31024623167E+01  0.12143748707E+03  0.14970620543E+03  0.84857502503E+02 0.  0.
          6    2    1    2  501    0 -0.24929143313E+02 -0.59822195470E+02  0.56123607303E+03  0.59050978655E+03  0.17180140012E+03 0.  0.
         24    2    5    5    0    0  0.10582554168E+01  0.58146349099E+01  0.12320579053E+03  0.14680249927E+03  0.79601363611E+02 0.  0.
          5    1    5    5  501    0 -0.25987398729E+02 -0.65636830380E+02  0.43803028250E+03  0.44370728728E+03  0.47000000000E+01 0. -1.
        -11    1    6    6    0    0  0.27887194344E+02  0.18232895684E+02  0.18725555180E+02  0.38220158427E+02  0.00000000000E+00 0.  1.
         12    1    6    6    0    0 -0.26828938927E+02 -0.12418260774E+02  0.10448023535E+03  0.10858234084E+03  0.00000000000E+00 0. -1.
         -5    1    3    3    0  503  0.36109896928E+01  0.56719733154E+02  0.38020518541E+03  0.38445837276E+03  0.47000000000E+01 0.  1.
         13    1    4    4    0    0  0.47776023419E+02  0.22002759742E+02  0.57196956994E+02  0.77705609446E+02  0.00000000000E+00 0. -1.
        -14    1    4    4    0    0 -0.26457869799E+02 -0.18900297425E+02  0.64240530080E+02  0.72000595984E+02  0.00000000000E+00 0.  1.
</event>
<event>
12    1  0.8407180E-002  0.1815168E+03  0.7818608E-02  0.1166389E+00
         21   -1    0    0  501  502  0.00000000000E+00  0.00000000000E+00  0.80505746437E+03  0.80505746437E+03  0.00000000000E+00 0. -1.
         21   -1    0    0  502  503 -0.00000000000E+00 -0.00000000000E+00 -0.62427591858E+02  0.62427591858E+02  0.00000000000E+00 0. -1.
         -6    2    1    2    0  503 -0.49501323896E+02  0.27572174311E+02  0.62624918355E+03  0.65202485079E+03  0.17244639830E+03 0.  0.
        -24    2    3    3    0    0 -0.63824535840E+01  0.57438884684E+02  0.20734459829E+03  0.22982300461E+03  0.80541106405E+02 0.  0.
          6    2    1    2  501    0  0.49501323896E+02 -0.27572174311E+02  0.11638068897E+03  0.21546020544E+03  0.17224409860E+03 0.  0.
         24    2    5    5    0    0  0.30289919573E+02 -0.35747266428E+02  0.14954861676E+03  0.17598728280E+03  0.80071147412E+02 0.  0.
          5    1    5    5  501    0  0.19211404323E+02  0.81750921167E+01 -0.33167927798E+02  0.39472922638E+02  0.47000000000E+01 0. -1.
        -11    1    6    6    0    0 -0.23482139168E+02 -0.10837493927E+02  0.82715039823E+02  0.86663948372E+02  0.00000000000E+00 0.  1.
         12    1    6    6    0    0  0.53772058741E+02 -0.24909772500E+02  0.66833576941E+02  0.89323334431E+02  0.00000000000E+00 0. -1.
         -5    1    3    3    0  503 -0.43118870312E+02 -0.29866710373E+02  0.41890458526E+03  0.42220184618E+03  0.47000000000E+01 0.  1.
         13    1    4    4    0    0  0.30279544767E+02  0.19298630458E+02  0.13804306910E+03  0.14263652020E+03  0.00000000000E+00 0. -1.
        -14    1    4    4    0    0 -0.36661998351E+02  0.38140254226E+02  0.69301529190E+02  0.87186484409E+02  0.00000000000E+00 0.  1.
</event>
<event>
12    1  0.8407180E-002  0.3088529E+03  0.7818608E-02  0.1080996E+00
         21   -1    0    0  503  502  0.00000000000E+00  0.00000000000E+00  0.40422942683E+03  0.40422942683E+03  0.00000000000E+00 0.  1.
         21   -1    0    0  501  503 -0.00000000000E+00 -0.00000000000E+00 -0.27463133664E+03  0.27463133664E+03  0.00000000000E+00 0. -1.
          6    2    1    2  501    0 -0.22588405972E+03  0.12221114722E+03 -0.63491084994E+02  0.31531132333E+03  0.17155448058E+03 0.  0.
         24    2    3    3    0    0 -0.17567728595E+03  0.10735704911E+03 -0.10758535612E+03  0.24669821154E+03  0.83050309665E+02 0.  0.
         -6    2    1    2    0  502  0.22588405972E+03 -0.12221114722E+03  0.19308917518E+03  0.36354944014E+03  0.17007525662E+03 0.  0.
        -24    2    5    5    0    0  0.14223975352E+03 -0.83764199998E+02  0.19962081295E+03  0.27114116127E+03  0.80127845918E+02 0.  0.
          5    1    3    3  501    0 -0.50206773770E+02  0.14854098115E+02  0.44094271125E+02  0.68613111788E+02  0.47000000000E+01 0. -1.
        -13    1    4    4    0    0 -0.30228595074E+02  0.59137013222E+02 -0.16488420717E+02  0.68431150149E+02  0.00000000000E+00 0.  1.
         14    1    4    4    0    0 -0.14544869088E+03  0.48220035886E+02 -0.91096935402E+02  0.17826706139E+03  0.00000000000E+00 0. -1.
         -5    1    5    5    0  502  0.83644306201E+02 -0.38446947225E+02 -0.65316377730E+01  0.92408278865E+02  0.47000000000E+01 0.  1.
         13    1    6    6    0    0  0.11423971663E+02 -0.72380020962E+01 -0.67368040787E+01  0.15108948742E+02  0.00000000000E+00 0. -1.
        -14    1    6    6    0    0  0.13081578186E+03 -0.76526197902E+02  0.20635761703E+03  0.25603221253E+03  0.00000000000E+00 0.  1.
</event>
<event>
12    1  0.8407180E-002  0.2062698E+03  0.7818608E-02  0.1145064E+00
         21   -1    0    0  503  502  0.00000000000E+00  0.00000000000E+00  0.89949635913E+02  0.89949635913E+02  0.00000000000E+00 0.  1.
         21   -1    0    0  501  503 -0.00000000000E+00 -0.00000000000E+00 -0.50762557527E+03  0.50762557527E+03  0.00000000000E+00 0.  1.
          6    2    1    2  501    0  0.87834455377E+02 -0.64899993289E+02 -0.29421633863E+03  0.35931949354E+03  0.17498669617E+03 0.  0.
         24    2    3    3    0    0  0.92274077088E+02 -0.69685755612E+02 -0.11872861979E+03  0.18364751732E+03  0.79115836746E+02 0.  0.
         -6    2    1    2    0  502 -0.87834455377E+02  0.64899993289E+02 -0.12345960072E+03  0.23825571764E+03  0.17203666266E+03 0.  0.
        -24    2    5    5    0    0  0.72878064886E+01 -0.10440856317E+02 -0.30254718168E+02  0.85174927032E+02  0.78595779909E+02 0.  0.
          5    1    3    3  501    0 -0.44396217111E+01  0.47857623229E+01 -0.17548771885E+03  0.17567197622E+03  0.47000000000E+01 0. -1.
        -11    1    4    4    0    0  0.40221806789E+02 -0.32740009942E+02 -0.10677892443E+03  0.11870737422E+03  0.00000000000E+00 0.  1.
         12    1    4    4    0    0  0.52052270300E+02 -0.36945745670E+02 -0.11949695356E+02  0.64940143098E+02  0.00000000000E+00 0. -1.
         -5    1    5    5    0  502 -0.95122261866E+02  0.75340849606E+02 -0.93204882550E+02  0.15308079061E+03  0.47000000000E+01 0.  1.
         11    1    6    6    0    0  0.30123466459E+02  0.11235346314E+01 -0.46092450280E+02  0.55074490777E+02  0.00000000000E+00 0. -1.
        -12    1    6    6    0    0 -0.22835659970E+02 -0.11564390948E+02  0.15837732112E+02  0.30100436255E+02  0.00000000000E+00 0.  1.
</event>
<event>
12    1  0.8407180E-002  0.2081813E+03  0.7818608E-02  0.1143119E+00
         21   -1    0    0  503  502  0.00000000000E+00  0.00000000000E+00  0.20250864889E+02  0.20250864889E+02  0.00000000000E+00 0.  1.
         21   -1    0    0  501  503 -0.00000000000E+00 -0.00000000000E+00 -0.21931112182E+04  0.21931112182E+04  0.00000000000E+00 0.  1.
          6    2    1    2  501    0 -0.10457473332E+03 -0.55239676800E+02 -0.90727250329E+03  0.93085059910E+03  0.17132467974E+03 0.  0.
         24    2    3    3    0    0 -0.11370006943E+03 -0.64471704627E+02 -0.48798541129E+03  0.51133628753E+03  0.79061563535E+02 0.  0.
         -6    2    1    2    0  502  0.10457473332E+03  0.55239676800E+02 -0.12655878500E+04  0.12825114840E+04  0.17069213130E+03 0.  0.
        -24    2    5    5    0    0  0.66966744544E+01 -0.31070073406E+02 -0.49793066131E+03  0.50382724967E+03  0.69976847083E+02 0.  0.
          5    1    3    3  501    0  0.91253361124E+01  0.92320278273E+01 -0.41928709200E+03  0.41951431157E+03  0.47000000000E+01 0. -1.
        -11    1    4    4    0    0 -0.10635202957E+03 -0.54138405529E+02 -0.48330465863E+03  0.49782036338E+03  0.00000000000E+00 0.  1.
         12    1    4    4    0    0 -0.73480398663E+01 -0.10333299098E+02 -0.46807526604E+01  0.13515924149E+02  0.00000000000E+00 0. -1.
         -5    1    5    5    0  502  0.97878058866E+02  0.86309750206E+02 -0.76765718871E+03  0.77868423432E+03  0.47000000000E+01 0.  1.
         11    1    6    6    0    0  0.11828587702E+02 -0.39507437314E+02 -0.48828257862E+03  0.49002105023E+03  0.00000000000E+00 0. -1.
        -12    1    6    6    0    0 -0.51319132474E+01  0.84373639081E+01 -0.96480826965E+01  0.13806199441E+02  0.00000000000E+00 0.  1.
</event>
<event>
12    1  0.8407180E-002  0.1840012E+03  0.7818608E-02  0.1164090E+00
         21   -1    0    0  503  502  0.00000000000E+00  0.00000000000E+00  0.21250994466E+03  0.21250994466E+03  0.00000000000E+00 0.  1.
         21   -1    0    0  501  503 -0.00000000000E+00 -0.00000000000E+00 -0.16450000424E+03  0.16450000424E+03  0.00000000000E+00 0.  1.
          6    2    1    2  501    0 -0.21878068439E+02 -0.60059541454E+02 -0.10639005002E+02  0.18430850320E+03  0.17254169793E+03 0.  0.
         24    2    3    3    0    0 -0.41804901214E+02 -0.10125321282E+03 -0.22141746625E+02  0.13689120372E+03  0.79051134331E+02 0.  0.
         -6    2    1    2    0  502  0.21878068439E+02  0.60059541454E+02  0.58648945420E+02  0.19270144570E+03  0.17207077026E+03 0.  0.
        -24    2    5    5    0    0 -0.27258763008E+02  0.89382192242E+02  0.23770030119E+02  0.12552351193E+03  0.80367414192E+02 0.  0.
          5    1    3    3  501    0  0.19926832774E+02  0.41193671368E+02  0.11502741623E+02  0.47417299480E+02  0.47000000000E+01 0. -1.
        -13    1    4    4    0    0 -0.43744013647E+01 -0.70614172892E+02  0.19146733134E+02  0.73294571356E+02  0.00000000000E+00 0.  1.
         14    1    4    4    0    0 -0.37430499849E+02 -0.30639039930E+02 -0.41288479759E+02  0.63596632361E+02  0.00000000000E+00 0. -1.
         -5    1    5    5    0  502  0.49136831447E+02 -0.29322650788E+02  0.34878915301E+02  0.67177933776E+02  0.47000000000E+01 0.  1.
         11    1    6    6    0    0 -0.49750827668E+02  0.44748101349E+02 -0.62736188806E+01  0.67207854614E+02  0.00000000000E+00 0. -1.
        -12    1    6    6    0    0  0.22492064661E+02  0.44634090893E+02  0.30043649000E+02  0.58315657312E+02  0.00000000000E+00 0.  1.
</event>
<event>
12    1  0.8407180E-002  0.2325076E+03  0.7818608E-02  0.1125384E+00
         21   -1    0    0  501  502  0.00000000000E+00  0.00000000000E+00  0.87223699384E+02  0.87223699384E+02  0.00000000000E+00 0.  1.
         21   -1    0    0  502  503 -0.00000000000E+00 -0.00000000000E+00 -0.69816977687E+03  0.69816977687E+03  0.00000000000E+00 0.  1.
         -6    2    1    2    0  503 -0.14522974400E+03  0.48594744356E+02 -0.44160655156E+03  0.49775540364E+03  0.17114604216E+03 0.  0.
        -24    2    3    3    0    0 -0.11426486362E+03  0.49058855143E+02 -0.44321339118E+03  0.46639123380E+03  0.74962940974E+02 0.  0.
          6    2    1    2  501    0  0.14522974400E+03 -0.48594744356E+02 -0.16933952592E+03  0.28763807261E+03  0.17494758660E+03 0.  0.
         24    2    5    5    0    0  0.12984341651E+02  0.13790842537E+02 -0.72691492323E+02  0.11229914284E+03  0.83476128092E+02 0.  0.
          5    1    5    5  501    0  0.13224540235E+03 -0.62385586893E+02 -0.96648033598E+02  0.17533892977E+03  0.47000000000E+01 0. -1.
        -11    1    6    6    0    0  0.30769326915E+02  0.19514483527E+02  0.82560836357E+00  0.36445139255E+02  0.00000000000E+00 0.  1.
         12    1    6    6    0    0 -0.17784985264E+02 -0.57236409903E+01 -0.73517100686E+02  0.75854003588E+02  0.00000000000E+00 0. -1.
         -5    1    3    3    0  503 -0.30964880381E+02 -0.46411078727E+00  0.16068396215E+01  0.31364169835E+02  0.47000000000E+01 0.  1.
         11    1    4    4    0    0 -0.15501510026E+01  0.30493260023E+02 -0.79542048577E+02  0.85200817876E+02  0.00000000000E+00 0. -1.
        -12    1    4    4    0    0 -0.11271471262E+03  0.18565595120E+02 -0.36367134261E+03  0.38119041593E+03  0.00000000000E+00 0.  1.
</event>
<event>
12    1  0.8407180E-002  0.2295080E+03  0.7818608E-02  0.1127001E+00
         21   -1    0    0  503  502  0.00000000000E+00  0.00000000000E+00  0.64280104568E+03  0.64280104568E+03  0.00000000000E+00 0.  1.
         21   -1    0    0  501  503 -0.00000000000E+00 -0.00000000000E+00 -0.85144925811E+02  0.85144925811E+02  0.00000000000E+00 0.  1.
          6    2    1    2  501    0  0.10310085262E+03  0.11197519549E+03  0.34966920419E+03  0.41821625953E+03  0.17166262600E+03 0.  0.
         24    2    3    3    0    0  0.94952330006E+02  0.48114881184E+02  0.11848999994E+03  0.17819448419E+03  0.79889970232E+02 0.  0.
         -6    2    1    2    0  502 -0.10310085262E+03 -0.11197519549E+03  0.20798691568E+03  0.30972971196E+03  0.17177225375E+03 0.  0.
        -24    2    5    5    0    0 -0.55065826529E+02 -0.66240403494E+01  0.36232240602E+02  0.10253900746E+03  0.78264612881E+02 0.  0.
          5    1    3    3  501    0  0.81485226141E+01  0.63860314302E+02  0.23117920425E+03  0.24002177535E+03  0.47000000000E+01 0. -1.
        -13    1    4    4    0    0  0.10464868636E+03  0.55618561001E+02  0.11569265711E+03  0.16561872718E+03  0.00000000000E+00 0.  1.
         14    1    4    4    0    0 -0.96963563526E+01 -0.75036798163E+01  0.27973428293E+01  0.12575757003E+02  0.00000000000E+00 0. -1.
         -5    1    5    5    0  502 -0.48035026091E+02 -0.10535115514E+03  0.17175467508E+03  0.20719070450E+03  0.47000000000E+01 0.  1.
         13    1    6    6    0    0 -0.71415029760E+02 -0.20694802881E+02  0.28260090486E+02  0.79542529858E+02  0.00000000000E+00 0. -1.
        -14    1    6    6    0    0  0.16349203231E+02  0.14070762532E+02  0.79721501160E+01  0.22996477599E+02  0.00000000000E+00 0.  1.
</event>
<event>
12    1  0.8407180E-002  0.2380884E+03  0.7818608E-02  0.1121288E+00
         21   -1    0    0  503  502  0.00000000000E+00  0.00000000000E+00  0.14143496695E+03  0.14143496695E+03  0.00000000000E+00 0. -1.
         21   -1    0    0  501  503 -0.00000000000E+00 -0.00000000000E+00 -0.40235418032E+03  0.40235418032E+03  0.00000000000E+00 0.  1.
          6    2    1    2  501    0 -0.15966609812E+03  0.65521164312E-01 -0.15621935582E+03  0.28369654192E+03  0.17488846041E+03 0.  0.
         24    2    3    3    0    0 -0.11314356270E+03 -0.64514907844E+02 -0.84800941886E+02  0.17665609181E+03  0.83979377894E+02 0.  0.
         -6    2    1    2    0  502  0.15966609812E+03 -0.65521164312E-01 -0.10469985755E+03  0.26009260535E+03  0.17661493709E+03 0.  0.
        -24    2    5    5    0    0  0.13400400340E+03  0.59588479619E+02 -0.45752578775E+02  0.17226314224E+03  0.77932226201E+02 0.  0.
          5    1    3    3  501    0 -0.46522535416E+02  0.64580429008E+02 -0.71418413935E+02  0.10704045012E+03  0.47000000000E+01 0. -1.
        -11    1    4    4    0    0 -0.15270039167E+02 -0.22472899383E+02 -0.62042434807E+02  0.67730857219E+02  0.00000000000E+00 0.  1.
         12    1    4    4    0    0 -0.97873523538E+02 -0.42042008460E+02 -0.22758507079E+02  0.10892523459E+03  0.00000000000E+00 0. -1.
         -5    1    5    5    0  502  0.25662094723E+02 -0.59654000783E+02 -0.58947278771E+02  0.87829463107E+02  0.47000000000E+01 0.  1.
         11    1    6    6    0    0  0.10123601000E+03  0.47480898275E+02  0.35088006166E+01  0.11187259317E+03  0.00000000000E+00 0. -1.
        -12    1    6    6    0    0  0.32767993401E+02  0.12107581344E+02 -0.49261379392E+02  0.60390549071E+02  0.00000000000E+00 0.  1.
</event>
<event>
12    1  0.8407180E-002  0.1881657E+03  0.7818608E-02  0.1160541E+00
         21   -1    0    0  501  502  0.00000000000E+00  0.00000000000E+00  0.43879664002E+03  0.43879664002E+03  0.00000000000E+00 0.  1.
         21   -1    0    0  502  503 -0.00000000000E+00 -0.00000000000E+00 -0.20025831813E+03  0.20025831813E+03  0.00000000000E+00 0.  1.
         -6    2    1    2    0  503 -0.79169271180E+02 -0.15585771625E+02 -0.12865727257E+03  0.22645472563E+03  0.16798321106E+03 0.  0.
        -24    2    3    3    0    0 -0.98664113931E+02 -0.31703644675E+02 -0.46985979681E+02  0.14082689833E+03  0.82974722310E+02 0.  0.
          6    2    1    2  501    0  0.79169271180E+02  0.15585771625E+02  0.36719559446E+03  0.41260023252E+03  0.16998722748E+03 0.  0.
         24    2    5    5    0    0 -0.18249906946E+02  0.27003698160E+02  0.18603183645E+03  0.20653407195E+03  0.83583610159E+02 0.  0.
          5    1    5    5  501    0  0.97419178126E+02 -0.11417926535E+02  0.18116375801E+03  0.20606616057E+03  0.47000000000E+01 0. -1.
        -13    1    6    6    0    0 -0.24489311285E+02 -0.22940818668E+02  0.11270790639E+03  0.11759710750E+03  0.00000000000E+00 0.  1.
         14    1    6    6    0    0  0.62394043387E+01  0.49944516828E+02  0.73323930054E+02  0.88936964454E+02  0.00000000000E+00 0. -1.
         -5    1    3    3    0  503  0.19494842751E+02  0.16117873050E+02 -0.81671292892E+02  0.85627827300E+02  0.47000000000E+01 0.  1.
         11    1    4    4    0    0 -0.71287641776E+02  0.20181736069E+02 -0.26710853962E+02  0.78757222272E+02  0.00000000000E+00 0. -1.
        -12    1    4    4    0    0 -0.27376472155E+02 -0.51885380744E+02 -0.20275125719E+02  0.62069676055E+02  0.00000000000E+00 0.  1.
</event>
<event>
12    1  0.8407180E-002  0.1899519E+03  0.7818608E-02  0.1159501E+00
         21   -1    0    0  503  502  0.00000000000E+00  0.00000000000E+00  0.21756956197E+02  0.21756956197E+02  0.00000000000E+00 0.  1.
         21   -1    0    0  501  503 -0.00000000000E+00 -0.00000000000E+00 -0.19224526477E+04  0.19224526477E+04  0.00000000000E+00 0.  1.
          6    2    1    2  501    0  0.47093184952E+02 -0.63092686535E+02 -0.55583044642E+03  0.58599597856E+03  0.16806351943E+03 0.  0.
         24    2    3    3    0    0  0.89644298830E+02 -0.10940809842E+02 -0.36861444760E+03  0.38699262244E+03  0.75702557487E+02 0.  0.
         -6    2    1    2    0  502 -0.47093184952E+02  0.63092686535E+02 -0.13448652451E+04  0.13582136253E+04  0.17286778024E+03 0.  0.
        -24    2    5    5    0    0  0.17953315568E+02 -0.16562055123E+02 -0.71784668365E+03  0.72280014461E+03  0.80867574566E+02 0.  0.
          5    1    3    3  501    0 -0.42551113879E+02 -0.52151876693E+02 -0.18721599882E+03  0.19900335612E+03  0.47000000000E+01 0. -1.
        -13    1    4    4    0    0  0.49417332748E+02 -0.42175487596E+02 -0.17114721491E+03  0.18306341442E+03  0.00000000000E+00 0.  1.
         14    1    4    4    0    0  0.40226966082E+02  0.31234677753E+02 -0.19746723270E+03  0.20392920802E+03  0.00000000000E+00 0. -1.
         -5    1    5    5    0  502 -0.65046500520E+02  0.79654741659E+02 -0.62701856144E+03  0.63541348072E+03  0.47000000000E+01 0.  1.
         11    1    6    6    0    0 -0.26391684246E+02  0.58882798774E+01 -0.12594022590E+03  0.12881045508E+03  0.00000000000E+00 0. -1.
        -12    1    6    6    0    0  0.44344999814E+02 -0.22450335001E+02 -0.59190645774E+03  0.59398968953E+03  0.00000000000E+00 0.  1.
</event>
<event>
12    1  0.8407180E-002  0.1888758E+03  0.7818608E-02  0.1159638E+00
         21   -1    0    0  501  502  0.00000000000E+00  0.00000000000E+00  0.12470536041E+03  0.12470536041E+03  0.00000000000E+00 0.  1.
         21   -1    0    0  502  503 -0.00000000000E+00 -0.00000000000E+00 -0.28596167355E+03  0.28596167355E+03  0.00000000000E+00 0.  1.
         -6    2    1    2    0  503 -0.96865617231E+00 -0.76216437830E+02 -0.68933051994E+02  0.20106172106E+03  0.17281251785E+03 0.  0.
        -24    2    3    3    0    0 -0.38910360324E+01  0.16717780409E+02  0.73965867891E+01  0.80672298844E+02  0.78477295834E+02 0.  0.
          6    2    1    2  501    0  0.96865617231E+00  0.76216437830E+02 -0.92323261151E+02  0.20960531291E+03  0.17204917599E+03 0.  0.
         24    2    5    5    0    0  0.32037217448E+01  0.22752217602E+02  0.19469273375E+02  0.85576771278E+02  0.80102458999E+02 0.  0.
          5    1    5    5  501    0 -0.22350655725E+01  0.53464220229E+02 -0.11179253453E+03  0.12402854163E+03  0.47000000000E+01 0. -1.
        -13    1    6    6    0    0 -0.27263312748E+02  0.37164542090E+02  0.23316192242E+02  0.51654004989E+02  0.00000000000E+00 0.  1.
         14    1    6    6    0    0  0.30467034492E+02 -0.14412324488E+02 -0.38469188667E+01  0.33922766289E+02  0.00000000000E+00 0. -1.
         -5    1    3    3    0  503  0.29223798601E+01 -0.92934218239E+02 -0.76329638783E+02  0.12038942221E+03  0.47000000000E+01 0.  1.
         11    1    4    4    0    0  0.29261648858E+02 -0.10527982724E+02 -0.12317610309E+02  0.33448558084E+02  0.00000000000E+00 0. -1.
        -12    1    4    4    0    0 -0.33152684891E+02  0.27245763133E+02  0.19714197098E+02  0.47223740760E+02  0.00000000000E+00 0.  1.
</event>
<event>
12    1  0.8407180E-002  0.2710389E+03  0.7818608E-02  0.1100989E+00
         21   -1    0    0  501  502  0.00000000000E+00  0.00000000000E+00  0.90848844275E+02  0.90848844275E+02  0.00000000000E+00 0. -1.
         21   -1    0    0  502  503 -0.00000000000E+00 -0.00000000000E+00 -0.10918154177E+04  0.10918154177E+04  0.00000000000E+00 0. -1.
         -6    2    1    2    0  503 -0.43795447743E+02  0.20392604147E+03 -0.19455051851E+03  0.33191814059E+03  0.16975239665E+03 0.  0.
        -24    2    3    3    0    0  0.46547165328E+01  0.20695093866E+03 -0.14583405077E+03  0.26298373228E+03  0.71010673004E+02 0.  0.
          6    2    1    2  501    0  0.43795447743E+02 -0.20392604147E+03 -0.80641605487E+03  0.85074612134E+03  0.17308448162E+03 0.  0.
         24    2    5    5    0    0 -0.16712881077E+02 -0.48481758464E+02 -0.40524144831E+03  0.41624947241E+03  0.80082398540E+02 0.  0.
          5    1    5    5  501    0  0.60508328819E+02 -0.15544428301E+03 -0.40117460656E+03  0.43449664893E+03  0.47000000000E+01 0. -1.
        -13    1    6    6    0    0  0.86371149691E+01 -0.45079081737E+02 -0.36927029302E+03  0.37211190880E+03  0.00000000000E+00 0.  1.
         14    1    6    6    0    0 -0.25349996046E+02 -0.34026767265E+01 -0.35971155293E+02  0.44137563611E+02  0.00000000000E+00 0. -1.
         -5    1    3    3    0  503 -0.48450164275E+02 -0.30248971857E+01 -0.48716467732E+02  0.68934408314E+02  0.47000000000E+01 0.  1.
         13    1    4    4    0    0 -0.24357333867E+01  0.12360492170E+03 -0.44058613635E+02  0.13124507953E+03  0.00000000000E+00 0. -1.
        -14    1    4    4    0    0  0.70904499196E+01  0.83346016957E+02 -0.10177543714E+03  0.13173865275E+03  0.00000000000E+00 0.  1.
</event>
<event>
12    1  0.8407180E-002  0.2281455E+03  0.7818608E-02  0.1128272E+00
         21   -1    0    0  501  502  0.00000000000E+00  0.00000000000E+00  0.13252285182E+04  0.13252285182E+04  0.00000000000E+00 0.  1.
         21   -1    0    0  502  503 -0.00000000000E+00 -0.00000000000E+00 -0.89554205591E+02  0.89554205591E+02  0.00000000000E+00 0. -1.
         -6    2    1    2    0  503  0.14622254397E+03 -0.33224361602E+02  0.85121657671E+02  0.24182841810E+03  0.16955941916E+03 0.  0.
        -24    2    3    3    0    0  0.40184685733E+02 -0.65705408866E+02 -0.49187234871E+00  0.10164706294E+03  0.66331544117E+02 0.  0.
          6    2    1    2  501    0 -0.14622254397E+03  0.33224361602E+02  0.11505526550E+04  0.11729543057E+04  0.17194621512E+03 0.  0.
         24    2    5    5    0    0 -0.56391045691E+02  0.80721995128E+02  0.64619013671E+03  0.65843573162E+03  0.79246005347E+02 0.  0.
          5    1    5    5  501    0 -0.89831498276E+02 -0.47497633526E+02  0.50436251825E+03  0.51451857409E+03  0.47000000000E+01 0. -1.
        -11    1    6    6    0    0 -0.50066328239E+02  0.54107424581E+01  0.23131928773E+03  0.23673725147E+03  0.00000000000E+00 0.  1.
         12    1    6    6    0    0 -0.63247174523E+01  0.75311252670E+02  0.41487084898E+03  0.42169848016E+03  0.00000000000E+00 0. -1.
         -5    1    3    3    0  503  0.10603785823E+03  0.32481047264E+02  0.85613530019E+02  0.14018135515E+03  0.47000000000E+01 0.  1.
         11    1    4    4    0    0  0.36241420655E+02 -0.53160540210E+02 -0.28756750046E+02  0.70472932958E+02  0.00000000000E+00 0. -1.
        -12    1    4    4    0    0  0.39432650779E+01 -0.12544868657E+02  0.28264877698E+02  0.31174129985E+02  0.00000000000E+00 0.  1.
</event>
<event>
12    1  0.8407180E-002  0.3104013E+03  0.7818608E-02  0.1080197E+00
         21   -1    0    0  501  502  0.00000000000E+00  0.00000000000E+00  0.86856408839E+02  0.86856408839E+02  0.00000000000E+00 0. -1.
         21   -1    0    0  502  503 -0.00000000000E+00 -0.00000000000E+00 -0.14427597769E+04  0.14427597769E+04  0.00000000000E+00 0.  1.
         -6    2    1    2    0  503 -0.63879395077E+02  0.25068023370E+03 -0.30923911184E+03  0.43789504932E+03  0.17088618798E+03 0.  0.
        -24    2    3    3    0    0  0.28416222221E+02  0.88514750892E+02 -0.11286515923E+03  0.16696896337E+03  0.80608608401E+02 0.  0.
          6    2    1    2  501    0  0.63879395077E+02 -0.25068023370E+03 -0.10466642562E+04  0.10917211364E+04  0.17154538110E+03 0.  0.
         24    2    5    5    0    0  0.40580678340E+02 -0.26672257954E+03 -0.95586636672E+03  0.99650278840E+03  0.80929415997E+02 0.  0.
          5    1    5    5  501    0  0.23298716736E+02  0.16042345843E+02 -0.90797889463E+02  0.95218347983E+02  0.47000000000E+01 0. -1.
        -13    1    6    6    0    0  0.21560725670E+02 -0.21876888752E+03 -0.85984295321E+03  0.88749906773E+03  0.00000000000E+00 0.  1.
         14    1    6    6    0    0  0.19019952670E+02 -0.47953692020E+02 -0.96023413513E+02  0.10900372067E+03  0.00000000000E+00 0. -1.
         -5    1    3    3    0  503 -0.92295617298E+02  0.16216548281E+03 -0.19637395261E+03  0.27092608595E+03  0.47000000000E+01 0.  1.
         13    1    4    4    0    0  0.13949433265E+02 -0.13697017165E+02 -0.14123286826E+02  0.24117673984E+02  0.00000000000E+00 0. -1.
        -14    1    4    4    0    0  0.14466788956E+02  0.10221176806E+03 -0.98741872409E+02  0.14285128938E+03  0.00000000000E+00 0.  1.
</event>
<event>
12    1  0.8407180E-002  0.1938040E+03  0.7818608E-02  0.1155488E+00
         21   -1    0    0  501  502  0.00000000000E+00  0.00000000000E+00  0.59807570808E+03  0.59807570808E+03  0.00000000000E+00 0.  1.
         21   -1    0    0  502  503 -0.00000000000E+00 -0.00000000000E+00 -0.15702795474E+03  0.15702795474E+03  0.00000000000E+00 0.  1.
         -6    2    1    2    0  503 -0.79602111419E+02 -0.37155146034E+02 -0.72453673933E+02  0.20690458385E+03  0.17275118215E+03 0.  0.
        -24    2    3    3    0    0 -0.41982795418E+01 -0.68028688124E+02 -0.53074200390E+01  0.10121814728E+03  0.74641923025E+02 0.  0.
          6    2    1    2  501    0  0.79602111419E+02  0.37155146034E+02  0.51350142727E+03  0.54819907897E+03  0.17065026619E+03 0.  0.
         24    2    5    5    0    0  0.96585549350E+02  0.40609003767E+02  0.23449525565E+03  0.26861563864E+03  0.78666872787E+02 0.  0.
          5    1    5    5  501    0 -0.16983437932E+02 -0.34538577331E+01  0.27900617163E+03  0.27958344032E+03  0.47000000000E+01 0. -1.
        -11    1    6    6    0    0  0.37304315567E+02 -0.98564725306E+01  0.27269358896E+02  0.47248068164E+02  0.00000000000E+00 0.  1.
         12    1    6    6    0    0  0.59281233783E+02  0.50465476297E+02  0.20722589675E+03  0.22136757048E+03  0.00000000000E+00 0. -1.
         -5    1    3    3    0  503 -0.75403831877E+02  0.30873542090E+02 -0.67146253894E+02  0.10568643657E+03  0.47000000000E+01 0.  1.
         13    1    4    4    0    0  0.14201721181E+02 -0.44579135032E+00  0.21875925728E+02  0.26085316576E+02  0.00000000000E+00 0. -1.
        -14    1    4    4    0    0 -0.18400000723E+02 -0.67582896774E+02 -0.27183345767E+02  0.75132830707E+02  0.00000000000E+00 0.  1.
</event>
<event>
12    1  0.8407180E-002  0.2960593E+03  0.7818608E-02  0.1087259E+00
         21   -1    0    0  503  502  0.00000000000E+00  0.00000000000E+00  0.35975542963E+03  0.35975542963E+03  0.00000000000E+00 0. -1.
         21   -1    0    0  501  503 -0.00000000000E+00 -0.00000000000E+00 -0.65447363948E+03  0.65447363948E+03  0.00000000000E+00 0.  1.
          6    2    1    2  501    0  0.71565292612E+02 -0.22990205978E+03 -0.54926683367E+03  0.62397530881E+03  0.17226312209E+03 0.  0.
         24    2    3    3    0    0  0.39448004332E+01 -0.74176811868E+02 -0.32761867076E+03  0.34473906130E+03  0.77416187497E+02 0.  0.
         -6    2    1    2    0  502 -0.71565292612E+02  0.22990205978E+03  0.25454862382E+03  0.39025376031E+03  0.17183261432E+03 0.  0.
        -24    2    5    5    0    0 -0.38177726041E+01  0.37987521989E+02  0.10370505068E+03  0.13688290594E+03  0.80774780642E+02 0.  0.
          5    1    3    3  501    0  0.67620492178E+02 -0.15572524791E+03 -0.22164816291E+03  0.27923624751E+03  0.47000000000E+01 0. -1.
        -13    1    4    4    0    0 -0.16184712157E+02 -0.73792612708E+02 -0.17247867432E+03  0.18829813513E+03  0.00000000000E+00 0.  1.
         14    1    4    4    0    0  0.20129512590E+02 -0.38419915996E+00 -0.15513999644E+03  0.15644092617E+03  0.00000000000E+00 0. -1.
         -5    1    5    5    0  502 -0.67747520007E+02  0.19191453779E+03  0.15084357314E+03  0.25337085436E+03  0.47000000000E+01 0.  1.
         11    1    6    6    0    0 -0.24098873864E+02 -0.17544800646E+02  0.41138706346E+02  0.50803237210E+02  0.00000000000E+00 0. -1.
        -12    1    6    6    0    0  0.20281101260E+02  0.55532322634E+02  0.62566344335E+02  0.86079668732E+02  0.00000000000E+00 0.  1.
</event>
<event>
12    1  0.8407180E-002  0.1900157E+03  0.7818608E-02  0.1158501E+00
         21   -1    0    0  501  502  0.00000000000E+00  0.00000000000E+00  0.59370317742E+02  0.59370317742E+02  0.00000000000E+00 0. -1.
         21   -1    0    0  502  503 -0.00000000000E+00 -0.00000000000E+00 -0.62163800803E+03  0.62163800803E+03  0.00000000000E+00 0. -1.
         -6    2    1    2    0  503  0.14080795254E+01 -0.82298070071E+02 -0.22939599312E+03  0.29772055196E+03  0.17099722331E+03 0.  0.
        -24    2    3    3    0    0 -0.48635628228E+02 -0.99583584806E+02 -0.15538550839E+03  0.20660083097E+03  0.79100773966E+02 0.  0.
          6    2    1    2  501    0 -0.14080795254E+01  0.82298070071E+02 -0.33287169717E+03  0.38328777381E+03  0.17126294330E+03 0.  0.
         24    2    5    5    0    0  0.51367722609E+02  0.51369089955E+02 -0.11761853271E+03  0.15946216779E+03  0.79477275927E+02 0.  0.
          5    1    5    5  501    0 -0.52775802134E+02  0.30928980116E+02 -0.21525316446E+03  0.22382560602E+03  0.47000000000E+01 0. -1.
        -13    1    6    6    0    0 -0.14768289823E+02 -0.32542018203E+01 -0.16418221401E+01  0.15211436281E+02  0.00000000000E+00 0.  1.
         14    1    6    6    0    0  0.66136012432E+02  0.54623291775E+02 -0.11597671057E+03  0.14425073151E+03  0.00000000000E+00 0. -1.
         -5    1    3    3    0  503  0.50043707753E+02  0.17285514735E+02 -0.74010484724E+02  0.91119720996E+02  0.47000000000E+01 0.  1.
         11    1    4    4    0    0 -0.25770532766E+02 -0.90855925167E+02 -0.15572522304E+03  0.18212431081E+03  0.00000000000E+00 0. -1.
        -12    1    4    4    0    0 -0.22865095461E+02 -0.87276596393E+01  0.33971464186E+00  0.24476520163E+02  0.00000000000E+00 0.  1.
</event>
<event>
12    1  0.8407180E-002  0.2337008E+03  0.7818608E-02  0.1124121E+00
         21   -1    0    0  503  502  0.00000000000E+00  0.00000000000E+00  0.19733943502E+03  0.19733943502E+03  0.00000000000E+00 0.  1.
         21   -1    0    0  501  503 -0.00000000000E+00 -0.00000000000E+00 -0.39120798483E+03  0.39120798483E+03  0.00000000000E+00 0.  1.
          6    2    1    2  501    0 -0.15591263638E+03 -0.24013283094E+02 -0.25643480609E+03  0.34695079413E+03  0.17242579803E+03 0.  0.
         24    2    3    3    0    0 -0.14316470947E+03 -0.76810183845E+02 -0.19030300570E+03  0.26124474188E+03  0.75084238051E+02 0.  0.
         -6    2    1    2    0  502  0.15591263638E+03  0.24013283094E+02  0.62566256273E+02  0.24159662572E+03  0.17195640490E+03 0.  0.
        -24    2    5    5    0    0  0.96909575508E+01  0.25970045166E+02  0.10191708835E+02  0.86194593888E+02  0.80977028732E+02 0.  0.
          5    1    3    3  501    0 -0.12747926917E+02  0.52796900751E+02 -0.66131800382E+02  0.85706052245E+02  0.47000000000E+01 0. -1.
        -11    1    4    4    0    0 -0.52877817097E+02 -0.46678667854E+02 -0.13189588731E+03  0.14957100877E+03  0.00000000000E+00 0.  1.
         12    1    4    4    0    0 -0.90286892368E+02 -0.30131515991E+02 -0.58407118388E+02  0.11167373312E+03  0.00000000000E+00 0. -1.
         -5    1    5    5    0  502  0.14622167883E+03 -0.19567620718E+01  0.52374547439E+02  0.15540203183E+03  0.47000000000E+01 0.  1.
         11    1    6    6    0    0 -0.23678461504E+02 -0.38843110936E+00  0.30871802975E+02  0.38908721861E+02  0.00000000000E+00 0. -1.
        -12    1    6    6    0    0  0.33369419055E+02  0.26358476275E+02 -0.20680094141E+02  0.47285872026E+02  0.00000000000E+00 0.  1.
</event>
<event>
12    1  0.8407180E-002  0.1828805E+03  0.7818608E-02  0.1165399E+00
         21   -1    0    0  503  502  0.00000000000E+00  0.00000000000E+00  0.67736281356E+03  0.67736281356E+03  0.00000000000E+00 0. -1.
         21   -1    0    0  501  503 -0.00000000000E+00 -0.00000000000E+00 -0.52607257135E+02  0.52607257135E+02  0.00000000000E+00 0. -1.
          6    2    1    2  501    0  0.24355879680E+02  0.55915420643E+02  0.21765525774E+03  0.28428700716E+03  0.17241098596E+03 0.  0.
         24    2    3    3    0    0  0.81028323134E+02  0.30608911457E+02  0.16466864612E+03  0.20254438508E+03  0.80037305684E+02 0.  0.
         -6    2    1    2    0  502 -0.24355879680E+02 -0.55915420643E+02  0.40710029868E+03  0.44568306353E+03  0.17083031578E+03 0.  0.
        -24    2    5    5    0    0 -0.74717659689E+02 -0.35428680775E+02  0.34101649610E+03  0.35997907086E+03  0.80341525707E+02 0.  0.
          5    1    3    3  501    0 -0.56672443454E+02  0.25306509186E+02  0.52986611623E+02  0.81742622086E+02  0.47000000000E+01 0. -1.
        -13    1    4    4    0    0  0.38538105767E+02  0.20265680259E+02  0.14121652959E+02  0.45774495899E+02  0.00000000000E+00 0.  1.
         14    1    4    4    0    0  0.42490217367E+02  0.10343231197E+02  0.15054699316E+03  0.15676988918E+03  0.00000000000E+00 0. -1.
         -5    1    5    5    0  502  0.50361780009E+02 -0.20486739868E+02  0.66083802580E+02  0.85703992670E+02  0.47000000000E+01 0.  1.
         13    1    6    6    0    0 -0.15757598054E+02 -0.50653079245E+02  0.13161590018E+03  0.14190412789E+03  0.00000000000E+00 0. -1.
        -14    1    6    6    0    0 -0.58960061635E+02  0.15224398470E+02  0.20940059592E+03  0.21807494297E+03  0.00000000000E+00 0.  1.
</event>
<event>
12    1  0.8407180E-002  0.2082965E+03  0.7818608E-02  0.1143470E+00
         21   -1    0    0  503  502  0.00000000000E+00  0.00000000000E+00  0.31109812103E+02  0.31109812103E+02  0.00000000000E+00 0. -1.
         21   -1    0    0  501  503 -0.00000000000E+00 -0.00000000000E+00 -0.21312902511E+04  0.21312902511E+04  0.00000000000E+00 0.  1.
          6    2    1    2  501    0 -0.67792861910E+02 -0.94719436952E+02 -0.16890467669E+04  0.17015114455E+04  0.16939473005E+03 0.  0.
         24    2    3    3    0    0 -0.62171812260E+02 -0.12222641341E+03 -0.16043081975E+04  0.16121193592E+04  0.79494687373E+02 0.  0.
         -6    2    1    2    0  502  0.67792861910E+02  0.94719436952E+02 -0.41113367209E+03  0.46088861769E+03  0.17268404015E+03 0.  0.
        -24    2    5    5    0    0  0.39468630227E+02 -0.27133307307E+02 -0.14865232468E+03  0.17008129122E+03  0.67350893495E+02 0.  0.
          5    1    3    3  501    0 -0.56210496501E+01  0.27506976461E+02 -0.84738569346E+02  0.89392086272E+02  0.47000000000E+01 0. -1.
        -11    1    4    4    0    0  0.73137556946E+01 -0.28457955378E+02 -0.65581927452E+03  0.65647716417E+03  0.00000000000E+00 0.  1.
         12    1    4    4    0    0 -0.69485567955E+02 -0.93768458036E+02 -0.94848892300E+03  0.95564219503E+03  0.00000000000E+00 0. -1.
         -5    1    5    5    0  502  0.28324231683E+02  0.12185274426E+03 -0.26248134742E+03  0.29080732646E+03  0.47000000000E+01 0.  1.
         13    1    6    6    0    0  0.14511198025E+02 -0.29074800725E+02 -0.18191309433E+02  0.37240336253E+02  0.00000000000E+00 0. -1.
        -14    1    6    6    0    0  0.24957432201E+02  0.19414934174E+01 -0.13046101524E+03  0.13284095497E+03  0.00000000000E+00 0.  1.
</event>
<event>
12    1  0.8407180E-002  0.1836329E+03  0.7818608E-02  0.1169129E+00
         21   -1    0    0  503  502  0.00000000000E+00  0.00000000000E+00  0.10777455336E+02  0.10777455336E+02  0.00000000000E+00 0.  1.
         21   -1    0    0  501  503 -0.00000000000E+00 -0.00000000000E+00 -0.29508900996E+04  0.29508900996E+04  0.00000000000E+00 0.  1.
          6    2    1    2  501    0 -0.63971769327E+02  0.19203613057E+02 -0.18697657457E+04  0.18787615590E+04  0.17105521251E+03 0.  0.
         24    2    3    3    0    0 -0.10203575020E+03  0.22254809936E+02 -0.10680646925E+04  0.10761378333E+04  0.80024233065E+02 0.  0.
         -6    2    1    2    0  502  0.63971769327E+02 -0.19203613057E+02 -0.10703468986E+04  0.10829059960E+04  0.15027224216E+03 0.  0.
        -24    2    5    5    0    0  0.32959016311E+02 -0.49641229668E+02 -0.94281433121E+03  0.94809173450E+03  0.80178085821E+02 0.  0.
          5    1    3    3  501    0  0.38063980869E+02 -0.30511968797E+01 -0.80170105313E+03  0.80262372569E+03  0.47000000000E+01 0. -1.
        -11    1    4    4    0    0 -0.10905526324E+03  0.50626765323E+01 -0.98450027200E+03  0.99053493967E+03  0.00000000000E+00 0.  1.
         12    1    4    4    0    0  0.70195130402E+01  0.17192133404E+02 -0.83564420534E+02  0.85602893605E+02  0.00000000000E+00 0. -1.
         -5    1    5    5    0  502  0.31012753015E+02  0.30437616612E+02 -0.12753256740E+03  0.13481426150E+03  0.47000000000E+01 0.  1.
         13    1    6    6    0    0 -0.78597759558E+01 -0.48412532937E+02 -0.30011503386E+03  0.30409633831E+03  0.00000000000E+00 0. -1.
        -14    1    6    6    0    0  0.40818792267E+02 -0.12286967318E+01 -0.64269929735E+03  0.64399539619E+03  0.00000000000E+00 0.  1.
</event>
<event>
12    1  0.8407180E-002  0.1758801E+03  0.7818608E-02  0.1177122E+00
         21   -1    0    0  503  502  0.00000000000E+00  0.00000000000E+00  0.15012189210E+03  0.15012189210E+03  0.00000000000E+00 0. -1.
         21   -1    0    0  501  503 -0.00000000000E+00 -0.00000000000E+00 -0.31880468220E+03  0.31880468220E+03  0.00000000000E+00 0. -1.
          6    2    1    2  501    0  0.11667438952E+02 -0.28300812712E+02 -0.23984224152E+03  0.29741905905E+03  0.17319564295E+03 0.  0.
         24    2    3    3    0    0 -0.40264168201E+02 -0.44684638467E+02 -0.21831272348E+03  0.23867442768E+03  0.75412976586E+02 0.  0.
         -6    2    1    2    0  502 -0.11667438952E+02  0.28300812712E+02  0.71159451418E+02  0.17150751525E+03  0.15301664984E+03 0.  0.
        -24    2    5    5    0    0  0.28907489395E+02 -0.26601452486E+02  0.40560788362E+02  0.96547847996E+02  0.78313658978E+02 0.  0.
          5    1    3    3  501    0  0.51931607153E+02  0.16383825756E+02 -0.21529518039E+02  0.58744631371E+02  0.47000000000E+01 0. -1.
        -11    1    4    4    0    0  0.10711428975E+02 -0.18670184889E+02 -0.12152853676E+02  0.24718462067E+02  0.00000000000E+00 0.  1.
         12    1    4    4    0    0 -0.50975597176E+02 -0.26014453579E+02 -0.20615986980E+03  0.21395596561E+03  0.00000000000E+00 0. -1.
         -5    1    5    5    0  502 -0.40574928347E+02  0.54902265198E+02  0.30598663056E+02  0.74959667255E+02  0.47000000000E+01 0.  1.
         11    1    6    6    0    0 -0.24709155537E+02  0.37373610565E+01  0.18573735231E+02  0.31136696604E+02  0.00000000000E+00 0. -1.
        -12    1    6    6    0    0  0.53616644932E+02 -0.30338813542E+02  0.21987053131E+02  0.65411151391E+02  0.00000000000E+00 0.  1.
</event>
<event>
12    1  0.8407180E-002  0.1891772E+03  0.7818608E-02  0.1159360E+00
         21   -1    0    0  501  502  0.00000000000E+00  0.00000000000E+00  0.58513651049E+03  0.58513651049E+03  0.00000000000E+00 0. -1.
         21   -1    0    0  502  503 -0.00000000000E+00 -0.00000000000E+00 -0.73622443182E+02  0.73622443182E+02  0.00000000000E+00 0. -1.
         -6    2    1    2    0  503 -0.39429237589E+02  0.67799151501E+02  0.39207028830E+03  0.43502960923E+03  0.17140670994E+03 0.  0.
        -24    2    3    3    0    0 -0.38898165524E+02  0.11358670936E+03  0.30786920208E+03  0.33906766149E+03  0.75950152426E+02 0.  0.
          6    2    1    2  501    0  0.39429237589E+02 -0.67799151501E+02  0.11944377900E+03  0.22372934444E+03  0.17215287829E+03 0.  0.
         24    2    5    5    0    0 -0.21598554674E+02 -0.38116426404E+02  0.12512508296E+03  0.15546644960E+03  0.81204501347E+02 0.  0.
          5    1    5    5  501    0  0.61027792262E+02 -0.29682725096E+02 -0.56813039626E+01  0.68262894842E+02  0.47000000000E+01 0. -1.
        -13    1    6    6    0    0 -0.29507885259E+02  0.16511999596E+02  0.28660847972E+02  0.44326128069E+02  0.00000000000E+00 0.  1.
         14    1    6    6    0    0  0.79093305857E+01 -0.54628426001E+02  0.96464234992E+02  0.11114032153E+03  0.00000000000E+00 0. -1.
         -5    1    3    3    0  503 -0.53107206459E+00 -0.45787557860E+02  0.84201086223E+02  0.95961947736E+02  0.47000000000E+01 0.  1.
         11    1    4    4    0    0 -0.46729029441E+02  0.60285856746E+02  0.24329630061E+03  0.25497269777E+03  0.00000000000E+00 0. -1.
        -12    1    4    4    0    0  0.78308639169E+01  0.53300852615E+02  0.64572901472E+02  0.84094963723E+02  0.00000000000E+00 0.  1.
</event>
<event>
12    1  0.8407180E-002  0.2199755E+03  0.7818608E-02  0.1134511E+00
         21   -1    0    0  503  502  0.00000000000E+00  0.00000000000E+00  0.16867808607E+03  0.16867808607E+03  0.00000000000E+00 0.  1.
         21   -1    0    0  501  503 -0.00000000000E+00 -0.00000000000E+00 -0.67275261680E+03  0.67275261680E+03  0.00000000000E+00 0.  1.
          6    2    1    2  501    0  0.12996246965E+03 -0.19513214799E+02 -0.57161185151E+03  0.61132090461E+03  0.17234306062E+03 0.  0.
         24    2    3    3    0    0  0.15429522003E+03 -0.91886133494E+01 -0.38258533236E+03  0.42039737258E+03  0.80442332141E+02 0.  0.
         -6    2    1    2    0  502 -0.12996246965E+03  0.19513214799E+02  0.67537320779E+02  0.23010979827E+03  0.17640357278E+03 0.  0.
        -24    2    5    5    0    0 -0.16909468216E+02 -0.38106170680E+02  0.11353165222E+02  0.91258352281E+02  0.80381478845E+02 0.  0.
          5    1    3    3  501    0 -0.24332750373E+02 -0.10324601449E+02 -0.18902651916E+03  0.19092353202E+03  0.47000000000E+01 0. -1.
        -11    1    4    4    0    0  0.82322362517E+02 -0.43788860248E+02 -0.22989221775E+03  0.24808238033E+03  0.00000000000E+00 0.  1.
         12    1    4    4    0    0  0.71972857510E+02  0.34600246898E+02 -0.15269311461E+03  0.17231499225E+03  0.00000000000E+00 0. -1.
         -5    1    5    5    0  502 -0.11305300144E+03  0.57619385479E+02  0.56184155557E+02  0.13885144599E+03  0.47000000000E+01 0.  1.
         11    1    6    6    0    0  0.42380039650E+01 -0.58219327164E+02 -0.35642376786E+01  0.58482087200E+02  0.00000000000E+00 0. -1.
        -12    1    6    6    0    0 -0.21147472181E+02  0.20113156484E+02  0.14917402901E+02  0.32776265081E+02  0.00000000000E+00 0.  1.
</event>
<event>
12    1  0.8407180E-002  0.1788232E+03  0.7818608E-02  0.1169731E+00
         21   -1    0    0  503  502  0.00000000000E+00  0.00000000000E+00  0.49908425786E+03  0.49908425786E+03  0.00000000000E+00 0. -1.
         21   -1    0    0  501  503 -0.00000000000E+00 -0.00000000000E+00 -0.15747349869E+03  0.15747349869E+03  0.00000000000E+00 0. -1.
          6    2    1    2  501    0 -0.15179143597E+02  0.32693421954E+02 -0.84156585592E+02  0.19476172885E+03  0.17190268726E+03 0.  0.
         24    2    3    3    0    0 -0.32142223248E+01  0.84412476392E+02 -0.29710433192E+02  0.11857450260E+03  0.77726478304E+02 0.  0.
         -6    2    1    2    0  502  0.15179143597E+02 -0.32693421954E+02  0.42576734476E+03  0.46179602770E+03  0.17515271365E+03 0.  0.
        -24    2    5    5    0    0 -0.79997655434E+01  0.13443960563E+02  0.39129642117E+03  0.39953645440E+03  0.79194399113E+02 0.  0.
          5    1    3    3  501    0 -0.11964921272E+02 -0.51719054438E+02 -0.54446152400E+02  0.76187226253E+02  0.47000000000E+01 0. -1.
        -13    1    4    4    0    0  0.10215167828E+02 -0.84566123675E+01  0.10074049656E+02  0.16653841087E+02  0.00000000000E+00 0.  1.
         14    1    4    4    0    0 -0.13429390152E+02  0.92869088759E+02 -0.39784482848E+02  0.10192066151E+03  0.00000000000E+00 0. -1.
         -5    1    5    5    0  502  0.23178909140E+02 -0.46137382516E+02  0.34470923585E+02  0.62259573298E+02  0.47000000000E+01 0.  1.
         11    1    6    6    0    0  0.12807517158E+01 -0.29807714978E+02  0.24176685923E+03  0.24360080956E+03  0.00000000000E+00 0. -1.
        -12    1    6    6    0    0 -0.92805172592E+01  0.43251675541E+02  0.14952956194E+03  0.15593564484E+03  0.00000000000E+00 0.  1.
</event>
<event>
12    1  0.8407180E-002  0.1750400E+03  0.7818608E-02  0.1172861E+00
         21   -1    0    0  503  502  0.00000000000E+00  0.00000000000E+00  0.10224425348E+03  0.10224425348E+03  0.00000000000E+00 0.  1.
         21   -1    0    0  501  503 -0.00000000000E+00 -0.00000000000E+00 -0.29988705554E+03  0.29988705554E+03  0.00000000000E+00 0.  1.
          6    2    1    2  501    0 -0.15144529609E+02  0.31647963528E+02 -0.11262408067E+03  0.20814224844E+03  0.17148778868E+03 0.  0.
         24    2    3    3    0    0 -0.75131453878E+02  0.18430088248E+02 -0.95090982170E+02  0.14409037218E+03  0.75732007429E+02 0.  0.
         -6    2    1    2    0  502  0.15144529609E+02 -0.31647963528E+02 -0.85018721392E+02  0.19398906057E+03  0.17079994808E+03 0.  0.
        -24    2    5    5    0    0 -0.41063041438E+02  0.22113240260E+02 -0.20792911217E+02  0.93010831393E+02  0.77739956474E+02 0.  0.
          5    1    3    3  501    0  0.59986924269E+02  0.13217875280E+02 -0.17533098496E+02  0.64051876265E+02  0.47000000000E+01 0. -1.
        -11    1    4    4    0    0 -0.47119090636E+02  0.26699990600E+02 -0.11259010309E+02  0.55316033061E+02  0.00000000000E+00 0.  1.
         12    1    4    4    0    0 -0.28012363242E+02 -0.82699023522E+01 -0.83831971861E+02  0.88774339116E+02  0.00000000000E+00 0. -1.
         -5    1    5    5    0  502  0.56207571048E+02 -0.53761203788E+02 -0.64225810175E+02  0.10097822918E+03  0.47000000000E+01 0.  1.
         11    1    6    6    0    0 -0.38300029300E+02  0.46773660275E+02 -0.28763013096E+02  0.66947579959E+02  0.00000000000E+00 0. -1.
        -12    1    6    6    0    0 -0.27630121381E+01 -0.24660420015E+02  0.79701018788E+01  0.26063251435E+02  0.00000000000E+00 0.  1.
</event>
<event>
12    1  0.8407180E-002  0.2878102E+03  0.7818608E-02  0.1091629E+00
         21   -1    0    0  503  502  0.00000000000E+00  0.00000000000E+00  0.17893297084E+03  0.17893297084E+03  0.00000000000E+00 0.  1.
         21   -1    0    0  501  503 -0.00000000000E+00 -0.00000000000E+00 -0.68628101542E+03  0.68628101542E+03  0.00000000000E+00 0. -1.
          6    2    1    2  501    0 -0.18463101480E+03  0.13591800241E+03 -0.50105054720E+03  0.57733486069E+03  0.17234145034E+03 0.  0.
         24    2    3    3    0    0 -0.15757154331E+03  0.93565553174E+02 -0.48506554933E+03  0.52438625248E+03  0.78160416099E+02 0.  0.
         -6    2    1    2    0  502  0.18463101480E+03 -0.13591800241E+03 -0.62974973790E+01  0.28787912558E+03  0.17398970505E+03 0.  0.
        -24    2    5    5    0    0  0.55535592684E+02 -0.16199191123E+01  0.20032958818E+02  0.99685113682E+02  0.80305518230E+02 0.  0.
          5    1    3    3  501    0 -0.27059471489E+02  0.42352449241E+02 -0.15984997875E+02  0.52948608207E+02  0.47000000000E+01 0. -1.
        -11    1    4    4    0    0  0.64461321902E+01  0.10565667042E+02 -0.13793047327E+02  0.18531974930E+02  0.00000000000E+00 0.  1.
         12    1    4    4    0    0 -0.16401767550E+03  0.82999886133E+02 -0.47127250200E+03  0.50585427755E+03  0.00000000000E+00 0. -1.
         -5    1    5    5    0  502  0.12909542211E+03 -0.13429808330E+03 -0.26330456197E+02  0.18819401190E+03  0.47000000000E+01 0.  1.
         11    1    6    6    0    0 -0.19491368606E+02 -0.55447291547E+01 -0.42950721235E+01  0.20714852547E+02  0.00000000000E+00 0. -1.
        -12    1    6    6    0    0  0.75026961290E+02  0.39248100423E+01  0.24328030941E+02  0.78970261135E+02  0.00000000000E+00 0.  1.
</event>
<event>
12    1  0.8407180E-002  0.1763602E+03  0.7818608E-02  0.1172134E+00
         21   -1    0    0  501  502  0.00000000000E+00  0.00000000000E+00  0.23060230450E+03  0.23060230450E+03  0.00000000000E+00 0.  1.
         21   -1    0    0  502  503 -0.00000000000E+00 -0.00000000000E+00 -0.59302484501E+03  0.59302484501E+03  0.00000000000E+00 0.  1.
         -6    2    1    2    0  503  0.44648933436E+02  0.15953020059E+01 -0.54443761258E+03  0.57228945451E+03  0.17060724926E+03 0.  0.
        -24    2    3    3    0    0  0.64413599911E+02 -0.14241874494E+02 -0.19200393315E+03  0.21891564875E+03  0.81893883032E+02 0.  0.
          6    2    1    2  501    0 -0.44648933436E+02 -0.15953020059E+01  0.18201507208E+03  0.25133769501E+03  0.16746664809E+03 0.  0.
         24    2    5    5    0    0  0.25294914158E+02 -0.37314052786E+02  0.11628374267E+03  0.14881614294E+03  0.81192144761E+02 0.  0.
          5    1    5    5  501    0 -0.69943847594E+02  0.35718750780E+02  0.65731329403E+02  0.10252155207E+03  0.47000000000E+01 0. -1.
        -13    1    6    6    0    0 -0.24970559743E+02  0.49433546160E+01  0.46375424548E+02  0.52902226898E+02  0.00000000000E+00 0.  1.
         14    1    6    6    0    0  0.50265473901E+02 -0.42257407402E+02  0.69908318125E+02  0.95913916039E+02  0.00000000000E+00 0. -1.
         -5    1    3    3    0  503 -0.19764666475E+02  0.15837176500E+02 -0.35243367943E+03  0.35337380576E+03  0.47000000000E+01 0.  1.
         11    1    4    4    0    0  0.57747406979E+02 -0.32511194709E+02 -0.18762029691E+03  0.19898019149E+03  0.00000000000E+00 0. -1.
        -12    1    4    4    0    0  0.66661929318E+01  0.18269320215E+02 -0.43836362450E+01  0.19935457257E+02  0.00000000000E+00 0.  1.
</event>
<event>
12    1  0.8407180E-002  0.1924229E+03  0.7818608E-02  0.1156637E+00
         21   -1    0    0  503  502  0.00000000000E+00  0.00000000000E+00  0.43455170438E+03  0.43455170438E+03  0.00000000000E+00 0. -1.
         21   -1    0    0  501  503 -0.00000000000E+00 -0.00000000000E+00 -0.88837700113E+02  0.88837700113E+02  0.00000000000E+00 0. -1.
          6    2    1    2  501    0 -0.56321068808E+01  0.83025584722E+02  0.11586139719E+03  0.22461176200E+03  0.17349816115E+03 0.  0.
         24    2    3    3    0    0 -0.46387750473E+02  0.10310825836E+03  0.11408557994E+03  0.17889984023E+03  0.78781323593E+02 0.  0.
         -6    2    1    2    0  502  0.56321068808E+01 -0.83025584722E+02  0.22985260708E+03  0.29877764250E+03  0.17178734042E+03 0.  0.
        -24    2    5    5    0    0  0.37512975774E+02 -0.98414598238E+02  0.22783944526E+03  0.26300957911E+03  0.78552971846E+02 0.  0.
          5    1    3    3  501    0  0.40755643592E+02 -0.20082673634E+02  0.17758172485E+01  0.45711921769E+02  0.47000000000E+01 0. -1.
        -13    1    4    4    0    0 -0.23190342144E+02  0.45927181529E+02  0.10446431543E+03  0.11644694573E+03  0.00000000000E+00 0.  1.
         14    1    4    4    0    0 -0.23197408329E+02  0.57181076828E+02  0.96212645166E+01  0.62452894499E+02  0.00000000000E+00 0. -1.
         -5    1    5    5    0  502 -0.31880868893E+02  0.15389013515E+02  0.20131618141E+01  0.35768063393E+02  0.47000000000E+01 0.  1.
         11    1    6    6    0    0  0.33809400356E+02 -0.73508869489E+02  0.22319113019E+03  0.23740452827E+03  0.00000000000E+00 0. -1.
        -12    1    6    6    0    0  0.37035754185E+01 -0.24905728748E+02  0.46483150712E+01  0.25605050837E+02  0.00000000000E+00 0.  1.
</event>
<event>
12    1  0.8407180E-002  0.1822810E+03  0.7818608E-02  0.1165834E+00
         21   -1    0    0  501  502  0.00000000000E+00  0.00000000000E+00  0.27795822674E+03  0.27795822674E+03  0.00000000000E+00 0. -1.
         21   -1    0    0  502  503 -0.00000000000E+00 -0.00000000000E+00 -0.13516389386E+03  0.13516389386E+03  0.00000000000E+00 0. -1.
         -6    2    1    2    0  503  0.36610095903E+02 -0.42782615580E+02 -0.33993007061E+00  0.18135980084E+03  0.17239666613E+03 0.  0.
        -24    2    3    3    0    0  0.79603822140E+02  0.21207782721E+02 -0.23105667139E+01  0.10409917064E+03  0.63598428146E+02 0.  0.
          6    2    1    2  501    0 -0.36610095903E+02  0.42782615580E+02  0.14313426296E+03  0.23176231975E+03  0.17336581066E+03 0.  0.
         24    2    5    5    0    0 -0.39265024698E+02  0.92077225645E+02  0.12590961358E+03  0.17926674113E+03  0.79141493788E+02 0.  0.
          5    1    5    5  501    0  0.26549287946E+01 -0.49294610064E+02  0.17224649380E+02  0.52495578619E+02  0.47000000000E+01 0. -1.
        -13    1    6    6    0    0 -0.10260839998E+02  0.86853095968E+02  0.57194952012E+02  0.10449884044E+03  0.00000000000E+00 0.  1.
         14    1    6    6    0    0 -0.29004184700E+02  0.52241296767E+01  0.68714661564E+02  0.74767900699E+02  0.00000000000E+00 0. -1.
         -5    1    3    3    0  503 -0.42993726237E+02 -0.63990398301E+02  0.19706366433E+01  0.77260630202E+02  0.47000000000E+01 0.  1.
         11    1    4    4    0    0  0.86200292145E+01 -0.20123559315E+02  0.71116540114E+00  0.21903613843E+02  0.00000000000E+00 0. -1.
        -12    1    4    4    0    0  0.70983792926E+02  0.41331342036E+02 -0.30217321151E+01  0.82195556799E+02  0.00000000000E+00 0.  1.
</event>
<event>
12    1  0.8407180E-002  0.2045583E+03  0.7818608E-02  0.1146324E+00
         21   -1    0    0  501  502  0.00000000000E+00  0.00000000000E+00  0.46178670956E+02  0.46178670956E+02  0.00000000000E+00 0.  1.
         21   -1    0    0  502  503 -0.00000000000E+00 -0.00000000000E+00 -0.16673336931E+04  0.16673336931E+04  0.00000000000E+00 0.  1.
         -6    2    1    2    0  503  0.73648696003E+02  0.80914479577E+02 -0.13905641950E+04  0.14052653642E+04  0.17067712188E+03 0.  0.
        -24    2    3    3    0    0  0.89484365361E+02  0.76082784421E+02 -0.69146572386E+03  0.70595507822E+03  0.80322372143E+02 0.  0.
          6    2    1    2  501    0 -0.73648696003E+02 -0.80914479577E+02 -0.23059082718E+03  0.30824699991E+03  0.17283749577E+03 0.  0.
         24    2    5    5    0    0  0.20086230085E+02 -0.25915571891E+02 -0.14943107681E+03  0.17252628927E+03  0.79753371511E+02 0.  0.
          5    1    5    5  501    0 -0.93734926089E+02 -0.54998907686E+02 -0.81159750368E+02  0.13572071064E+03  0.47000000000E+01 0. -1.
        -13    1    6    6    0    0 -0.16746205578E+02 -0.33599737493E+02 -0.32380141284E+02  0.49576721457E+02  0.00000000000E+00 0.  1.
         14    1    6    6    0    0  0.36832435664E+02  0.76841656022E+01 -0.11705093553E+03  0.12294956782E+03  0.00000000000E+00 0. -1.
         -5    1    3    3    0  503 -0.15835669358E+02  0.48316951561E+01 -0.69909847112E+03  0.69931028594E+03  0.47000000000E+01 0.  1.
         11    1    4    4    0    0  0.49893646585E+02 -0.75365172921E+00 -0.16298881281E+03  0.17045614410E+03  0.00000000000E+00 0. -1.
        -12    1    4    4    0    0  0.39590718776E+02  0.76836436151E+02 -0.52847691105E+03  0.53549893412E+03  0.00000000000E+00 0.  1.
</event>
<event>
12    1  0.8407180E-002  0.1900692E+03  0.7818608E-02  0.1158469E+00
         21   -1    0    0  501  502  0.00000000000E+00  0.00000000000E+00  0.94388862423E+03  0.94388862423E+03  0.00000000000E+00 0.  1.
         21   -1    0    0  502  503 -0.00000000000E+00 -0.00000000000E+00 -0.47781342907E+02  0.47781342907E+02  0.00000000000E+00 0.  1.
         -6    2    1    2    0  503 -0.20879573329E+02 -0.78599616683E+02  0.22586250928E+03  0.29499618855E+03  0.17144976476E+03 0.  0.
        -24    2    3    3    0    0 -0.37798283314E+02  0.17640598326E+02  0.97567067766E+02  0.13365731522E+03  0.81271423450E+02 0.  0.
          6    2    1    2  501    0  0.20879573329E+02  0.78599616683E+02  0.67024477205E+03  0.69667377859E+03  0.17179185952E+03 0.  0.
         24    2    5    5    0    0  0.14673897152E+01 -0.25219913552E+02  0.33144806562E+03  0.34176445776E+03  0.79416164035E+02 0.  0.
          5    1    5    5  501    0  0.19412183613E+02  0.10381953024E+03  0.33879670643E+03  0.35490932084E+03  0.47000000000E+01 0. -1.
        -13    1    6    6    0    0 -0.26548755317E+02 -0.11513074073E+01  0.25980904295E+03  0.26116450892E+03  0.00000000000E+00 0.  1.
         14    1    6    6    0    0  0.28016145032E+02 -0.24068606144E+02  0.71639022667E+02  0.80599948839E+02  0.00000000000E+00 0. -1.
         -5    1    3    3    0  503  0.16918709985E+02 -0.96240215009E+02  0.12829544151E+03  0.16133887332E+03  0.47000000000E+01 0.  1.
         11    1    4    4    0    0  0.69031371571E+01  0.29967893253E+02  0.77032053147E+02  0.82943746845E+02  0.00000000000E+00 0. -1.
        -12    1    4    4    0    0 -0.44701420471E+02 -0.12327294927E+02  0.20535014620E+02  0.50713568379E+02  0.00000000000E+00 0.  1.
</event>
<event>
12    1  0.8407180E-002  0.1917752E+03  0.7818608E-02  0.1157317E+00
         21   -1    0    0  503  502  0.00000000000E+00  0.00000000000E+00  0.51465885320E+03  0.51465885320E+03  0.00000000000E+00 0. -1.
         21   -1    0    0  501  503 -0.00000000000E+00 -0.00000000000E+00 -0.87064584780E+02  0.87064584780E+02  0.00000000000E+00 0. -1.
          6    2    1    2  501    0  0.81808627119E+02 -0.22701827679E+02  0.82528337584E+02  0.20694725501E+03  0.16972983061E+03 0.  0.
         24    2    3    3    0    0  0.11871735153E+03  0.71916465977E+01  0.60019022231E+02  0.15417763288E+03  0.77607539033E+02 0.  0.
         -6    2    1    2    0  502 -0.81808627119E+02  0.22701827679E+02  0.34506593084E+03  0.39477618298E+03  0.17195846466E+03 0.  0.
        -24    2    5    5    0    0 -0.17092270752E+01 -0.12132639204E+02  0.74727080234E+02  0.11063794529E+03  0.80662854065E+02 0.  0.
          5    1    3    3  501    0 -0.36908724411E+02 -0.29893474277E+02  0.22509315353E+02  0.52769622130E+02  0.47000000000E+01 0. -1.
        -11    1    4    4    0    0  0.52913882091E+02  0.27029721484E+02  0.61389622994E+02  0.85435183460E+02  0.00000000000E+00 0.  1.
         12    1    4    4    0    0  0.65803469439E+02 -0.19838074886E+02 -0.13706007631E+01  0.68742449417E+02  0.00000000000E+00 0. -1.
         -5    1    5    5    0  502 -0.80099400044E+02  0.34834466883E+02  0.27033885060E+03  0.28413823769E+03  0.47000000000E+01 0.  1.
         13    1    6    6    0    0 -0.39273541356E+02 -0.78669002700E+01  0.21819966730E+02  0.45611513005E+02  0.00000000000E+00 0. -1.
        -14    1    6    6    0    0  0.37564314281E+02 -0.42657389337E+01  0.52907113504E+02  0.65026432283E+02  0.00000000000E+00 0.  1.
</event>
<event>
12    1  0.8407180E-002  0.2742475E+03  0.7818608E-02  0.1098972E+00
         21   -1    0    0  503  502  0.00000000000E+00  0.00000000000E+00  0.10681894657E+03  0.10681894657E+03  0.00000000000E+00 0. -1.
         21   -1    0    0  501  503 -0.00000000000E+00 -0.00000000000E+00 -0.10350244382E+04  0.10350244382E+04  0.00000000000E+00 0.  1.
          6    2    1    2  501    0  0.90324241433E+02 -0.19183756593E+03 -0.78740262760E+03  0.83356241554E+03  0.17280996021E+03 0.  0.
         24    2    3    3    0    0 -0.11149020225E+01 -0.14050042644E+03 -0.55950391377E+03  0.58265101163E+03  0.81828839580E+02 0.  0.
         -6    2    1    2    0  502 -0.90324241433E+02  0.19183756593E+03 -0.14080286398E+03  0.30828096918E+03  0.17392983977E+03 0.  0.
        -24    2    5    5    0    0 -0.58041264410E+02  0.11813766009E+03 -0.11269332562E+02  0.15571985852E+03  0.82440168446E+02 0.  0.
          5    1    3    3  501    0  0.91439143456E+02 -0.51337139491E+02 -0.22789871383E+03  0.25091140391E+03  0.47000000000E+01 0. -1.
        -11    1    4    4    0    0  0.10172353037E+02 -0.34978229086E+01 -0.15605995039E+03  0.15643023891E+03  0.00000000000E+00 0.  1.
         12    1    4    4    0    0 -0.11287255059E+02 -0.13700260353E+03 -0.40344396338E+03  0.42622077271E+03  0.00000000000E+00 0. -1.
         -5    1    5    5    0  502 -0.32282977023E+02  0.73699905842E+02 -0.12953353142E+03  0.15256111067E+03  0.47000000000E+01 0.  1.
         13    1    6    6    0    0 -0.37720002918E+02  0.39068575679E+02  0.32296676535E+02  0.63184076640E+02  0.00000000000E+00 0. -1.
        -14    1    6    6    0    0 -0.20321261492E+02  0.79069084413E+02 -0.43566009097E+02  0.92535781875E+02  0.00000000000E+00 0.  1.
</event>
<event>
12    1  0.8407180E-002  0.1744311E+03  0.7818608E-02  0.1173640E+00
         21   -1    0    0  501  502  0.00000000000E+00  0.00000000000E+00  0.17012943653E+03  0.17012943653E+03  0.00000000000E+00 0. -1.
         21   -1    0    0  502  503 -0.00000000000E+00 -0.00000000000E+00 -0.31447043408E+03  0.31447043408E+03  0.00000000000E+00 0. -1.
         -6    2    1    2    0  503 -0.13663008245E+01  0.22515667410E+01 -0.23193508205E+03  0.28941035137E+03  0.17308244528E+03 0.  0.
        -24    2    3    3    0    0  0.67848489336E+02 -0.10121961504E+02 -0.17425368764E+03  0.19834430589E+03  0.65347107160E+02 0.  0.
          6    2    1    2  501    0  0.13663008245E+01 -0.22515667410E+01  0.87594084498E+02  0.19518951923E+03  0.17441126239E+03 0.  0.
         24    2    5    5    0    0 -0.46626937636E+02 -0.47221398808E+02  0.73442047413E+02  0.12775060697E+03  0.80762314436E+02 0.  0.
          5    1    5    5  501    0  0.47993238460E+02  0.44969832067E+02  0.14152037085E+02  0.67438912266E+02  0.47000000000E+01 0. -1.
        -13    1    6    6    0    0  0.10797169725E+01 -0.53787744918E+02  0.24584865903E+02  0.59149834519E+02  0.00000000000E+00 0.  1.
         14    1    6    6    0    0 -0.47706654608E+02  0.65663461103E+01  0.48857181510E+02  0.68600772447E+02  0.00000000000E+00 0. -1.
         -5    1    3    3    0  503 -0.69214790160E+02  0.12373528245E+02 -0.57681394407E+02  0.91066045477E+02  0.47000000000E+01 0.  1.
         13    1    4    4    0    0  0.58560844882E+02 -0.26015012847E+01 -0.61507543827E+02  0.84966571720E+02  0.00000000000E+00 0. -1.
        -14    1    4    4    0    0  0.92876444538E+01 -0.75204602197E+01 -0.11274614381E+03  0.11337773417E+03  0.00000000000E+00 0.  1.
</event>
<event>
12    1  0.8407180E-002  0.1830335E+03  0.7818608E-02  0.1165382E+00
         21   -1    0    0  501  502  0.00000000000E+00  0.00000000000E+00  0.15599759211E+04  0.15599759211E+04  0.00000000000E+00 0. -1.
         21   -1    0    0  502  503 -0.00000000000E+00 -0.00000000000E+00 -0.25876009890E+02  0.25876009890E+02  0.00000000000E+00 0. -1.
         -6    2    1    2    0  503 -0.49617908077E+02 -0.38373432504E+02  0.43487400101E+03  0.47182268575E+03  0.17194997212E+03 0.  0.
        -24    2    3    3    0    0 -0.97934038092E+01 -0.45064583481E+02  0.10649589513E+03  0.14093745933E+03  0.79970396530E+02 0.  0.
          6    2    1    2  501    0  0.49617908077E+02  0.38373432504E+02  0.10992259102E+04  0.11140292453E+04  0.16979134391E+03 0.  0.
         24    2    5    5    0    0  0.12149199985E+02 -0.16568931747E+02  0.29074845335E+03  0.30280766286E+03  0.82071219094E+02 0.  0.
          5    1    5    5  501    0  0.37468708091E+02  0.54942364251E+02  0.80847745686E+03  0.81122158239E+03  0.47000000000E+01 0. -1.
        -13    1    6    6    0    0 -0.17538840541E+02 -0.32656047732E+02  0.23285203247E+03  0.23578400583E+03  0.00000000000E+00 0.  1.
         14    1    6    6    0    0  0.29688040526E+02  0.16087115986E+02  0.57896420879E+02  0.67023657029E+02  0.00000000000E+00 0. -1.
         -5    1    3    3    0  503 -0.39824504268E+02  0.66911509773E+01  0.32837810588E+03  0.33088522642E+03  0.47000000000E+01 0.  1.
         11    1    4    4    0    0 -0.26405876583E+02 -0.58028676143E+02  0.10052198429E+03  0.11903472980E+03  0.00000000000E+00 0. -1.
        -12    1    4    4    0    0  0.16612472774E+02  0.12964092662E+02  0.59739108381E+01  0.21902729531E+02  0.00000000000E+00 0.  1.
</event>
<event>
12    1  0.8407180E-002  0.3254903E+03  0.7818608E-02  0.1073400E+00
         21   -1    0    0  501  502  0.00000000000E+00  0.00000000000E+00  0.10967358264E+04  0.10967358264E+04  0.00000000000E+00 0.  1.
         21   -1    0    0  502  503 -0.00000000000E+00 -0.00000000000E+00 -0.13147379470E+03  0.13147379470E+03  0.00000000000E+00 0. -1.
         -6    2    1    2    0  503  0.27159235412E+03  0.33034782808E+02  0.16219109802E+03  0.36168386184E+03  0.17220789746E+03 0.  0.
        -24    2    3    3    0    0  0.68143674715E+02  0.51757364545E+02  0.39503413523E+02  0.12332224969E+03  0.79532838508E+02 0.  0.
          6    2    1    2  501    0 -0.27159235412E+03 -0.33034782808E+02  0.80307093364E+03  0.86652575923E+03  0.17632431271E+03 0.  0.
         24    2    5    5    0    0 -0.17383056736E+03 -0.84665029229E+02  0.44456456371E+03  0.49132986829E+03  0.79888389907E+02 0.  0.
          5    1    5    5  501    0 -0.97761786754E+02  0.51630246421E+02  0.35850636993E+03  0.37519589094E+03  0.47000000000E+01 0. -1.
        -11    1    6    6    0    0 -0.12574984675E+03 -0.80696309680E+02  0.39429381852E+03  0.42165451934E+03  0.00000000000E+00 0.  1.
         12    1    6    6    0    0 -0.48080720616E+02 -0.39687195494E+01  0.50270745189E+02  0.69675348952E+02  0.00000000000E+00 0. -1.
         -5    1    3    3    0  503  0.20344867940E+03 -0.18722581738E+02  0.12268768450E+03  0.23836161215E+03  0.47000000000E+01 0.  1.
         11    1    4    4    0    0  0.16254161370E+02 -0.92908747605E+01 -0.16994006839E+02  0.25284666976E+02  0.00000000000E+00 0. -1.
        -12    1    4    4    0    0  0.51889513346E+02  0.61048239306E+02  0.56497420362E+02  0.98037582718E+02  0.00000000000E+00 0.  1.
</event>
<event>
12    1  0.8407180E-002  0.1793004E+03  0.7818608E-02  0.1168511E+00
         21   -1    0    0  501  502  0.00000000000E+00  0.00000000000E+00  0.46089074626E+03  0.46089074626E+03  0.00000000000E+00 0.  1.
         21   -1    0    0  502  503 -0.00000000000E+00 -0.00000000000E+00 -0.71128611518E+02  0.71128611518E+02  0.00000000000E+00 0. -1.
         -6    2    1    2    0  503  0.41891415335E+02  0.29722227058E+02  0.15721571727E+03  0.23837592396E+03  0.17166245340E+03 0.  0.
        -24    2    3    3    0    0 -0.25749879402E+02  0.65108328439E+01  0.23748750140E+02  0.86884554934E+02  0.79243141781E+02 0.  0.
          6    2    1    2  501    0 -0.41891415335E+02 -0.29722227058E+02  0.23254641747E+03  0.29364343381E+03  0.17178570512E+03 0.  0.
         24    2    5    5    0    0  0.44255544179E+02 -0.60661740914E+01  0.10525192682E+03  0.13805781486E+03  0.77373383574E+02 0.  0.
          5    1    5    5  501    0 -0.86146959514E+02 -0.23656052967E+02  0.12729449065E+03  0.15558561895E+03  0.47000000000E+01 0. -1.
        -11    1    6    6    0    0 -0.68798097980E+01 -0.25388390339E+02  0.65155449861E+02  0.70264747871E+02  0.00000000000E+00 0.  1.
         12    1    6    6    0    0  0.51135353977E+02  0.19322216247E+02  0.40096476959E+02  0.67793066988E+02  0.00000000000E+00 0. -1.
         -5    1    3    3    0  503  0.67641294736E+02  0.23211394214E+02  0.13346696713E+03  0.15149136903E+03  0.47000000000E+01 0.  1.
         13    1    4    4    0    0 -0.87467148415E+01  0.42602315242E+02  0.15299315841E+02  0.46103485223E+02  0.00000000000E+00 0. -1.
        -14    1    4    4    0    0 -0.17003164560E+02 -0.36091482399E+02  0.84494342983E+01  0.40781069711E+02  0.00000000000E+00 0.  1.
</event>
<event>
12    1  0.8407180E-002  0.2021687E+03  0.7818608E-02  0.1147977E+00
         21   -1    0    0  501  502  0.00000000000E+00  0.00000000000E+00  0.13572726947E+04  0.13572726947E+04  0.00000000000E+00 0. -1.
         21   -1    0    0  502  503 -0.00000000000E+00 -0.00000000000E+00 -0.16736221434E+03  0.16736221434E+03  0.00000000000E+00 0. -1.
         -6    2    1    2    0  503 -0.10325135866E+03 -0.22468215721E+02 -0.95549945720E+02  0.22337372029E+03  0.17204756030E+03 0.  0.
        -24    2    3    3    0    0 -0.30361254901E+02  0.47136011475E+02 -0.31628453989E+02  0.10393435168E+03  0.81598903054E+02 0.  0.
          6    2    1    2  501    0  0.10325135866E+03  0.22468215721E+02  0.12854604261E+04  0.13012611888E+04  0.17235576745E+03 0.  0.
         24    2    5    5    0    0  0.93799685245E+02  0.70640614481E+02  0.73433598339E+03  0.74793474311E+03  0.79803296132E+02 0.  0.
          5    1    5    5  501    0  0.94516734116E+01 -0.48172398760E+02  0.55112444268E+03  0.55332644565E+03  0.47000000000E+01 0. -1.
        -13    1    6    6    0    0  0.78591071622E+01  0.43477653547E+02  0.36942176214E+03  0.37205444530E+03  0.00000000000E+00 0.  1.
         14    1    6    6    0    0  0.85940578083E+02  0.27162960935E+02  0.36491422125E+03  0.37588029781E+03  0.00000000000E+00 0. -1.
         -5    1    3    3    0  503 -0.72890103756E+02 -0.69604227196E+02 -0.63921491731E+02  0.11943936861E+03  0.47000000000E+01 0.  1.
         13    1    4    4    0    0 -0.53419572162E+01  0.19430415533E+02 -0.55890483317E+02  0.59412319262E+02  0.00000000000E+00 0. -1.
        -14    1    4    4    0    0 -0.25019297684E+02  0.27705595942E+02  0.24262029328E+02  0.44522032413E+02  0.00000000000E+00 0.  1.
</event>
<event>
12    1  0.8407180E-002  0.3833620E+03  0.7818608E-02  0.1049764E+00
         21   -1    0    0  503  502  0.00000000000E+00  0.00000000000E+00  0.87863005808E+03  0.87863005808E+03  0.00000000000E+00 0. -1.
         21   -1    0    0  501  503 -0.00000000000E+00 -0.00000000000E+00 -0.17349240573E+03  0.17349240573E+03  0.00000000000E+00 0.  1.
          6    2    1    2  501    0  0.15674548121E+03 -0.30466758347E+03  0.45501154552E+03  0.59498062570E+03  0.17197370761E+03 0.  0.
         24    2    3    3    0    0  0.10680175870E+02 -0.15164552063E+03  0.20325444982E+03  0.26611203436E+03  0.79955070972E+02 0.  0.
         -6    2    1    2    0  502 -0.15674548121E+03  0.30466758347E+03  0.25012610683E+03  0.45714183811E+03  0.17036463405E+03 0.  0.
        -24    2    5    5    0    0 -0.99428420669E+02  0.28397380225E+03  0.16569900072E+03  0.35291370248E+03  0.81023400068E+02 0.  0.
          5    1    3    3  501    0  0.14606530534E+03 -0.15302206284E+03  0.25175709570E+03  0.32886859135E+03  0.47000000000E+01 0. -1.
        -11    1    4    4    0    0  0.41677264574E+02 -0.68906041095E+02  0.72836030170E+02  0.10858233822E+03  0.00000000000E+00 0.  1.
         12    1    4    4    0    0 -0.30997088704E+02 -0.82739479534E+02  0.13041841965E+03  0.15752969614E+03  0.00000000000E+00 0. -1.
         -5    1    5    5    0  502 -0.57317060541E+02  0.20693781221E+02  0.84427106109E+02  0.10422813563E+03  0.47000000000E+01 0.  1.
         11    1    6    6    0    0 -0.27399046527E+02  0.54844920358E+02  0.73326102859E+02  0.95579236240E+02  0.00000000000E+00 0. -1.
        -12    1    6    6    0    0 -0.72029374142E+02  0.22912888189E+03  0.92372897857E+02  0.25733446624E+03  0.00000000000E+00 0.  1.
</event>
<event>
12    1  0.8407180E-002  0.2512755E+03  0.7818608E-02  0.1113758E+00
         21   -1    0    0  501  502  0.00000000000E+00  0.00000000000E+00  0.24071847314E+04  0.24071847314E+04  0.00000000000E+00 0.  1.
         21   -1    0    0  502  503 -0.00000000000E+00 -0.00000000000E+00 -0.25452275956E+02  0.25452275956E+02  0.00000000000E+00 0. -1.
         -6    2    1    2    0  503  0.14384627354E+03 -0.11343465527E+03  0.12190416314E+04  0.12431037653E+04  0.16026634293E+03 0.  0.
        -24    2    3    3    0    0  0.12346158772E+03 -0.24253559798E+02  0.83766891371E+03  0.85088438404E+03  0.80523457421E+02 0.  0.
          6    2    1    2  501    0 -0.14384627354E+03  0.11343465527E+03  0.11626908241E+04  0.11895332421E+04  0.17198898313E+03 0.  0.
         24    2    5    5    0    0 -0.13989344650E+03  0.53818895447E+02  0.10377424555E+04  0.10509552912E+04  0.71630792113E+02 0.  0.
          5    1    5    5  501    0 -0.39528270399E+01  0.59615759821E+02  0.12494836857E+03  0.13857795088E+03  0.47000000000E+01 0. -1.
        -13    1    6    6    0    0 -0.69908796106E+02 -0.17010268072E+01  0.60922871720E+03  0.61322896468E+03  0.00000000000E+00 0.  1.
         14    1    6    6    0    0 -0.69984650399E+02  0.55519922254E+02  0.42851373830E+03  0.43772632656E+03  0.00000000000E+00 0. -1.
         -5    1    3    3    0  503  0.20384685827E+02 -0.89181095471E+02  0.38137271769E+03  0.39221938122E+03  0.47000000000E+01 0.  1.
         11    1    4    4    0    0  0.51734377233E+02 -0.48553758121E+02  0.32518370685E+03  0.33283382703E+03  0.00000000000E+00 0. -1.
        -12    1    4    4    0    0  0.71727210484E+02  0.24300198323E+02  0.51248520686E+03  0.51805055701E+03  0.00000000000E+00 0.  1.
</event>
<event>
12    1  0.8407180E-002  0.1774502E+03  0.7818608E-02  0.1171229E+00
         21   -1    0    0  501  502  0.00000000000E+00  0.00000000000E+00  0.46560197102E+03  0.46560197102E+03  0.00000000000E+00 0. -1.
         21   -1    0    0  502  503 -0.00000000000E+00 -0.00000000000E+00 -0.72849172814E+02  0.72849172814E+02  0.00000000000E+00 0. -1.
         -6    2    1    2    0  503  0.39389255933E+02  0.19123889529E+02  0.11318576223E+03  0.20732232678E+03  0.16809013586E+03 0.  0.
        -24    2    3    3    0    0  0.61495636872E+02  0.46007147103E+02  0.25072075157E+02  0.11246710306E+03  0.78242375853E+02 0.  0.
          6    2    1    2  501    0 -0.39389255933E+02 -0.19123889529E+02  0.27956703598E+03  0.33112881706E+03  0.17196316248E+03 0.  0.
         24    2    5    5    0    0 -0.48445652938E+02 -0.75800772828E+02  0.18521463654E+03  0.22059034997E+03  0.79138501768E+02 0.  0.
          5    1    5    5  501    0  0.90563970046E+01  0.56676883300E+02  0.94352399437E+02  0.11053846709E+03  0.47000000000E+01 0. -1.
        -13    1    6    6    0    0 -0.28327582432E+02 -0.27737103367E+01  0.11082983524E+03  0.11442638584E+03  0.00000000000E+00 0.  1.
         14    1    6    6    0    0 -0.20118070506E+02 -0.73027062492E+02  0.74384801297E+02  0.10616396414E+03  0.00000000000E+00 0. -1.
         -5    1    3    3    0  503 -0.22106380939E+02 -0.26883257574E+02  0.88113687076E+02  0.94855223716E+02  0.47000000000E+01 0.  1.
         13    1    4    4    0    0 -0.23557661800E+01  0.45253842151E+02  0.53210483993E+01  0.45626455262E+02  0.00000000000E+00 0. -1.
        -14    1    4    4    0    0  0.63851403052E+02  0.75330495204E+00  0.19751026757E+02  0.66840647797E+02  0.00000000000E+00 0.  1.
</event>
<event>
12    1  0.8407180E-002  0.2512408E+03  0.7818608E-02  0.1112826E+00
         21   -1    0    0  503  502  0.00000000000E+00  0.00000000000E+00  0.20876681427E+04  0.20876681427E+04  0.00000000000E+00 0.  1.
         21   -1    0    0  501  503 -0.00000000000E+00 -0.00000000000E+00 -0.53222929315E+02  0.53222929315E+02  0.00000000000E+00 0. -1.
          6    2    1    2  501    0 -0.12968761634E+03  0.12802186771E+03  0.30801559753E+03  0.39627616431E+03  0.17015496947E+03 0.  0.
         24    2    3    3    0    0 -0.62542117012E+02 -0.43031441759E+01  0.13295954357E+03  0.16674372896E+03  0.78709576742E+02 0.  0.
         -6    2    1    2    0  502  0.12968761634E+03 -0.12802186771E+03  0.17264296159E+04  0.17446149077E+04  0.17295514229E+03 0.  0.
        -24    2    5    5    0    0  0.40769410303E+01 -0.45911712713E+02  0.87459431514E+03  0.87964925009E+03  0.82116260892E+02 0.  0.
          5    1    3    3  501    0 -0.67145499326E+02  0.13232501188E+03  0.17505605396E+03  0.22953243535E+03  0.47000000000E+01 0. -1.
        -13    1    4    4    0    0 -0.25308561519E+01 -0.21247675501E+02  0.17489833327E+01  0.21469231234E+02  0.00000000000E+00 0.  1.
         14    1    4    4    0    0 -0.60011260860E+02  0.16944531325E+02  0.13121056023E+03  0.14527449772E+03  0.00000000000E+00 0. -1.
         -5    1    5    5    0  502  0.12561067531E+03 -0.82110154993E+02  0.85183530075E+03  0.86496565765E+03  0.47000000000E+01 0.  1.
         11    1    6    6    0    0 -0.12203317514E+02 -0.64283018832E+02  0.50183805211E+03  0.50608562321E+03  0.00000000000E+00 0. -1.
        -12    1    6    6    0    0  0.16280258544E+02  0.18371306118E+02  0.37275626302E+03  0.37356362688E+03  0.00000000000E+00 0.  1.
</event>
<event>
12    1  0.8407180E-002  0.2656328E+03  0.7818608E-02  0.1104130E+00
         21   -1    0    0  501  502  0.00000000000E+00  0.00000000000E+00  0.11277311789E+03  0.11277311789E+03  0.00000000000E+00 0. -1.
         21   -1    0    0  502  503 -0.00000000000E+00 -0.00000000000E+00 -0.10600221049E+04  0.10600221049E+04  0.00000000000E+00 0.  1.
         -6    2    1    2    0  503  0.16704790700E+03 -0.11023100675E+03 -0.85006117295E+03  0.88994142588E+03  0.17127716032E+03 0.  0.
        -24    2    3    3    0    0  0.84214777442E+01 -0.35335501374E+02 -0.22981339651E+03  0.24534769727E+03  0.77857410650E+02 0.  0.
          6    2    1    2  501    0 -0.16704790700E+03  0.11023100675E+03 -0.97187814099E+02  0.28285379696E+03  0.17465658064E+03 0.  0.
         24    2    5    5    0    0 -0.97404594453E+02  0.32246207401E+02 -0.11861314732E+03  0.17602236518E+03  0.79920719553E+02 0.  0.
          5    1    5    5  501    0 -0.69643312546E+02  0.77984799352E+02  0.21425333219E+02  0.10683143178E+03  0.47000000000E+01 0. -1.
        -11    1    6    6    0    0  0.28506556664E+01  0.69738385957E+01 -0.53079057895E+02  0.53611072079E+02  0.00000000000E+00 0.  1.
         12    1    6    6    0    0 -0.10025525012E+03  0.25272368805E+02 -0.65534089423E+02  0.12241129310E+03  0.00000000000E+00 0. -1.
         -5    1    3    3    0  503  0.15862642926E+03 -0.74895505379E+02 -0.62024777644E+03  0.64459372861E+03  0.47000000000E+01 0.  1.
         11    1    4    4    0    0 -0.93139970982E+01 -0.19679043870E+02 -0.94773014314E+01  0.23745200610E+02  0.00000000000E+00 0. -1.
        -12    1    4    4    0    0  0.17735474842E+02 -0.15656457504E+02 -0.22033609508E+03  0.22160249666E+03  0.00000000000E+00 0.  1.
</event>
<event>
12    1  0.8407180E-002  0.1804991E+03  0.7818608E-02  0.1167637E+00
         21   -1    0    0  503  502  0.00000000000E+00  0.00000000000E+00  0.58416504666E+02  0.58416504666E+02  0.00000000000E+00 0.  1.
         21   -1    0    0  501  503 -0.00000000000E+00 -0.00000000000E+00 -0.66842900083E+03  0.66842900083E+03  0.00000000000E+00 0.  1.
          6    2    1    2  501    0 -0.29742513839E+02  0.39096271765E+02 -0.45649146239E+03  0.49088121436E+03  0.17368585371E+03 0.  0.
         24    2    3    3    0    0 -0.72714514935E+02  0.29254532140E+02 -0.18594988293E+03  0.21673109319E+03  0.79068195012E+02 0.  0.
         -6    2    1    2    0  502  0.29742513839E+02 -0.39096271765E+02 -0.15352103377E+03  0.23596429114E+03  0.17232905526E+03 0.  0.
        -24    2    5    5    0    0  0.11877432701E+02  0.15900442406E+02 -0.15738153157E+03  0.17781970294E+03  0.80355477697E+02 0.  0.
          5    1    3    3  501    0  0.42972001096E+02  0.98417396250E+01 -0.27054157946E+03  0.27415012117E+03  0.47000000000E+01 0. -1.
        -11    1    4    4    0    0 -0.35091677416E+01  0.37036418746E+02 -0.96116763118E+02  0.10306523528E+03  0.00000000000E+00 0.  1.
         12    1    4    4    0    0 -0.69205347193E+02 -0.77818866058E+01 -0.89833119808E+02  0.11366585791E+03  0.00000000000E+00 0. -1.
         -5    1    5    5    0  502  0.17865081138E+02 -0.54996714171E+02  0.38604978003E+01  0.58144588200E+02  0.47000000000E+01 0.  1.
         13    1    6    6    0    0  0.34167300444E+02  0.23888710376E+02 -0.14544692904E+03  0.15130394598E+03  0.00000000000E+00 0. -1.
        -14    1    6    6    0    0 -0.22289867742E+02 -0.79882679705E+01 -0.11934602532E+02  0.26515756952E+02  0.00000000000E+00 0.  1.
</event>
<event>
12    1  0.8407180E-002  0.2263738E+03  0.7818608E-02  0.1129490E+00
         21   -1    0    0  501  502  0.00000000000E+00  0.00000000000E+00  0.32543238505E+03  0.32543238505E+03  0.00000000000E+00 0. -1.
         21   -1    0    0  502  503 -0.00000000000E+00 -0.00000000000E+00 -0.25334170028E+03  0.25334170028E+03  0.00000000000E+00 0.  1.
         -6    2    1    2    0  503  0.82154136035E+02 -0.12060004291E+03 -0.14301886205E+03  0.26649663522E+03  0.17109175685E+03 0.  0.
        -24    2    3    3    0    0  0.48788862621E+02 -0.74743876975E+01 -0.21244089048E+02  0.96903472980E+02  0.80639643903E+02 0.  0.
          6    2    1    2  501    0 -0.82154136035E+02  0.12060004291E+03  0.21510954682E+03  0.31227745012E+03  0.17306477487E+03 0.  0.
         24    2    5    5    0    0 -0.46430886762E+02  0.79453956361E+02  0.41196082433E+02  0.12996690716E+03  0.82009275830E+02 0.  0.
          5    1    5    5  501    0 -0.35723249273E+02  0.41146086549E+02  0.17391346439E+03  0.18231054296E+03  0.47000000000E+01 0. -1.
        -11    1    6    6    0    0 -0.57724049934E+02  0.19710826961E+02  0.10633279177E+02  0.61916470073E+02  0.00000000000E+00 0.  1.
         12    1    6    6    0    0  0.11293163172E+02  0.59743129400E+02  0.30562803256E+02  0.68050437088E+02  0.00000000000E+00 0. -1.
         -5    1    3    3    0  503  0.33365273414E+02 -0.11312565521E+03 -0.12177477301E+03  0.16959316224E+03  0.47000000000E+01 0.  1.
         11    1    4    4    0    0  0.56218269364E+02 -0.27944663989E+02  0.47891633101E+01  0.62962958483E+02  0.00000000000E+00 0. -1.
        -12    1    4    4    0    0 -0.74294067433E+01  0.20470276291E+02 -0.26033252358E+02  0.33940514497E+02  0.00000000000E+00 0.  1.
</event>
<event>
12    1  0.8407180E-002  0.2682921E+03  0.7818608E-02  0.1102368E+00
         21   -1    0    0  501  502  0.00000000000E+00  0.00000000000E+00  0.41612223905E+03  0.41612223905E+03  0.00000000000E+00 0.  1.
         21   -1    0    0  502  503 -0.00000000000E+00 -0.00000000000E+00 -0.20073427950E+03  0.20073427950E+03  0.00000000000E+00 0. -1.
         -6    2    1    2    0  503 -0.30102494117E+02  0.20178843878E+03 -0.81029204655E+01  0.26767344182E+03  0.17308575898E+03 0.  0.
        -24    2    3    3    0    0 -0.83988434744E+02  0.10484305056E+03  0.33758177786E+01  0.15606719501E+03  0.79369079581E+02 0.  0.
          6    2    1    2  501    0  0.30102494117E+02 -0.20178843878E+03  0.22349088002E+03  0.34918307672E+03  0.17422948499E+03 0.  0.
         24    2    5    5    0    0  0.45728270415E+02 -0.17502727971E+03  0.24239302071E+03  0.31258108986E+03  0.78910949120E+02 0.  0.
          5    1    5    5  501    0 -0.15625776298E+02 -0.26761159068E+02 -0.18902140691E+02  0.36601986863E+02  0.47000000000E+01 0. -1.
        -11    1    6    6    0    0  0.63456876790E+02 -0.11712024155E+03  0.19261321923E+03  0.23418748561E+03  0.00000000000E+00 0.  1.
         12    1    6    6    0    0 -0.17728606375E+02 -0.57907038157E+02  0.49779801480E+02  0.78393604252E+02  0.00000000000E+00 0. -1.
         -5    1    3    3    0  503  0.53885940627E+02  0.96945388223E+02 -0.11478738244E+02  0.11160624681E+03  0.47000000000E+01 0.  1.
         13    1    4    4    0    0 -0.82795983722E+01  0.54386829285E+02 -0.25468357797E+02  0.60622736641E+02  0.00000000000E+00 0. -1.
        -14    1    4    4    0    0 -0.75708836372E+02  0.50456221270E+02  0.28844175576E+02  0.95444458374E+02  0.00000000000E+00 0.  1.
</event>
<event>
12    1  0.8407180E-002  0.1914817E+03  0.7818608E-02  0.1157399E+00
         21   -1    0    0  501  502  0.00000000000E+00  0.00000000000E+00  0.43146383861E+02  0.43146383861E+02  0.00000000000E+00 0. -1.
         21   -1    0    0  502  503 -0.00000000000E+00 -0.00000000000E+00 -0.88518751427E+03  0.88518751427E+03  0.00000000000E+00 0. -1.
         -6    2    1    2    0  503 -0.25128664548E+01 -0.80157357528E+02 -0.51928580262E+03  0.55305234817E+03  0.17256198467E+03 0.  0.
        -24    2    3    3    0    0 -0.24970130294E+02 -0.68968162224E+02 -0.51546340264E+03  0.52724096439E+03  0.83068647945E+02 0.  0.
          6    2    1    2  501    0  0.25128664548E+01  0.80157357528E+02 -0.32275532779E+03  0.37528154996E+03  0.17387847382E+03 0.  0.
         24    2    5    5    0    0  0.27335943365E+02  0.99883367968E+02 -0.14509599279E+03  0.19475390679E+03  0.78436573676E+02 0.  0.
          5    1    5    5  501    0 -0.24823076910E+02 -0.19726010440E+02 -0.17765933500E+03  0.18052764317E+03  0.47000000000E+01 0. -1.
        -13    1    6    6    0    0  0.25093177001E+02 -0.44238272020E+01 -0.25554246043E+02  0.36086801880E+02  0.00000000000E+00 0.  1.
         14    1    6    6    0    0  0.22427663639E+01  0.10430719517E+03 -0.11954174675E+03  0.15866710491E+03  0.00000000000E+00 0. -1.
         -5    1    3    3    0  503  0.22457263840E+02 -0.11189195304E+02 -0.38223999792E+01  0.25811383774E+02  0.47000000000E+01 0.  1.
         13    1    4    4    0    0  0.24033443172E+02 -0.38509216929E+02 -0.32721718932E+03  0.33035080622E+03  0.00000000000E+00 0. -1.
        -14    1    4    4    0    0 -0.49003573466E+02 -0.30458945295E+02 -0.18824621331E+03  0.19689015818E+03  0.00000000000E+00 0.  1.
</event>
<event>
12    1  0.8407180E-002  0.1838093E+03  0.7818608E-02  0.1164374E+00
         21   -1    0    0  503  502  0.00000000000E+00  0.00000000000E+00  0.30729040778E+02  0.30729040778E+02  0.00000000000E+00 0. -1.
         21   -1    0    0  501  503 -0.00000000000E+00 -0.00000000000E+00 -0.28299858885E+04  0.28299858885E+04  0.00000000000E+00 0. -1.
          6    2    1    2  501    0  0.56631763347E+02 -0.29300954157E+02 -0.25185349010E+04  0.25251696226E+04  0.17145807971E+03 0.  0.
         24    2    3    3    0    0  0.38869345696E+02  0.19303214931E+02 -0.22433768410E+04  0.22451483436E+04  0.77897329561E+02 0.  0.
         -6    2    1    2    0  502 -0.56631763347E+02  0.29300954157E+02 -0.28072194674E+03  0.33554530664E+03  0.17239529835E+03 0.  0.
        -24    2    5    5    0    0  0.66968589648E+01  0.25758458984E+02 -0.25286337770E+03  0.26611005950E+03  0.78525982044E+02 0.  0.
          5    1    3    3  501    0  0.17762417651E+02 -0.48604169087E+02 -0.27515805995E+03  0.28002127899E+03  0.47000000000E+01 0. -1.
        -11    1    4    4    0    0  0.16833001567E+02  0.45550781197E+02 -0.87838832500E+03  0.87972965910E+03  0.00000000000E+00 0.  1.
         12    1    4    4    0    0  0.22036344128E+02 -0.26247566266E+02 -0.13649885160E+04  0.13654186845E+04  0.00000000000E+00 0. -1.
         -5    1    5    5    0  502 -0.63328622312E+02  0.35424951728E+01 -0.27858569035E+02  0.69435247134E+02  0.47000000000E+01 0.  1.
         11    1    6    6    0    0 -0.26108123937E+02  0.16662806275E+02 -0.40243305854E+02  0.50781954615E+02  0.00000000000E+00 0. -1.
        -12    1    6    6    0    0  0.32804982902E+02  0.90956527084E+01 -0.21262007185E+03  0.21532810489E+03  0.00000000000E+00 0.  1.
</event>
<event>
12    1  0.8407180E-002  0.2720418E+03  0.7818608E-02  0.1100428E+00
         21   -1    0    0  501  502  0.00000000000E+00  0.00000000000E+00  0.51191784129E+03  0.51191784129E+03  0.00000000000E+00 0.  1.
         21   -1    0    0  502  503 -0.00000000000E+00 -0.00000000000E+00 -0.16968351319E+03  0.16968351319E+03  0.00000000000E+00 0.  1.
         -6    2    1    2    0  503  0.14646406675E+03 -0.14928640821E+03  0.37591016025E+02  0.27462674988E+03  0.17397877095E+03 0.  0.
        -24    2    3    3    0    0  0.42685774222E+02 -0.40792945636E+02  0.69896267957E+02  0.12098273040E+03  0.79152972442E+02 0.  0.
          6    2    1    2  501    0 -0.14646406675E+03  0.14928640821E+03  0.30464331207E+03  0.40697460460E+03  0.17053629136E+03 0.  0.
         24    2    5    5    0    0 -0.11038160758E+03  0.87402692518E+02  0.29290129649E+03  0.33423188635E+03  0.78079795192E+02 0.  0.
          5    1    5    5  501    0 -0.36082459169E+02  0.61883715690E+02  0.11742015579E+02  0.72742718242E+02  0.47000000000E+01 0. -1.
        -11    1    6    6    0    0 -0.56195273428E+02  0.40954904648E+02  0.64153782071E+02  0.94609305697E+02  0.00000000000E+00 0.  1.
         12    1    6    6    0    0 -0.54186334153E+02  0.46447787870E+02  0.22874751442E+03  0.23962258066E+03  0.00000000000E+00 0. -1.
         -5    1    3    3    0  503  0.10377829253E+03 -0.10849346257E+03 -0.32305251932E+02  0.15364401948E+03  0.47000000000E+01 0.  1.
         13    1    4    4    0    0 -0.22934265736E+02 -0.16725438121E+02  0.14983412014E+02  0.32097094273E+02  0.00000000000E+00 0. -1.
        -14    1    4    4    0    0  0.65620039958E+02 -0.24067507515E+02  0.54912855943E+02  0.88885636128E+02  0.00000000000E+00 0.  1.
</event>
<event>
12    1  0.8407180E-002  0.2178584E+03  0.7818608E-02  0.1135688E+00
         21   -1    0    0  503  502  0.00000000000E+00  0.00000000000E+00  0.74921979967E+02  0.74921979967E+02  0.00000000000E+00 0. -1.
         21   -1    0    0  501  503 -0.00000000000E+00 -0.00000000000E+00 -0.63510352376E+03  0.63510352376E+03  0.00000000000E+00 0. -1.
          6    2    1    2  501    0 -0.85749773657E+01  0.13057080626E+03 -0.24901646458E+03  0.33017554063E+03  0.17287111475E+03 0.  0.
         24    2    3    3    0    0 -0.68472923301E+02  0.10914216786E+03 -0.16438030409E+03  0.22419289992E+03  0.81492441176E+02 0.  0.
         -6    2    1    2    0  502  0.85749773657E+01 -0.13057080626E+03 -0.31116507921E+03  0.37984996309E+03  0.17418387485E+03 0.  0.
        -24    2    5    5    0    0  0.57403625299E+02 -0.11036561179E+03 -0.15273600160E+03  0.21277408400E+03  0.80428727287E+02 0.  0.
          5    1    3    3  501    0  0.59897945935E+02  0.21428638394E+02 -0.84636160485E+02  0.10598264071E+03  0.47000000000E+01 0. -1.
        -13    1    4    4    0    0 -0.53337516600E+02  0.27676258420E+02 -0.32161882380E+02  0.68156090230E+02  0.00000000000E+00 0.  1.
         14    1    4    4    0    0 -0.15135406701E+02  0.81465909444E+02 -0.13221842171E+03  0.15603680969E+03  0.00000000000E+00 0. -1.
         -5    1    5    5    0  502 -0.48828647934E+02 -0.20205194465E+02 -0.15842907761E+03  0.16707587909E+03  0.47000000000E+01 0.  1.
         11    1    6    6    0    0 -0.19084731685E+02 -0.38252553925E+02 -0.38499611834E+02  0.57530035431E+02  0.00000000000E+00 0. -1.
        -12    1    6    6    0    0  0.76488356984E+02 -0.72113057868E+02 -0.11423638977E+03  0.15524404857E+03  0.00000000000E+00 0.  1.
</event>
<event>
12    1  0.8407180E-002  0.2013683E+03  0.7818608E-02  0.1148858E+00
         21   -1    0    0  503  502  0.00000000000E+00  0.00000000000E+00  0.22416126120E+04  0.22416126120E+04  0.00000000000E+00 0.  1.
         21   -1    0    0  501  503 -0.00000000000E+00 -0.00000000000E+00 -0.35472316133E+02  0.35472316133E+02  0.00000000000E+00 0.  1.
          6    2    1    2  501    0 -0.18015197334E+02 -0.10366243302E+03  0.30164978246E+03  0.36197832043E+03  0.17019185014E+03 0.  0.
         24    2    3    3    0    0 -0.39553379308E+02 -0.16373765492E+02  0.20010624785E+03  0.22627134131E+03  0.96558994721E+02 0.  0.
         -6    2    1    2    0  502  0.18015197334E+02  0.10366243302E+03  0.19044905134E+04  0.19151066077E+04  0.17169378505E+03 0.  0.
        -24    2    5    5    0    0 -0.33395441011E+02  0.68423251573E+01  0.10631777333E+04  0.10666689430E+04  0.79206491729E+02 0.  0.
          5    1    3    3  501    0  0.21538181974E+02 -0.87288667524E+02  0.10154353461E+03  0.13570697912E+03  0.47000000000E+01 0. -1.
        -11    1    4    4    0    0 -0.49403698845E+02 -0.30375669732E+02  0.54248214591E+02  0.79412061789E+02  0.00000000000E+00 0.  1.
         12    1    4    4    0    0  0.98503195370E+01  0.14001904240E+02  0.14585803326E+03  0.14685927953E+03  0.00000000000E+00 0. -1.
         -5    1    5    5    0  502  0.51410638345E+02  0.96820107859E+02  0.84131278010E+03  0.84843766476E+03  0.47000000000E+01 0.  1.
         11    1    6    6    0    0 -0.20009527170E+02  0.21901679926E+01  0.10343545770E+04  0.10345504187E+04  0.00000000000E+00 0. -1.
        -12    1    6    6    0    0 -0.13385913840E+02  0.46521571646E+01  0.28823156366E+02  0.32118524227E+02  0.00000000000E+00 0.  1.
</event>
<event>
12    1  0.8407180E-002  0.2846140E+03  0.7818608E-02  0.1093228E+00
         21   -1    0    0  503  502  0.00000000000E+00  0.00000000000E+00  0.92229251390E+03  0.92229251390E+03  0.00000000000E+00 0.  1.
         21   -1    0    0  501  503 -0.00000000000E+00 -0.00000000000E+00 -0.11558184176E+03  0.11558184176E+03  0.00000000000E+00 0.  1.
          6    2    1    2  501    0  0.96320556195E+02  0.20299187170E+03  0.14885879840E+03  0.32119168315E+03  0.17470491104E+03 0.  0.
         24    2    3    3    0    0  0.51991950042E+02  0.53049885900E+02  0.12067144930E+03  0.16224439290E+03  0.79020194186E+02 0.  0.
         -6    2    1    2    0  502 -0.96320556195E+02 -0.20299187170E+03  0.65785187374E+03  0.71668267251E+03  0.17430322941E+03 0.  0.
        -24    2    5    5    0    0  0.76720145342E+01 -0.67214658684E+02  0.34497598280E+03  0.36008300977E+03  0.77940201862E+02 0.  0.
          5    1    3    3  501    0  0.44328606153E+02  0.14994198580E+03  0.28187349107E+02  0.15894729025E+03  0.47000000000E+01 0. -1.
        -13    1    4    4    0    0  0.47352694542E+02  0.71669557240E+02  0.11210149458E+03  0.14122870885E+03  0.00000000000E+00 0.  1.
         14    1    4    4    0    0  0.46392555003E+01 -0.18619671340E+02  0.85699547142E+01  0.21015684053E+02  0.00000000000E+00 0. -1.
         -5    1    5    5    0  502 -0.10399257073E+03 -0.13577721301E+03  0.31287589093E+03  0.35659966274E+03  0.47000000000E+01 0.  1.
         11    1    6    6    0    0  0.30399995138E+02 -0.70707995065E+02  0.22167925485E+03  0.23466033389E+03  0.00000000000E+00 0. -1.
        -12    1    6    6    0    0 -0.22727980604E+02  0.34933363812E+01  0.12329672795E+03  0.12542267588E+03  0.00000000000E+00 0.  1.
</event>
<event>
12    1  0.8407180E-002  0.1755711E+03  0.7818608E-02  0.1172656E+00
         21   -1    0    0  501  502  0.00000000000E+00  0.00000000000E+00  0.24000949585E+03  0.24000949585E+03  0.00000000000E+00 0. -1.
         21   -1    0    0  502  503 -0.00000000000E+00 -0.00000000000E+00 -0.68389249127E+03  0.68389249127E+03  0.00000000000E+00 0. -1.
         -6    2    1    2    0  503 -0.20580163712E+02 -0.42824038967E+01 -0.63903305990E+03  0.66271295630E+03  0.17430814290E+03 0.  0.
        -24    2    3    3    0    0  0.60800121843E+01  0.49974821070E+02 -0.53109803551E+03  0.53891202363E+03  0.76332146582E+02 0.  0.
          6    2    1    2  501    0  0.20580163712E+02  0.42824038967E+01  0.19515006448E+03  0.26118903082E+03  0.17232028329E+03 0.  0.
         24    2    5    5    0    0  0.66070281473E+02  0.42045632221E+02  0.14710220727E+03  0.18486014500E+03  0.80006853108E+02 0.  0.
          5    1    5    5  501    0 -0.45490117761E+02 -0.37763228324E+02  0.48047857216E+02  0.76328885819E+02  0.47000000000E+01 0. -1.
        -11    1    6    6    0    0 -0.14627220971E+02  0.25221944839E+02  0.32086311134E+02  0.43354739730E+02  0.00000000000E+00 0.  1.
         12    1    6    6    0    0  0.80697502444E+02  0.16823687382E+02  0.11501589613E+03  0.14150540527E+03  0.00000000000E+00 0. -1.
         -5    1    3    3    0  503 -0.26660175897E+02 -0.54257224967E+02 -0.10793502439E+03  0.12380093267E+03  0.47000000000E+01 0.  1.
         13    1    4    4    0    0 -0.31107606375E+02  0.27991296209E+02 -0.16293138793E+03  0.16821959758E+03  0.00000000000E+00 0. -1.
        -14    1    4    4    0    0  0.37187618559E+02  0.21983524861E+02 -0.36816664759E+03  0.37069242605E+03  0.00000000000E+00 0.  1.
</event>
<event>
12    1  0.8407180E-002  0.1864802E+03  0.7818608E-02  0.1161878E+00
         21   -1    0    0  503  502  0.00000000000E+00  0.00000000000E+00  0.64554133528E+02  0.64554133528E+02  0.00000000000E+00 0. -1.
         21   -1    0    0  501  503 -0.00000000000E+00 -0.00000000000E+00 -0.53626536518E+03  0.53626536518E+03  0.00000000000E+00 0. -1.
          6    2    1    2  501    0  0.24569629259E+02 -0.65010796768E+02 -0.23119420139E+03  0.29647870380E+03  0.17210111178E+03 0.  0.
         24    2    3    3    0    0  0.35534913128E+02 -0.49294000104E+02 -0.44561891557E+02  0.10880621189E+03  0.78488222490E+02 0.  0.
         -6    2    1    2    0  502 -0.24569629259E+02  0.65010796768E+02 -0.24051703026E+03  0.30434079491E+03  0.17304567957E+03 0.  0.
        -24    2    5    5    0    0 -0.26181997225E+02  0.10329288783E+03 -0.22705950471E+03  0.26345909704E+03  0.80621085791E+02 0.  0.
          5    1    3    3  501    0 -0.10965283869E+02 -0.15716796664E+02 -0.18663230983E+03  0.18767249191E+03  0.47000000000E+01 0. -1.
        -11    1    4    4    0    0  0.26145759739E+01 -0.53535936491E+02 -0.52121737563E+02  0.74763681223E+02  0.00000000000E+00 0.  1.
         12    1    4    4    0    0  0.32920337154E+02  0.42419363871E+01  0.75598460057E+01  0.34042530668E+02  0.00000000000E+00 0. -1.
         -5    1    5    5    0  502  0.16123679662E+01 -0.38282091066E+02 -0.13457525551E+02  0.40881697871E+02  0.47000000000E+01 0.  1.
         11    1    6    6    0    0 -0.16692119148E+02  0.13843821605E+02 -0.12730156575E+03  0.12913545942E+03  0.00000000000E+00 0. -1.
        -12    1    6    6    0    0 -0.94898780775E+01  0.89449066229E+02 -0.99757938968E+02  0.13432363762E+03  0.00000000000E+00 0.  1.
</event>
<event>
12    1  0.8407180E-002  0.2257044E+03  0.7818608E-02  0.1129737E+00
         21   -1    0    0  501  502  0.00000000000E+00  0.00000000000E+00  0.95240134897E+02  0.95240134897E+02  0.00000000000E+00 0. -1.
         21   -1    0    0  502  503 -0.00000000000E+00 -0.00000000000E+00 -0.14289106397E+04  0.14289106397E+04  0.00000000000E+00 0. -1.
         -6    2    1    2    0  503  0.43626086942E+02  0.13754952058E+03 -0.12699047336E+04  0.12898063892E+04  0.17354936781E+03 0.  0.
        -24    2    3    3    0    0 -0.26631901275E+02  0.33410044651E+02 -0.36527575913E+03  0.37648449258E+03  0.80552490308E+02 0.  0.
          6    2    1    2  501    0 -0.43626086942E+02 -0.13754952058E+03 -0.63765771207E+02  0.23434438543E+03  0.17328621218E+03 0.  0.
         24    2    5    5    0    0 -0.41183026361E+02 -0.17275851444E+02  0.14566062771E+02  0.90713990851E+02  0.77603873924E+02 0.  0.
          5    1    5    5  501    0 -0.24430605809E+01 -0.12027366913E+03 -0.78331833979E+02  0.14363039457E+03  0.47000000000E+01 0. -1.
        -11    1    6    6    0    0  0.10587112073E+02 -0.68349018847E+01 -0.22778437290E+02  0.26031904103E+02  0.00000000000E+00 0.  1.
         12    1    6    6    0    0 -0.51770138434E+02 -0.10440949559E+02  0.37344500062E+02  0.64682086748E+02  0.00000000000E+00 0. -1.
         -5    1    3    3    0  503  0.70257988217E+02  0.10413947592E+03 -0.90462897446E+03  0.91332189658E+03  0.47000000000E+01 0.  1.
         11    1    4    4    0    0  0.16972764454E+02  0.17077462715E+02 -0.32394088444E+02  0.40362004809E+02  0.00000000000E+00 0. -1.
        -12    1    4    4    0    0 -0.43604665730E+02  0.16332581936E+02 -0.33288167069E+03  0.33612248777E+03  0.00000000000E+00 0.  1.
</event>
<event>
12    1  0.8407180E-002  0.2259037E+03  0.7818608E-02  0.1130170E+00
         21   -1    0    0  503  502  0.00000000000E+00  0.00000000000E+00  0.31221048282E+03  0.31221048282E+03  0.00000000000E+00 0. -1.
         21   -1    0    0  501  503 -0.00000000000E+00 -0.00000000000E+00 -0.16906098579E+03  0.16906098579E+03  0.00000000000E+00 0. -1.
          6    2    1    2  501    0  0.12412686053E+03  0.71783177987E+02  0.19606825387E+02  0.22675298431E+03  0.17456284296E+03 0.  0.
         24    2    3    3    0    0  0.28339013132E+00  0.60490109924E+02  0.18312326511E+02  0.10230016483E+03  0.80441585725E+02 0.  0.
         -6    2    1    2    0  502 -0.12412686053E+03 -0.71783177987E+02  0.12354267164E+03  0.25451848430E+03  0.17016628629E+03 0.  0.
        -24    2    5    5    0    0 -0.13575542161E+03 -0.66591512764E+02  0.14818188423E+03  0.22638740509E+03  0.80183678528E+02 0.  0.
          5    1    3    3  501    0  0.12384347040E+03  0.11293068063E+02  0.12944988759E+01  0.12445281947E+03  0.47000000000E+01 0. -1.
        -11    1    4    4    0    0 -0.31988394672E+02  0.26296191306E+02  0.33098647747E+02  0.53011956704E+02  0.00000000000E+00 0.  1.
         12    1    4    4    0    0  0.32271784803E+02  0.34193918618E+02 -0.14786321236E+02  0.49288208129E+02  0.00000000000E+00 0. -1.
         -5    1    5    5    0  502  0.11628561078E+02 -0.51916652228E+01 -0.24639212590E+02  0.28131079211E+02  0.47000000000E+01 0.  1.
         13    1    6    6    0    0 -0.30953131024E+02  0.18126415164E+01  0.75603161169E+02  0.81714258048E+02  0.00000000000E+00 0. -1.
        -14    1    6    6    0    0 -0.10480229059E+03 -0.68404154280E+02  0.72578723059E+02  0.14467314705E+03  0.00000000000E+00 0.  1.
</event>
<event>
12    1  0.8407180E-002  0.1984977E+03  0.7818608E-02  0.1151824E+00
         21   -1    0    0  501  502  0.00000000000E+00  0.00000000000E+00  0.28610846213E+03  0.28610846213E+03  0.00000000000E+00 0.  1.
         21   -1    0    0  502  503 -0.00000000000E+00 -0.00000000000E+00 -0.60880202798E+03  0.60880202798E+03  0.00000000000E+00 0.  1.
         -6    2    1    2    0  503  0.40631200532E+02 -0.88144804384E+02 -0.55569167315E+03  0.58882312947E+03  0.16881659042E+03 0.  0.
        -24    2    3    3    0    0  0.51851826786E+02 -0.12430774237E+03 -0.43496130814E+03  0.46220728697E+03  0.79392756577E+02 0.  0.
          6    2    1    2  501    0 -0.40631200532E+02  0.88144804384E+02  0.23299810730E+03  0.30608736064E+03  0.17315008906E+03 0.  0.
         24    2    5    5    0    0 -0.22342878341E+02  0.15987896851E+02  0.21345426252E+03  0.22898266621E+03  0.78201804212E+02 0.  0.
          5    1    5    5  501    0 -0.18288322192E+02  0.72156907533E+02  0.19543844782E+02  0.77104694424E+02  0.47000000000E+01 0. -1.
        -11    1    6    6    0    0 -0.42363207443E+02  0.35218625643E+02  0.14510726724E+03  0.15521311782E+03  0.00000000000E+00 0.  1.
         12    1    6    6    0    0  0.20020329103E+02 -0.19230728792E+02  0.68346995275E+02  0.73769548394E+02  0.00000000000E+00 0. -1.
         -5    1    3    3    0  503 -0.11220626254E+02  0.36162937986E+02 -0.12073036501E+03  0.12661584250E+03  0.47000000000E+01 0.  1.
         11    1    4    4    0    0  0.68386346729E+02 -0.85988764472E+02 -0.36023647661E+03  0.37661794848E+03  0.00000000000E+00 0. -1.
        -12    1    4    4    0    0 -0.16534519943E+02 -0.38318977898E+02 -0.74724831533E+02  0.85589338498E+02  0.00000000000E+00 0.  1.
</event>
<event>
12    1  0.8407180E-002  0.2147150E+03  0.7818608E-02  0.1139199E+00
         21   -1    0    0  501  502  0.00000000000E+00  0.00000000000E+00  0.10546424419E+03  0.10546424419E+03  0.00000000000E+00 0.  1.
         21   -1    0    0  502  503 -0.00000000000E+00 -0.00000000000E+00 -0.43055883919E+03  0.43055883919E+03  0.00000000000E+00 0. -1.
         -6    2    1    2    0  503  0.11008732636E+03  0.74270944190E+02 -0.12589824975E+03  0.24313794771E+03  0.16009465872E+03 0.  0.
        -24    2    3    3    0    0  0.10533779955E+03 -0.24226107530E+01 -0.80000362039E+02  0.15351001975E+03  0.77867497585E+02 0.  0.
          6    2    1    2  501    0 -0.11008732636E+03 -0.74270944190E+02 -0.19919634524E+03  0.29288513567E+03  0.16872203817E+03 0.  0.
         24    2    5    5    0    0 -0.97212142923E+02 -0.28439850755E+02 -0.54174789253E+02  0.14017756816E+03  0.80348098806E+02 0.  0.
          5    1    5    5  501    0 -0.12875183433E+02 -0.45831093435E+02 -0.14502155599E+03  0.15270756751E+03  0.47000000000E+01 0. -1.
        -13    1    6    6    0    0 -0.98471390063E+02 -0.45769088135E+02 -0.34518173129E+02  0.11394265385E+03  0.00000000000E+00 0.  1.
         14    1    6    6    0    0  0.12592471396E+01  0.17329237380E+02 -0.19656616124E+02  0.26234914312E+02  0.00000000000E+00 0. -1.
         -5    1    3    3    0  503  0.47495268100E+01  0.76693554943E+02 -0.45897887713E+02  0.89627927965E+02  0.47000000000E+01 0.  1.
         11    1    4    4    0    0 -0.91849726751E+01 -0.11354474757E+01 -0.24602438855E+02  0.26285603695E+02  0.00000000000E+00 0. -1.
        -12    1    4    4    0    0  0.11452277222E+03 -0.12871632773E+01 -0.55397923184E+02  0.12722441605E+03  0.00000000000E+00 0.  1.
</event>
<event>
12    1  0.8407180E-002  0.1760701E+03  0.7818608E-02  0.1172343E+00
         21   -1    0    0  503  502  0.00000000000E+00  0.00000000000E+00  0.50126484485E+02  0.50126484485E+02  0.00000000000E+00 0. -1.
         21   -1    0    0  501  503 -0.00000000000E+00 -0.00000000000E+00 -0.71291663813E+03  0.71291663813E+03  0.00000000000E+00 0. -1.
          6    2    1    2  501    0  0.17053501801E+02 -0.89472016514E+01 -0.18790685849E+03  0.25750661100E+03  0.17501369347E+03 0.  0.
         24    2    3    3    0    0  0.25857766249E+02  0.15009906738E+02 -0.19045352854E+02  0.86662365560E+02  0.79080457531E+02 0.  0.
         -6    2    1    2    0  502 -0.17053501801E+02  0.89472016514E+01 -0.47488329516E+03  0.50553651161E+03  0.17228507253E+03 0.  0.
        -24    2    5    5    0    0 -0.75318082918E+02  0.65191549590E+01 -0.25119701038E+03  0.27432599970E+03  0.80246514511E+02 0.  0.
          5    1    3    3  501    0 -0.88042644482E+01 -0.23957108390E+02 -0.16886150564E+03  0.17084424544E+03  0.47000000000E+01 0. -1.
        -13    1    4    4    0    0  0.48757235908E+01  0.29217484633E+02 -0.42719372661E+02  0.51984410061E+02  0.00000000000E+00 0.  1.
         14    1    4    4    0    0  0.20982042658E+02 -0.14207577895E+02  0.23674019807E+02  0.34677955499E+02  0.00000000000E+00 0. -1.
         -5    1    5    5    0  502  0.58264581116E+02  0.24280466924E+01 -0.22368628477E+03  0.23121051191E+03  0.47000000000E+01 0.  1.
         11    1    6    6    0    0 -0.55680478941E+02  0.36602455837E+02 -0.10980574940E+03  0.12844204183E+03  0.00000000000E+00 0. -1.
        -12    1    6    6    0    0 -0.19637603977E+02 -0.30083300878E+02 -0.14139126098E+03  0.14588395787E+03  0.00000000000E+00 0.  1.
</event>
<event>
12    1  0.8407180E-002  0.2551376E+03  0.7818608E-02  0.1110219E+00
         21   -1    0    0  503  502  0.00000000000E+00  0.00000000000E+00  0.14895620248E+03  0.14895620248E+03  0.00000000000E+00 0.  1.
         21   -1    0    0  501  503 -0.00000000000E+00 -0.00000000000E+00 -0.49474603213E+03  0.49474603213E+03  0.00000000000E+00 0. -1.
          6    2    1    2  501    0 -0.18354011211E+03 -0.39651529146E+02 -0.28432142966E+03  0.38201292715E+03  0.17273096025E+03 0.  0.
         24    2    3    3    0    0 -0.15208061819E+03 -0.34793560990E+02 -0.29828356200E+03  0.34693685623E+03  0.83982096519E+02 0.  0.
         -6    2    1    2    0  502  0.18354011211E+03  0.39651529146E+02 -0.61468399997E+02  0.26168930746E+03  0.17159170411E+03 0.  0.
        -24    2    5    5    0    0  0.13705410359E+03 -0.20042340084E+02  0.20215993017E+01  0.16280868740E+03  0.85539810158E+02 0.  0.
          5    1    3    3  501    0 -0.31459493919E+02 -0.48579681559E+01  0.13962132336E+02  0.35076070926E+02  0.47000000000E+01 0. -1.
        -13    1    4    4    0    0 -0.61831857246E+02  0.22059069348E+02 -0.15484378056E+03  0.16818554482E+03  0.00000000000E+00 0.  1.
         14    1    4    4    0    0 -0.90248760947E+02 -0.56852630338E+02 -0.14343978144E+03  0.17875131140E+03  0.00000000000E+00 0. -1.
         -5    1    5    5    0  502  0.46486008521E+02  0.59693869230E+02 -0.63489999299E+02  0.98880620056E+02  0.47000000000E+01 0.  1.
         13    1    6    6    0    0  0.49861701124E+02  0.26467998024E+02 -0.22857626416E+02  0.60903327034E+02  0.00000000000E+00 0. -1.
        -14    1    6    6    0    0  0.87192402467E+02 -0.46510338108E+02  0.24879225718E+02  0.10190536037E+03  0.00000000000E+00 0.  1.
</event>
<event>
12    1  0.8407180E-002  0.2193533E+03  0.7818608E-02  0.1134489E+00
         21   -1    0    0  503  502  0.00000000000E+00  0.00000000000E+00  0.10319689413E+03  0.10319689413E+03  0.00000000000E+00 0. -1.
         21   -1    0    0  501  503 -0.00000000000E+00 -0.00000000000E+00 -0.49826228007E+03  0.49826228007E+03  0.00000000000E+00 0.  1.
          6    2    1    2  501    0  0.86098258138E+02  0.10610264229E+03 -0.27511922518E+03  0.35145324012E+03  0.17075746300E+03 0.  0.
         24    2    3    3    0    0  0.10763832672E+03  0.12208463181E+03 -0.19139605726E+03  0.26341315044E+03  0.79141458106E+02 0.  0.
         -6    2    1    2    0  502 -0.86098258138E+02 -0.10610264229E+03 -0.11994616075E+03  0.25000593408E+03  0.17159605134E+03 0.  0.
        -24    2    5    5    0    0 -0.87607531809E+02 -0.13555531149E+03 -0.12545803568E+03  0.21963804981E+03  0.80317072319E+02 0.  0.
          5    1    3    3  501    0 -0.21540068579E+02 -0.15981989513E+02 -0.83723167924E+02  0.88040089678E+02  0.47000000000E+01 0. -1.
        -11    1    4    4    0    0  0.25416247257E+02  0.86323606351E+02 -0.11181264073E+03  0.14352636436E+03  0.00000000000E+00 0.  1.
         12    1    4    4    0    0  0.82222079460E+02  0.35761025456E+02 -0.79583416525E+02  0.11988678609E+03  0.00000000000E+00 0. -1.
         -5    1    5    5    0  502  0.15092736707E+01  0.29452669194E+02  0.55118749218E+01  0.30367884266E+02  0.47000000000E+01 0.  1.
         11    1    6    6    0    0 -0.22903941928E+02 -0.39249928132E+02  0.42126313364E+01  0.45638730011E+02  0.00000000000E+00 0. -1.
        -12    1    6    6    0    0 -0.64703589881E+02 -0.96305383357E+02 -0.12967066701E+03  0.17399931980E+03  0.00000000000E+00 0.  1.
</event>
<event>
12    1  0.8407180E-002  0.1914499E+03  0.7818608E-02  0.1157192E+00
         21   -1    0    0  503  502  0.00000000000E+00  0.00000000000E+00  0.13565497181E+03  0.13565497181E+03  0.00000000000E+00 0. -1.
         21   -1    0    0  501  503 -0.00000000000E+00 -0.00000000000E+00 -0.65478759792E+03  0.65478759792E+03  0.00000000000E+00 0.  1.
          6    2    1    2  501    0 -0.78835890812E+02 -0.27728204961E+02 -0.56249993063E+03  0.59414231875E+03  0.17209001114E+03 0.  0.
         24    2    3    3    0    0 -0.10341616141E+02  0.50462861588E+01 -0.13216086492E+03  0.15713038023E+03  0.84208361496E+02 0.  0.
         -6    2    1    2    0  502  0.78835890812E+02  0.27728204961E+02  0.43367304527E+02  0.19630025099E+03  0.17224724789E+03 0.  0.
        -24    2    5    5    0    0  0.36525045834E+02 -0.26581873959E-01 -0.41952239018E+02  0.96992394772E+02  0.79457250173E+02 0.  0.
          5    1    3    3  501    0 -0.68494274671E+02 -0.32774491119E+02 -0.43033906571E+03  0.43701193852E+03  0.47000000000E+01 0. -1.
        -11    1    4    4    0    0 -0.26324762009E+02 -0.49306751970E+01 -0.13539051978E+03  0.13801412065E+03  0.00000000000E+00 0.  1.
         12    1    4    4    0    0  0.15983145868E+02  0.99769613558E+01  0.32296548589E+01  0.19116259578E+02  0.00000000000E+00 0. -1.
         -5    1    5    5    0  502  0.42310844978E+02  0.27754786835E+02  0.85319543546E+02  0.99307856214E+02  0.47000000000E+01 0.  1.
         11    1    6    6    0    0  0.36330281425E+02 -0.32969225623E+02 -0.80412776220E+01  0.49714397636E+02  0.00000000000E+00 0. -1.
        -12    1    6    6    0    0  0.19476440965E+00  0.32942643749E+02 -0.33910961396E+02  0.47277997135E+02  0.00000000000E+00 0.  1.
</event>
<event>
12    1  0.8407180E-002  0.1896379E+03  0.7818608E-02  0.1159826E+00
         21   -1    0    0  501  502  0.00000000000E+00  0.00000000000E+00  0.23775652614E+03  0.23775652614E+03  0.00000000000E+00 0. -1.
         21   -1    0    0  502  503 -0.00000000000E+00 -0.00000000000E+00 -0.16198456500E+03  0.16198456500E+03  0.00000000000E+00 0. -1.
         -6    2    1    2    0  503 -0.59234165824E+02  0.37659245115E+02 -0.21957029776E+02  0.18640220972E+03  0.17127979299E+03 0.  0.
        -24    2    3    3    0    0 -0.41103778422E+02  0.82554209555E+02 -0.48346995547E+02  0.13105973893E+03  0.79589604055E+02 0.  0.
          6    2    1    2  501    0  0.59234165824E+02 -0.37659245115E+02  0.97728990915E+02  0.21333888142E+03  0.17616928653E+03 0.  0.
         24    2    5    5    0    0 -0.31187865203E+02 -0.19281935536E+02  0.81864514073E+02  0.11959646398E+03  0.79101451050E+02 0.  0.
          5    1    5    5  501    0  0.90422031027E+02 -0.18377309579E+02  0.15864476842E+02  0.93742417442E+02  0.47000000000E+01 0. -1.
        -13    1    6    6    0    0  0.39315947408E+01 -0.18319291568E+02 -0.10003580759E+02  0.21239715364E+02  0.00000000000E+00 0.  1.
         14    1    6    6    0    0 -0.35119459944E+02 -0.96264396843E+00  0.91868094832E+02  0.98356748616E+02  0.00000000000E+00 0. -1.
         -5    1    3    3    0  503 -0.18130387402E+02 -0.44894964440E+02  0.26389965772E+02  0.55342470787E+02  0.47000000000E+01 0.  1.
         11    1    4    4    0    0 -0.19249782213E+02  0.13243062440E+01 -0.42575332352E+02  0.46743628734E+02  0.00000000000E+00 0. -1.
        -12    1    4    4    0    0 -0.21853996209E+02  0.81229903311E+02 -0.57716631947E+01  0.84316110194E+02  0.00000000000E+00 0.  1.
</event>
<event>
12    1  0.8407180E-002  0.1889471E+03  0.7818608E-02  0.1160011E+00
         21   -1    0    0  501  502  0.00000000000E+00  0.00000000000E+00  0.19161770490E+02  0.19161770490E+02  0.00000000000E+00 0. -1.
         21   -1    0    0  502  503 -0.00000000000E+00 -0.00000000000E+00 -0.18434099752E+04  0.18434099752E+04  0.00000000000E+00 0.  1.
         -6    2    1    2    0  503 -0.50134304792E+02  0.53034928027E+02 -0.85321062563E+03  0.87332203586E+03  0.17145510936E+03 0.  0.
        -24    2    3    3    0    0 -0.75747016754E+02 -0.12967429993E+02 -0.60955216057E+03  0.61954288014E+03  0.79835951177E+02 0.  0.
          6    2    1    2  501    0  0.50134304792E+02 -0.53034928027E+02 -0.97103757904E+03  0.98924970979E+03  0.17428383832E+03 0.  0.
         24    2    5    5    0    0  0.22585348993E+02  0.39464189710E+02 -0.50531544048E+03  0.51360884517E+03  0.79892622898E+02 0.  0.
          5    1    5    5  501    0  0.27548955799E+02 -0.92499117737E+02 -0.46572213856E+03  0.47564086462E+03  0.47000000000E+01 0. -1.
        -13    1    6    6    0    0  0.43217506208E+02  0.48697126988E+02 -0.43227319914E+03  0.43714903833E+03  0.00000000000E+00 0.  1.
         14    1    6    6    0    0 -0.20632157215E+02 -0.92329372788E+01 -0.73042241335E+02  0.76459806836E+02  0.00000000000E+00 0. -1.
         -5    1    3    3    0  503  0.25612711963E+02  0.66002358021E+02 -0.24365846507E+03  0.25377915572E+03  0.47000000000E+01 0.  1.
         13    1    4    4    0    0 -0.24310625275E+02 -0.43982627494E+02 -0.24877626269E+03  0.25380131382E+03  0.00000000000E+00 0. -1.
        -14    1    4    4    0    0 -0.51436391479E+02  0.31015197501E+02 -0.36077589788E+03  0.36574156632E+03  0.00000000000E+00 0.  1.
</event>
<event>
12    1  0.8407180E-002  0.1852540E+03  0.7818608E-02  0.1162890E+00
         21   -1    0    0  503  502  0.00000000000E+00  0.00000000000E+00  0.31285515119E+03  0.31285515119E+03  0.00000000000E+00 0. -1.
         21   -1    0    0  501  503 -0.00000000000E+00 -0.00000000000E+00 -0.12588400138E+03  0.12588400138E+03  0.00000000000E+00 0. -1.
          6    2    1    2  501    0 -0.67600135653E+02 -0.63832711830E+01  0.14419540775E+02  0.18581431218E+03  0.17236157044E+03 0.  0.
         24    2    3    3    0    0 -0.58097031403E+02 -0.64417325602E+02  0.35959652435E+02  0.12301043593E+03  0.79458252233E+02 0.  0.
         -6    2    1    2    0  502  0.67600135653E+02  0.63832711830E+01  0.17255160903E+03  0.25292484039E+03  0.17200695513E+03 0.  0.
        -24    2    5    5    0    0  0.44406839115E+02  0.26842303461E+02  0.19253979114E+03  0.21580182287E+03  0.82500781614E+02 0.  0.
          5    1    3    3  501    0 -0.95031042493E+01  0.58034054419E+02 -0.21540111660E+02  0.62803876258E+02  0.47000000000E+01 0. -1.
        -13    1    4    4    0    0 -0.28513391289E+02 -0.75852179732E+02  0.92787235230E+01  0.81563848383E+02  0.00000000000E+00 0.  1.
         14    1    4    4    0    0 -0.29583640114E+02  0.11434854130E+02  0.26680928912E+02  0.41446587543E+02  0.00000000000E+00 0. -1.
         -5    1    5    5    0  502  0.23193296538E+02 -0.20459032278E+02 -0.19988182104E+02  0.37123017521E+02  0.47000000000E+01 0.  1.
         13    1    6    6    0    0  0.26176502765E+02  0.19918505343E+02  0.13261104570E+02  0.35465660103E+02  0.00000000000E+00 0. -1.
        -14    1    6    6    0    0  0.18230336350E+02  0.69237981179E+01  0.17927868657E+03  0.18033616276E+03  0.00000000000E+00 0.  1.
</event>
<event>
12    1  0.8407180E-002  0.2140453E+03  0.7818608E-02  0.1138534E+00
         21   -1    0    0  501  502  0.00000000000E+00  0.00000000000E+00  0.12951752333E+04  0.12951752333E+04  0.00000000000E+00 0.  1.
         21   -1    0    0  502  503 -0.00000000000E+00 -0.00000000000E+00 -0.10462341563E+03  0.10462341563E+03  0.00000000000E+00 0.  1.
         -6    2    1    2    0  503 -0.10132853445E+03 -0.74104580393E+02  0.25079555658E+02  0.21483409119E+03  0.17252751054E+03 0.  0.
        -24    2    3    3    0    0 -0.70658855289E+02  0.23847457096E+02  0.17751789129E+01  0.10947558491E+03  0.80127257482E+02 0.  0.
          6    2    1    2  501    0  0.10132853445E+03  0.74104580393E+02  0.11654722621E+04  0.11849645578E+04  0.17336795799E+03 0.  0.
         24    2    5    5    0    0  0.10178436639E+03  0.83183358062E+02  0.59842811004E+03  0.61782807305E+03  0.79471986622E+02 0.  0.
          5    1    5    5  501    0 -0.45583194182E+00 -0.90787776685E+01  0.56704415202E+03  0.56713648474E+03  0.47000000000E+01 0. -1.
        -11    1    6    6    0    0 -0.50807652314E+01  0.36733659531E+02  0.14361222809E+03  0.14832278306E+03  0.00000000000E+00 0.  1.
         12    1    6    6    0    0  0.10686513162E+03  0.46449698531E+02  0.45481588195E+03  0.46950528998E+03  0.00000000000E+00 0. -1.
         -5    1    3    3    0  503 -0.30669679161E+02 -0.97952037489E+02  0.23304376745E+02  0.10535850627E+03  0.47000000000E+01 0.  1.
         13    1    4    4    0    0  0.10256234086E+02 -0.12941596848E+02  0.11406544518E+02  0.20069492382E+02  0.00000000000E+00 0. -1.
        -14    1    4    4    0    0 -0.80915089375E+02  0.36789053944E+02 -0.96313656056E+01  0.89406092533E+02  0.00000000000E+00 0.  1.
</event>
<event>
12    1  0.8407180E-002  0.1765639E+03  0.7818608E-02  0.1171297E+00
         21   -1    0    0  503  502  0.00000000000E+00  0.00000000000E+00  0.11994148585E+04  0.11994148585E+04  0.00000000000E+00 0. -1.
         21   -1    0    0  501  503 -0.00000000000E+00 -0.00000000000E+00 -0.26868876825E+02  0.26868876825E+02  0.00000000000E+00 0. -1.
          6    2    1    2  501    0 -0.39017698742E+02  0.11976968070E+02  0.47167672651E+03  0.50364049648E+03  0.17178179990E+03 0.  0.
         24    2    3    3    0    0 -0.62420399855E+02 -0.42165903005E+02  0.38288794369E+03  0.39694150462E+03  0.72698768722E+02 0.  0.
         -6    2    1    2    0  502  0.39017698742E+02 -0.11976968070E+02  0.70086925519E+03  0.72264323888E+03  0.17125918733E+03 0.  0.
        -24    2    5    5    0    0  0.84635901782E+02 -0.32432013058E+02  0.40116996912E+03  0.41876632073E+03  0.78821417835E+02 0.  0.
          5    1    3    3  501    0  0.23402701112E+02  0.54142871075E+02  0.88788782827E+02  0.10669899186E+03  0.47000000000E+01 0. -1.
        -11    1    4    4    0    0 -0.10023902148E+02 -0.50244123090E+02  0.20631757082E+03  0.21258384358E+03  0.00000000000E+00 0.  1.
         12    1    4    4    0    0 -0.52396497706E+02  0.80782200845E+01  0.17657037286E+03  0.18435766104E+03  0.00000000000E+00 0. -1.
         -5    1    5    5    0  502 -0.45618203040E+02  0.20455044988E+02  0.29969928607E+03  0.30387691815E+03  0.47000000000E+01 0.  1.
         13    1    6    6    0    0  0.59993856748E+02  0.14579695999E+02  0.27574783772E+03  0.28257512344E+03  0.00000000000E+00 0. -1.
        -14    1    6    6    0    0  0.24642045034E+02 -0.47011709057E+02  0.12542213140E+03  0.13619119728E+03  0.00000000000E+00 0.  1.
</event>
<event>
12    1  0.8407180E-002  0.2943954E+03  0.7818608E-02  0.1088080E+00
         21   -1    0    0  501  502  0.00000000000E+00  0.00000000000E+00  0.37507075332E+03  0.37507075332E+03  0.00000000000E+00 0.  1.
         21   -1    0    0  502  503 -0.00000000000E+00 -0.00000000000E+00 -0.29851882252E+03  0.29851882252E+03  0.00000000000E+00 0.  1.
         -6    2    1    2    0  503 -0.14531738111E+03 -0.18967708513E+03 -0.12183605745E+03  0.31861057891E+03  0.17197132965E+03 0.  0.
        -24    2    3    3    0    0 -0.14774640224E+03 -0.10584719758E+03 -0.40379934280E+02  0.20160399708E+03  0.77336950639E+02 0.  0.
          6    2    1    2  501    0  0.14531738111E+03  0.18967708513E+03  0.19838798826E+03  0.35497899693E+03  0.17192369384E+03 0.  0.
         24    2    5    5    0    0  0.14352402554E+03  0.11487946531E+03  0.19529669223E+03  0.27994869528E+03  0.80212446257E+02 0.  0.
          5    1    5    5  501    0  0.17933555691E+01  0.74797619819E+02  0.30912960212E+01  0.75030301652E+02  0.47000000000E+01 0. -1.
        -11    1    6    6    0    0  0.56944531587E+02  0.11792997822E+02  0.97607476503E+02  0.11361766564E+03  0.00000000000E+00 0.  1.
         12    1    6    6    0    0  0.86579493956E+02  0.10308646749E+03  0.97689215732E+02  0.16633102965E+03  0.00000000000E+00 0. -1.
         -5    1    3    3    0  503  0.24290211253E+01 -0.83829887548E+02 -0.81456123175E+02  0.11700658183E+03  0.47000000000E+01 0.  1.
         11    1    4    4    0    0 -0.54216818929E+02 -0.70240188897E+02  0.10473309795E+02  0.89346728027E+02  0.00000000000E+00 0. -1.
        -12    1    4    4    0    0 -0.93529583308E+02 -0.35607008687E+02 -0.50853244075E+02  0.11225726905E+03  0.00000000000E+00 0.  1.
</event>
<event>
12    1  0.8407180E-002  0.3141936E+03  0.7818608E-02  0.1078998E+00
         21   -1    0    0  503  502  0.00000000000E+00  0.00000000000E+00  0.10032443878E+04  0.10032443878E+04  0.00000000000E+00 0. -1.
         21   -1    0    0  501  503 -0.00000000000E+00 -0.00000000000E+00 -0.96718629665E+02  0.96718629665E+02  0.00000000000E+00 0. -1.
          6    2    1    2  501    0 -0.25141084725E+03 -0.62553504110E+02  0.46324629393E+03  0.55974525336E+03  0.17775619492E+03 0.  0.
         24    2    3    3    0    0 -0.22493128341E+02 -0.13906824244E+02  0.13285385950E+03  0.15483653251E+03  0.74999088218E+02 0.  0.
         -6    2    1    2    0  502  0.25141084725E+03  0.62553504110E+02  0.44327946424E+03  0.54021776414E+03  0.16798272018E+03 0.  0.
        -24    2    5    5    0    0  0.24313989873E+03  0.15756869452E+02  0.33445007590E+03  0.42137223678E+03  0.79576500134E+02 0.  0.
          5    1    3    3  501    0 -0.22891771891E+03 -0.48646679866E+02  0.33039243443E+03  0.40490872085E+03  0.47000000000E+01 0. -1.
        -11    1    4    4    0    0 -0.66824748339E-01  0.14105717114E+02  0.11290053350E+03  0.11377832036E+03  0.00000000000E+00 0.  1.
         12    1    4    4    0    0 -0.22426303593E+02 -0.28012541358E+02  0.19953325998E+02  0.41058212145E+02  0.00000000000E+00 0. -1.
         -5    1    5    5    0  502  0.82709485189E+01  0.46796634658E+02  0.10882938835E+03  0.11884552736E+03  0.47000000000E+01 0.  1.
         13    1    6    6    0    0  0.18979883645E+03 -0.21496832139E+02  0.25727480136E+03  0.32043101524E+03  0.00000000000E+00 0. -1.
        -14    1    6    6    0    0  0.53341062281E+02  0.37253701592E+02  0.77175274537E+02  0.10094122155E+03  0.00000000000E+00 0.  1.
</event>
<event>
12    1  0.8407180E-002  0.2113910E+03  0.7818608E-02  0.1142500E+00
         21   -1    0    0  501  502  0.00000000000E+00  0.00000000000E+00  0.38359758340E+03  0.38359758340E+03  0.00000000000E+00 0.  1.
         21   -1    0    0  502  503 -0.00000000000E+00 -0.00000000000E+00 -0.29016100434E+03  0.29016100434E+03  0.00000000000E+00 0. -1.
         -6    2    1    2    0  503  0.10441803086E+03  0.14265246348E+02 -0.21752590020E+03  0.30332107292E+03  0.18324719260E+03 0.  0.
        -24    2    3    3    0    0  0.13355064354E+03  0.49601656049E+02 -0.18327230314E+03  0.24593841104E+03  0.81245715309E+02 0.  0.
          6    2    1    2  501    0 -0.10441803086E+03 -0.14265246348E+02  0.31096247925E+03  0.37043751482E+03  0.17152162097E+03 0.  0.
         24    2    5    5    0    0 -0.13806358801E+03 -0.28920686628E+02  0.27158682559E+03  0.31640662045E+03  0.80347900907E+02 0.  0.
          5    1    5    5  501    0  0.33645557145E+02  0.14655440281E+02  0.39375653661E+02  0.54030894372E+02  0.47000000000E+01 0. -1.
        -11    1    6    6    0    0 -0.10910329893E+03 -0.27861288270E+02  0.13046266493E+03  0.17233771544E+03  0.00000000000E+00 0.  1.
         12    1    6    6    0    0 -0.28960289074E+02 -0.10593983589E+01  0.14112416066E+03  0.14406890501E+03  0.00000000000E+00 0. -1.
         -5    1    3    3    0  503 -0.29132612679E+02 -0.35336409701E+02 -0.34253597061E+02  0.57382661873E+02  0.47000000000E+01 0.  1.
         13    1    4    4    0    0 -0.78157730921E+00  0.13597680624E+02 -0.55275664611E+02  0.56928963451E+02  0.00000000000E+00 0. -1.
        -14    1    4    4    0    0  0.13433222085E+03  0.36003975425E+02 -0.12799663853E+03  0.18900944759E+03  0.00000000000E+00 0.  1.
</event>
<event>
12    1  0.8407180E-002  0.2518972E+03  0.7818608E-02  0.1112255E+00
         21   -1    0    0  503  502  0.00000000000E+00  0.00000000000E+00  0.14752948074E+03  0.14752948074E+03  0.00000000000E+00 0.  1.
         21   -1    0    0  501  503 -0.00000000000E+00 -0.00000000000E+00 -0.57246624273E+03  0.57246624273E+03  0.00000000000E+00 0.  1.
          6    2    1    2  501    0 -0.15976610409E+03 -0.87735102699E+02 -0.39326440557E+03  0.46702152832E+03  0.17386649753E+03 0.  0.
         24    2    3    3    0    0 -0.85909249657E+02 -0.12219576144E+03 -0.24932889344E+03  0.30154677617E+03  0.80332794185E+02 0.  0.
         -6    2    1    2    0  502  0.15976610409E+03  0.87735102699E+02 -0.31672356421E+02  0.25297419516E+03  0.17254028223E+03 0.  0.
        -24    2    5    5    0    0  0.12649578308E+03  0.67171101089E+02  0.42610281992E+02  0.16889213529E+03  0.78713259816E+02 0.  0.
          5    1    3    3  501    0 -0.73856854435E+02  0.34460658745E+02 -0.14393551213E+03  0.16547475215E+03  0.47000000000E+01 0. -1.
        -13    1    4    4    0    0 -0.68554356499E+02 -0.34059421154E+02 -0.14426803538E+03  0.16331873743E+03  0.00000000000E+00 0.  1.
         14    1    4    4    0    0 -0.17354893159E+02 -0.88136340290E+02 -0.10506085806E+03  0.13822803874E+03  0.00000000000E+00 0. -1.
         -5    1    5    5    0  502  0.33270321010E+02  0.20564001610E+02 -0.74282638413E+02  0.84082059870E+02  0.47000000000E+01 0.  1.
         13    1    6    6    0    0  0.34653498464E+02 -0.13275295074E+02 -0.57854319447E+01  0.37557551010E+02  0.00000000000E+00 0. -1.
        -14    1    6    6    0    0  0.91842284618E+02  0.80446396163E+02  0.48395713936E+02  0.13133458428E+03  0.00000000000E+00 0.  1.
</event>
<event>
12    1  0.8407180E-002  0.2186363E+03  0.7818608E-02  0.1135026E+00
         21   -1    0    0  501  502  0.00000000000E+00  0.00000000000E+00  0.14237763851E+03  0.14237763851E+03  0.00000000000E+00 0. -1.
         21   -1    0    0  502  503 -0.00000000000E+00 -0.00000000000E+00 -0.51474090501E+03  0.51474090501E+03  0.00000000000E+00 0. -1.
         -6    2    1    2    0  503 -0.13400178376E+03  0.12894862836E+02 -0.38029373409E+03  0.43833843436E+03  0.17144825259E+03 0.  0.
        -24    2    3    3    0    0 -0.11926009374E+03  0.58584400851E+02 -0.35041810677E+03  0.38159784557E+03  0.71895508997E+02 0.  0.
          6    2    1    2  501    0  0.13400178376E+03 -0.12894862836E+02  0.79304675883E+01  0.21878010916E+03  0.17227619775E+03 0.  0.
         24    2    5    5    0    0  0.79369031592E+02 -0.74663750313E+02  0.16676525069E+02  0.13572159611E+03  0.79171499772E+02 0.  0.
          5    1    5    5  501    0  0.54632752163E+02  0.61768887477E+02 -0.87460574812E+01  0.83058513052E+02  0.47000000000E+01 0. -1.
        -13    1    6    6    0    0 -0.37168816442E+01 -0.21301875281E+02 -0.20894763702E+02  0.30069523604E+02  0.00000000000E+00 0.  1.
         14    1    6    6    0    0  0.83085913237E+02 -0.53361875032E+02  0.37571288771E+02  0.10565207251E+03  0.00000000000E+00 0. -1.
         -5    1    3    3    0  503 -0.14741690020E+02 -0.45689538014E+02 -0.29875627319E+02  0.56740588790E+02  0.47000000000E+01 0.  1.
         13    1    4    4    0    0 -0.12127855358E+03  0.44245840602E+02 -0.26286275446E+03  0.29285322203E+03  0.00000000000E+00 0. -1.
        -14    1    4    4    0    0  0.20184598489E+01  0.14338560249E+02 -0.87555352312E+02  0.88744623548E+02  0.00000000000E+00 0.  1.
</event>
<event>
12    1  0.8407180E-002  0.2521734E+03  0.7818608E-02  0.1112016E+00
         21   -1    0    0  501  502  0.00000000000E+00  0.00000000000E+00  0.17578835519E+03  0.17578835519E+03  0.00000000000E+00 0.  1.
         21   -1    0    0  502  503 -0.00000000000E+00 -0.00000000000E+00 -0.44905746124E+03  0.44905746124E+03  0.00000000000E+00 0. -1.
         -6    2    1    2    0  503 -0.18562329790E+00  0.18387582627E+03 -0.27484256833E+03  0.37266753117E+03  0.17184963624E+03 0.  0.
        -24    2    3    3    0    0  0.61031377268E+02  0.14562384036E+03 -0.17087570400E+03  0.24601077271E+03  0.79947871636E+02 0.  0.
          6    2    1    2  501    0  0.18562329790E+00 -0.18387582627E+03  0.15734622796E+01  0.25217828525E+03  0.17257189176E+03 0.  0.
         24    2    5    5    0    0  0.15027923726E+02 -0.18729815687E+03  0.42395451341E+02  0.20835442167E+03  0.79421361574E+02 0.  0.
          5    1    5    5  501    0 -0.14842300428E+02  0.34223305998E+01 -0.40821989061E+02  0.43823863586E+02  0.47000000000E+01 0. -1.
        -11    1    6    6    0    0 -0.18337872512E+02 -0.12404765950E+03  0.52858848255E+02  0.13608143604E+03  0.00000000000E+00 0.  1.
         12    1    6    6    0    0  0.33365796238E+02 -0.63250497369E+02 -0.10463396915E+02  0.72272985624E+02  0.00000000000E+00 0. -1.
         -5    1    3    3    0  503 -0.61217000566E+02  0.38251985915E+02 -0.10396686433E+03  0.12665675846E+03  0.47000000000E+01 0.  1.
         11    1    4    4    0    0  0.20191083255E+02  0.10382981253E+03 -0.15085073531E+03  0.18423966499E+03  0.00000000000E+00 0. -1.
        -12    1    4    4    0    0  0.40840294013E+02  0.41794027831E+02 -0.20024968687E+02  0.61771107715E+02  0.00000000000E+00 0.  1.
</event>
<event>
12    1  0.8407180E-002  0.1832006E+03  0.7818608E-02  0.1165142E+00
         21   -1    0    0  501  502  0.00000000000E+00  0.00000000000E+00  0.21962186156E+03  0.21962186156E+03  0.00000000000E+00 0.  1.
         21   -1    0    0  502  503 -0.00000000000E+00 -0.00000000000E+00 -0.15167759256E+03  0.15167759256E+03  0.00000000000E+00 0.  1.
         -6    2    1    2    0  503  0.51974846268E+02 -0.25658166172E+02  0.41534828022E+02  0.18620512946E+03  0.17201012227E+03 0.  0.
        -24    2    3    3    0    0  0.16020748181E+02 -0.77341739979E+02  0.29027246295E+01  0.11218879084E+03  0.79620913485E+02 0.  0.
          6    2    1    2  501    0 -0.51974846268E+02  0.25658166172E+02  0.26409440975E+02  0.18509432466E+03  0.17378931013E+03 0.  0.
         24    2    5    5    0    0 -0.27480526799E+02  0.65361694924E+02  0.64431566506E+02  0.12472782807E+03  0.79864095907E+02 0.  0.
          5    1    5    5  501    0 -0.24494319469E+02 -0.39703528751E+02 -0.38022125531E+02  0.60366496598E+02  0.47000000000E+01 0. -1.
        -13    1    6    6    0    0  0.15469907053E+02  0.51508497165E+02  0.11190370179E+02  0.54933302187E+02  0.00000000000E+00 0.  1.
         14    1    6    6    0    0 -0.42950433853E+02  0.13853197759E+02  0.53241196327E+02  0.69794525879E+02  0.00000000000E+00 0. -1.
         -5    1    3    3    0  503  0.35954098088E+02  0.51683573807E+02  0.38632103393E+02  0.74016338624E+02  0.47000000000E+01 0.  1.
         11    1    4    4    0    0  0.20751100903E+02  0.25787849026E+01  0.21505284832E+02  0.29995592943E+02  0.00000000000E+00 0. -1.
        -12    1    4    4    0    0 -0.47303527220E+01 -0.79920524882E+02 -0.18602560203E+02  0.82193197896E+02  0.00000000000E+00 0.  1.
</event>
<event>
12    1  0.8407180E-002  0.2469092E+03  0.7818608E-02  0.1115458E+00
         21   -1    0    0  503  502  0.00000000000E+00  0.00000000000E+00  0.74187465850E+03  0.74187465850E+03  0.00000000000E+00 0. -1.
         21   -1    0    0  501  503 -0.00000000000E+00 -0.00000000000E+00 -0.92831796428E+02  0.92831796428E+02  0.00000000000E+00 0. -1.
          6    2    1    2  501    0 -0.15264739193E+03  0.89512358808E+02  0.17996029795E+03  0.30460966026E+03  0.17055101185E+03 0.  0.
         24    2    3    3    0    0 -0.10766006024E+03  0.46601136438E+02  0.19381923609E+03  0.24073953278E+03  0.81408057813E+02 0.  0.
         -6    2    1    2    0  502  0.15264739193E+03 -0.89512358808E+02  0.46908256412E+03  0.53009679467E+03  0.17219312156E+03 0.  0.
        -24    2    5    5    0    0  0.36674894110E+02 -0.94955986076E+02  0.21734028744E+03  0.25283244933E+03  0.79534644892E+02 0.  0.
          5    1    3    3  501    0 -0.44987331691E+02  0.42911222370E+02 -0.13858938138E+02  0.63870127480E+02  0.47000000000E+01 0. -1.
        -11    1    4    4    0    0 -0.39971413086E+02 -0.20631269684E+02  0.42678634342E+02  0.62006684980E+02  0.00000000000E+00 0.  1.
         12    1    4    4    0    0 -0.67688647156E+02  0.67232406122E+02  0.15114060175E+03  0.17873284780E+03  0.00000000000E+00 0. -1.
         -5    1    5    5    0  502  0.11597249782E+03  0.54436272677E+01  0.25174227668E+03  0.27726434534E+03  0.47000000000E+01 0.  1.
         13    1    6    6    0    0  0.54203665999E+02 -0.31930470115E+02  0.92074665942E+02  0.11151383967E+03  0.00000000000E+00 0. -1.
        -14    1    6    6    0    0 -0.17528771888E+02 -0.63025515961E+02  0.12526562150E+03  0.14131860966E+03  0.00000000000E+00 0.  1.
</event>
<event>
12    1  0.8407180E-002  0.1823094E+03  0.7818608E-02  0.1165807E+00
         21   -1    0    0  503  502  0.00000000000E+00  0.00000000000E+00  0.26257916279E+03  0.26257916279E+03  0.00000000000E+00 0. -1.
         21   -1    0    0  501  503 -0.00000000000E+00 -0.00000000000E+00 -0.13304392550E+03  0.13304392550E+03  0.00000000000E+00 0.  1.
          6    2    1    2  501    0 -0.37529930776E+02  0.42079141035E+02  0.18898463569E+02  0.18236923668E+03  0.17240138267E+03 0.  0.
         24    2    3    3    0    0 -0.61896035397E+02  0.44769108330E+02  0.66010014298E+02  0.12905384312E+03  0.80387686730E+02 0.  0.
         -6    2    1    2    0  502  0.37529930776E+02 -0.42079141035E+02  0.11063677372E+03  0.21325385161E+03  0.17337116171E+03 0.  0.
        -24    2    5    5    0    0  0.28591653000E+02  0.35039584284E+02  0.99951525042E+02  0.13474617591E+03  0.78236624905E+02 0.  0.
          5    1    3    3  501    0  0.24366104621E+02 -0.26899672955E+01 -0.47111550729E+02  0.53315393561E+02  0.47000000000E+01 0. -1.
        -13    1    4    4    0    0  0.15167252340E+02 -0.59820618908E+01  0.13092127129E+01  0.16356792043E+02  0.00000000000E+00 0.  1.
         14    1    4    4    0    0 -0.77063287737E+02  0.50751170221E+02  0.64700801586E+02  0.11269705108E+03  0.00000000000E+00 0. -1.
         -5    1    5    5    0  502  0.89382777756E+01 -0.77118725319E+02  0.10685248674E+02  0.78507675699E+02  0.47000000000E+01 0.  1.
         11    1    6    6    0    0  0.12358080282E+02 -0.23084580488E+02  0.49859442646E+02  0.56316818319E+02  0.00000000000E+00 0. -1.
        -12    1    6    6    0    0  0.16233572718E+02  0.58124164772E+02  0.50092082396E+02  0.78429357593E+02  0.00000000000E+00 0.  1.
</event>
<event>
12    1  0.8407180E-002  0.2862695E+03  0.7818608E-02  0.1092412E+00
         21   -1    0    0  503  502  0.00000000000E+00  0.00000000000E+00  0.90652888546E+02  0.90652888546E+02  0.00000000000E+00 0.  1.
         21   -1    0    0  501  503 -0.00000000000E+00 -0.00000000000E+00 -0.14669859007E+04  0.14669859007E+04  0.00000000000E+00 0. -1.
          6    2    1    2  501    0  0.49853258654E+02  0.22304170658E+03 -0.11721989009E+04  0.12066484509E+04  0.17238697852E+03 0.  0.
         24    2    3    3    0    0 -0.20297120976E+02  0.17548446737E+03 -0.92866762458E+03  0.94874858789E+03  0.80582595325E+02 0.  0.
         -6    2    1    2    0  502 -0.49853258654E+02 -0.22304170658E+03 -0.20413411119E+03  0.35099033834E+03  0.17114476910E+03 0.  0.
        -24    2    5    5    0    0 -0.72985006770E+02 -0.83423585568E+02 -0.68945806794E+02  0.15521938766E+03  0.83983499511E+02 0.  0.
          5    1    3    3  501    0  0.70150379630E+02  0.47557239207E+02 -0.24353127635E+03  0.25789986298E+03  0.47000000000E+01 0. -1.
        -11    1    4    4    0    0  0.11987275359E+02  0.12419718013E+02 -0.28178489285E+02  0.33044990913E+02  0.00000000000E+00 0.  1.
         12    1    4    4    0    0 -0.32284396336E+02  0.16306474936E+03 -0.90048913530E+03  0.91570359698E+03  0.00000000000E+00 0. -1.
         -5    1    5    5    0  502  0.23131748116E+02 -0.13961812101E+03 -0.13518830439E+03  0.19577095068E+03  0.47000000000E+01 0.  1.
         11    1    6    6    0    0  0.11633258491E+02 -0.31076533915E+02 -0.39217657466E+02  0.51372252436E+02  0.00000000000E+00 0. -1.
        -12    1    6    6    0    0 -0.84618265261E+02 -0.52347051653E+02 -0.29728149329E+02  0.10384713523E+03  0.00000000000E+00 0.  1.
</event>
<event>
12    1  0.8407180E-002  0.1876086E+03  0.7818608E-02  0.1161376E+00
         21   -1    0    0  501  502  0.00000000000E+00  0.00000000000E+00  0.64044101738E+02  0.64044101738E+02  0.00000000000E+00 0. -1.
         21   -1    0    0  502  503 -0.00000000000E+00 -0.00000000000E+00 -0.57204787732E+03  0.57204787732E+03  0.00000000000E+00 0.  1.
         -6    2    1    2    0  503 -0.74268269624E+02  0.21235039773E+01 -0.33104830568E+03  0.38051277615E+03  0.17226928622E+03 0.  0.
        -24    2    3    3    0    0 -0.11436982254E+03 -0.43294740882E+01 -0.29516098373E+03  0.32610905065E+03  0.78280942383E+02 0.  0.
          6    2    1    2  501    0  0.74268269624E+02 -0.21235039773E+01 -0.17695546990E+03  0.25557920291E+03  0.16878153184E+03 0.  0.
         24    2    5    5    0    0 -0.23514261772E+02 -0.22175189876E+02 -0.85098740671E+02  0.11984695819E+03  0.77954077315E+02 0.  0.
          5    1    5    5  501    0  0.97782531396E+02  0.20051685899E+02 -0.91856729228E+02  0.13573224472E+03  0.47000000000E+01 0. -1.
        -13    1    6    6    0    0 -0.16275302699E+02  0.82576886667E+01 -0.86626094109E+02  0.88527707982E+02  0.00000000000E+00 0.  1.
         14    1    6    6    0    0 -0.72389590732E+01 -0.30432878543E+02  0.15273534371E+01  0.31319250205E+02  0.00000000000E+00 0. -1.
         -5    1    3    3    0  503  0.40101552913E+02  0.64529780655E+01 -0.35887321949E+02  0.54403725503E+02  0.47000000000E+01 0.  1.
         11    1    4    4    0    0 -0.59739227123E+02 -0.38473541484E+02 -0.11978400411E+03  0.13927381769E+03  0.00000000000E+00 0. -1.
        -12    1    4    4    0    0 -0.54630595414E+02  0.34144067395E+02 -0.17537697962E+03  0.18683523296E+03  0.00000000000E+00 0.  1.
</event>
<event>
12    1  0.8407180E-002  0.2643487E+03  0.7818608E-02  0.1104747E+00
         21   -1    0    0  503  502  0.00000000000E+00  0.00000000000E+00  0.19132394808E+04  0.19132394808E+04  0.00000000000E+00 0. -1.
         21   -1    0    0  501  503 -0.00000000000E+00 -0.00000000000E+00 -0.27028668595E+03  0.27028668595E+03  0.00000000000E+00 0.  1.
          6    2    1    2  501    0  0.11563187523E+03 -0.16304209356E+03 -0.19395926557E+03  0.32787258480E+03  0.17299358463E+03 0.  0.
         24    2    3    3    0    0  0.12766375657E+03 -0.80961605771E+02 -0.81823491038E+02  0.18830720738E+03  0.76887608341E+02 0.  0.
         -6    2    1    2    0  502 -0.11563187523E+03  0.16304209356E+03  0.18369120604E+04  0.18556535819E+04  0.17102878029E+03 0.  0.
        -24    2    5    5    0    0 -0.56877050060E+02  0.14625405627E+03  0.16392163123E+04  0.16486761278E+04  0.80483590275E+02 0.  0.
          5    1    3    3  501    0 -0.12031881342E+02 -0.82080487785E+02 -0.11213577453E+03  0.13956537741E+03  0.47000000000E+01 0. -1.
        -11    1    4    4    0    0  0.77907590693E+02 -0.89775369526E+02 -0.53151375223E+02  0.13020859553E+03  0.00000000000E+00 0.  1.
         12    1    4    4    0    0  0.49756165877E+02  0.88137637549E+01 -0.28672115815E+02  0.58098611856E+02  0.00000000000E+00 0. -1.
         -5    1    5    5    0  502 -0.58754825167E+02  0.16788037291E+02  0.19769574810E+03  0.20697745407E+03  0.47000000000E+01 0.  1.
         11    1    6    6    0    0 -0.70419214294E+02  0.85603579587E+02  0.11957639079E+04  0.12008905704E+04  0.00000000000E+00 0. -1.
        -12    1    6    6    0    0  0.13542164234E+02  0.60650476678E+02  0.44345240436E+03  0.44778555746E+03  0.00000000000E+00 0.  1.
</event>
<event>
12    1  0.8407180E-002  0.2014329E+03  0.7818608E-02  0.1148840E+00
         21   -1    0    0  503  502  0.00000000000E+00  0.00000000000E+00  0.17993705387E+03  0.17993705387E+03  0.00000000000E+00 0.  1.
         21   -1    0    0  501  503 -0.00000000000E+00 -0.00000000000E+00 -0.72047905743E+03  0.72047905743E+03  0.00000000000E+00 0.  1.
          6    2    1    2  501    0  0.10139067016E+03  0.19021786393E+02 -0.64434760215E+03  0.67509928932E+03  0.17301248998E+03 0.  0.
         24    2    3    3    0    0  0.38278301702E+01  0.28874665486E+02 -0.16224727035E+03  0.18310497340E+03  0.79717350415E+02 0.  0.
         -6    2    1    2    0  502 -0.10139067016E+03 -0.19021786393E+02  0.10380559860E+03  0.22531682198E+03  0.17131891785E+03 0.  0.
        -24    2    5    5    0    0 -0.52090354735E+02 -0.64622008037E+02  0.10901843018E+03  0.15779523337E+03  0.78261795128E+02 0.  0.
          5    1    3    3  501    0  0.97562839989E+02 -0.98528790923E+01 -0.48210033180E+03  0.49199431592E+03  0.47000000000E+01 0. -1.
        -13    1    4    4    0    0 -0.24556915221E+01 -0.22535599289E+02 -0.15435359992E+02  0.27425061427E+02  0.00000000000E+00 0.  1.
         14    1    4    4    0    0  0.62835216923E+01  0.51410264775E+02 -0.14681191036E+03  0.15567991197E+03  0.00000000000E+00 0. -1.
         -5    1    5    5    0  502 -0.49300315424E+02  0.45600221644E+02 -0.52128315857E+01  0.67521588607E+02  0.47000000000E+01 0.  1.
         13    1    6    6    0    0 -0.43899237991E+02 -0.64348127765E+02  0.38662009891E+02  0.86963070622E+02  0.00000000000E+00 0. -1.
        -14    1    6    6    0    0 -0.81911167440E+01 -0.27388027184E+00  0.70356420291E+02  0.70832162751E+02  0.00000000000E+00 0.  1.
</event>
<event>
12    1  0.8407180E-002  0.1760911E+03  0.7818608E-02  0.1172846E+00
         21   -1    0    0  503  502  0.00000000000E+00  0.00000000000E+00  0.60841779079E+03  0.60841779079E+03  0.00000000000E+00 0. -1.
         21   -1    0    0  501  503 -0.00000000000E+00 -0.00000000000E+00 -0.62863774938E+02  0.62863774938E+02  0.00000000000E+00 0. -1.
          6    2    1    2  501    0  0.29796701302E+02  0.11194774950E+02  0.12153542825E+03  0.21396010659E+03  0.17319035913E+03 0.  0.
         24    2    3    3    0    0 -0.14393241168E+02  0.64724098822E+02  0.90692821722E+02  0.13785822811E+03  0.79895736979E+02 0.  0.
         -6    2    1    2    0  502 -0.29796701302E+02 -0.11194774950E+02  0.42401858760E+03  0.45732145914E+03  0.16833890805E+03 0.  0.
        -24    2    5    5    0    0  0.10393073737E+02 -0.38265052786E+02  0.11674765578E+03  0.14621772483E+03  0.78596295572E+02 0.  0.
          5    1    3    3  501    0  0.44189942470E+02 -0.53529323872E+02  0.30842606530E+02  0.76101878474E+02  0.47000000000E+01 0. -1.
        -11    1    4    4    0    0  0.96671764053E+01 -0.96570334248E+01  0.45613730492E+02  0.47616436276E+02  0.00000000000E+00 0.  1.
         12    1    4    4    0    0 -0.24060417573E+02  0.74381132247E+02  0.45079091230E+02  0.90241791838E+02  0.00000000000E+00 0. -1.
         -5    1    5    5    0  502 -0.40189775039E+02  0.27070277836E+02  0.30727093182E+03  0.31110373431E+03  0.47000000000E+01 0.  1.
         11    1    6    6    0    0 -0.10683964358E+02  0.30047466459E+01  0.93895208415E+02  0.94548853827E+02  0.00000000000E+00 0. -1.
        -12    1    6    6    0    0  0.21077038095E+02 -0.41269799432E+02  0.22852447364E+02  0.51668871001E+02  0.00000000000E+00 0.  1.
</event>
<event>
12    1  0.8407180E-002  0.2395633E+03  0.7818608E-02  0.1120186E+00
         21   -1    0    0  501  502  0.00000000000E+00  0.00000000000E+00  0.24947987940E+03  0.24947987940E+03  0.00000000000E+00 0. -1.
         21   -1    0    0  502  503 -0.00000000000E+00 -0.00000000000E+00 -0.23372131473E+03  0.23372131473E+03  0.00000000000E+00 0. -1.
         -6    2    1    2    0  503 -0.10700516574E+03  0.12728590769E+03  0.40523829314E+02  0.24296659258E+03  0.17244934495E+03 0.  0.
        -24    2    3    3    0    0 -0.96528486697E+02  0.14440773601E+03  0.72924460566E+02  0.20456335424E+03  0.79729831222E+02 0.  0.
          6    2    1    2  501    0  0.10700516574E+03 -0.12728590769E+03 -0.24765264640E+02  0.24023460156E+03  0.17160284864E+03 0.  0.
         24    2    5    5    0    0  0.86880623698E+02 -0.85015816619E+01 -0.84330300873E+01  0.11856478119E+03  0.79787039534E+02 0.  0.
          5    1    5    5  501    0  0.20124542047E+02 -0.11878432603E+03 -0.16332234553E+02  0.12166982037E+03  0.47000000000E+01 0. -1.
        -13    1    6    6    0    0  0.47373768500E+01  0.23729624707E+02 -0.17495616723E+02  0.29860248369E+02  0.00000000000E+00 0.  1.
         14    1    6    6    0    0  0.82143246848E+02 -0.32231206369E+02  0.90625866358E+01  0.88704532822E+02  0.00000000000E+00 0. -1.
         -5    1    3    3    0  503 -0.10476679048E+02 -0.17121828322E+02 -0.32400631252E+02  0.38403238333E+02  0.47000000000E+01 0.  1.
         13    1    4    4    0    0 -0.37126353334E+02  0.26733936250E+02 -0.12573871738E+02  0.47446514201E+02  0.00000000000E+00 0. -1.
        -14    1    4    4    0    0 -0.59402133363E+02  0.11767379976E+03  0.85498332304E+02  0.15711684004E+03  0.00000000000E+00 0.  1.
</event>
<event>
12    1  0.8407180E-002  0.2146649E+03  0.7818608E-02  0.1138043E+00
         21   -1    0    0  503  502  0.00000000000E+00  0.00000000000E+00  0.39176644569E+03  0.39176644569E+03  0.00000000000E+00 0. -1.
         21   -1    0    0  501  503 -0.00000000000E+00 -0.00000000000E+00 -0.23987844924E+03  0.23987844924E+03  0.00000000000E+00 0. -1.
          6    2    1    2  501    0  0.11165651311E+03  0.57328241540E+02 -0.14988494059E+03  0.26131003505E+03  0.17338896967E+03 0.  0.
         24    2    3    3    0    0  0.12079483317E+03  0.90340583428E+01 -0.15348271455E+03  0.21180376271E+03  0.81430241934E+02 0.  0.
         -6    2    1    2    0  502 -0.11165651311E+03 -0.57328241540E+02  0.30177293704E+03  0.37033485988E+03  0.17414734771E+03 0.  0.
        -24    2    5    5    0    0 -0.51303676853E+02  0.20700962769E+02  0.74522044275E+02  0.12255253639E+03  0.80031193765E+02 0.  0.
          5    1    3    3  501    0 -0.91383200541E+01  0.48294183197E+02  0.35977739559E+01  0.49506272345E+02  0.47000000000E+01 0. -1.
        -13    1    4    4    0    0  0.24546317145E+02  0.15504496385E+02  0.16990449631E+01  0.29082603861E+02  0.00000000000E+00 0.  1.
         14    1    4    4    0    0  0.96248516023E+02 -0.64704380421E+01 -0.15518175951E+03  0.18272115884E+03  0.00000000000E+00 0. -1.
         -5    1    5    5    0  502 -0.60352836261E+02 -0.78029204309E+02  0.22725089277E+03  0.24778232349E+03  0.47000000000E+01 0.  1.
         13    1    6    6    0    0 -0.71760247921E+01  0.58557643967E+00  0.73698519316E+02  0.74049375291E+02  0.00000000000E+00 0. -1.
        -14    1    6    6    0    0 -0.44127652061E+02  0.20115386330E+02  0.82352495849E+00  0.48503161103E+02  0.00000000000E+00 0.  1.
</event>
<event>
12    1  0.8407180E-002  0.2396526E+03  0.7818608E-02  0.1120267E+00
         21   -1    0    0  501  502  0.00000000000E+00  0.00000000000E+00  0.42813959356E+03  0.42813959356E+03  0.00000000000E+00 0.  1.
         21   -1    0    0  502  503 -0.00000000000E+00 -0.00000000000E+00 -0.13469549270E+03  0.13469549270E+03  0.00000000000E+00 0.  1.
         -6    2    1    2    0  503 -0.42873528155E+02 -0.15855357390E+03  0.17541486586E+03  0.29699115809E+03  0.17451646800E+03 0.  0.
        -24    2    3    3    0    0 -0.72094298306E+02 -0.47593178652E+02  0.12577260838E+03  0.17188118067E+03  0.79130858370E+02 0.  0.
          6    2    1    2  501    0  0.42873528155E+02  0.15855357390E+03  0.11802923499E+03  0.26584392817E+03  0.17252454498E+03 0.  0.
         24    2    5    5    0    0  0.38878655774E+02  0.57079144784E+02  0.12329822663E+03  0.16404574036E+03  0.83300501765E+02 0.  0.
          5    1    5    5  501    0  0.39948723815E+01  0.10147442912E+03 -0.52689916406E+01  0.10179818782E+03  0.47000000000E+01 0. -1.
        -11    1    6    6    0    0  0.35213342686E+01  0.66823827025E+02  0.10089590771E+03  0.12106943399E+03  0.00000000000E+00 0.  1.
         12    1    6    6    0    0  0.35357321505E+02 -0.97446822409E+01  0.22402318920E+02  0.42976306368E+02  0.00000000000E+00 0. -1.
         -5    1    3    3    0  503  0.29220770150E+02 -0.11096039525E+03  0.49642257482E+02  0.12510997742E+03  0.47000000000E+01 0.  1.
         11    1    4    4    0    0  0.66240463663E+01  0.13088394725E+02  0.50651115183E+01  0.15519001947E+02  0.00000000000E+00 0. -1.
        -12    1    4    4    0    0 -0.78718344672E+02 -0.60681573377E+02  0.12070749686E+03  0.15636217872E+03  0.00000000000E+00 0.  1.
</event>
<event>
12    1  0.8407180E-002  0.2877647E+03  0.7818608E-02  0.1091682E+00
         21   -1    0    0  503  502  0.00000000000E+00  0.00000000000E+00  0.35503701595E+03  0.35503701595E+03  0.00000000000E+00 0. -1.
         21   -1    0    0  501  503 -0.00000000000E+00 -0.00000000000E+00 -0.25634685979E+03  0.25634685979E+03  0.00000000000E+00 0. -1.
          6    2    1    2  501    0 -0.23063246341E+03  0.84321730620E+01  0.14295526459E+03  0.32023452530E+03  0.16985731895E+03 0.  0.
         24    2    3    3    0    0 -0.16499830682E+03 -0.32452421153E+02  0.37767658361E+02  0.18959794903E+03  0.79015095816E+02 0.  0.
         -6    2    1    2    0  502  0.23063246341E+03 -0.84321730620E+01 -0.44265108424E+02  0.29114935044E+03  0.17188981854E+03 0.  0.
        -24    2    5    5    0    0  0.21351730531E+03 -0.54522525436E+02 -0.18324110418E+02  0.23536158659E+03  0.80603709403E+02 0.  0.
          5    1    3    3  501    0 -0.65634156583E+02  0.40884594215E+02  0.10518760623E+03  0.13063657627E+03  0.47000000000E+01 0. -1.
        -13    1    4    4    0    0 -0.56614963777E+02 -0.49654461079E+02  0.23779049691E+02  0.78970012237E+02  0.00000000000E+00 0.  1.
         14    1    4    4    0    0 -0.10838334305E+03  0.17202039926E+02  0.13988608669E+02  0.11062793680E+03  0.00000000000E+00 0. -1.
         -5    1    5    5    0  502  0.17115158093E+02  0.46090352374E+02 -0.25940998006E+02  0.55787763856E+02  0.47000000000E+01 0.  1.
         13    1    6    6    0    0  0.15662112842E+03 -0.12739852319E+01 -0.15373267210E+02  0.15737896382E+03  0.00000000000E+00 0. -1.
        -14    1    6    6    0    0  0.56896176890E+02 -0.53248540204E+02 -0.29508432075E+01  0.77982622770E+02  0.00000000000E+00 0.  1.
</event>
<event>
12    1  0.8407180E-002  0.2443199E+03  0.7818608E-02  0.1116969E+00
         21   -1    0    0  501  502  0.00000000000E+00  0.00000000000E+00  0.27935505195E+03  0.27935505195E+03  0.00000000000E+00 0. -1.
         21   -1    0    0  502  503 -0.00000000000E+00 -0.00000000000E+00 -0.30755768438E+03  0.30755768438E+03  0.00000000000E+00 0.  1.
         -6    2    1    2    0  503 -0.17205117731E+03  0.22907866308E+02 -0.17632973479E+03  0.30130443867E+03  0.17194711815E+03 0.  0.
        -24    2    3    3    0    0 -0.70243369215E+02 -0.44595239496E+02 -0.88391231243E+02  0.15071635983E+03  0.89328299302E+02 0.  0.
          6    2    1    2  501    0  0.17205117731E+03 -0.22907866308E+02  0.14812710235E+03  0.28560829767E+03  0.17176752688E+03 0.  0.
         24    2    5    5    0    0  0.11929474454E+03  0.41614329110E+02  0.51144303347E+02  0.15764694333E+03  0.79207515521E+02 0.  0.
          5    1    5    5  501    0  0.52756432772E+02 -0.64522195418E+02  0.96982799005E+02  0.12796135433E+03  0.47000000000E+01 0. -1.
        -13    1    6    6    0    0  0.67828246567E+02  0.28370613276E+02  0.69746883962E+02  0.10134194863E+03  0.00000000000E+00 0.  1.
         14    1    6    6    0    0  0.51466497971E+02  0.13243715834E+02 -0.18602580615E+02  0.56304994699E+02  0.00000000000E+00 0. -1.
         -5    1    3    3    0  503 -0.10180780810E+03  0.67503105804E+02 -0.87938503542E+02  0.15058807884E+03  0.47000000000E+01 0.  1.
         13    1    4    4    0    0 -0.28298197021E+02 -0.60595024976E+02 -0.81291000014E+02  0.10526524445E+03  0.00000000000E+00 0. -1.
        -14    1    4    4    0    0 -0.41945172194E+02  0.15999785480E+02 -0.71002312285E+01  0.45451115380E+02  0.00000000000E+00 0.  1.
</event>
<event>
12    1  0.8407180E-002  0.2636055E+03  0.7818608E-02  0.1105137E+00
         21   -1    0    0  503  502  0.00000000000E+00  0.00000000000E+00  0.15295415075E+03  0.15295415075E+03  0.00000000000E+00 0. -1.
         21   -1    0    0  501  503 -0.00000000000E+00 -0.00000000000E+00 -0.67722010931E+03  0.67722010931E+03  0.00000000000E+00 0. -1.
          6    2    1    2  501    0  0.14556463329E+03  0.13475941637E+03 -0.50083692888E+03  0.56552963724E+03  0.17215393837E+03 0.  0.
         24    2    3    3    0    0  0.35480817130E+02  0.10507420770E+03 -0.19024185187E+03  0.23463531868E+03  0.81007981448E+02 0.  0.
         -6    2    1    2    0  502 -0.14556463329E+03 -0.13475941637E+03 -0.23429029680E+02  0.26464462282E+03  0.17360499471E+03 0.  0.
        -24    2    5    5    0    0 -0.16424287371E+02 -0.38321660379E+02 -0.51581271098E+02  0.10096167190E+03  0.76120462391E+02 0.  0.
          5    1    3    3  501    0  0.11008381616E+03  0.29685208671E+02 -0.31059507701E+03  0.33089431856E+03  0.47000000000E+01 0. -1.
        -13    1    4    4    0    0  0.27227886812E+01  0.30702568644E+02 -0.12965823278E+03  0.13327159722E+03  0.00000000000E+00 0.  1.
         14    1    4    4    0    0  0.32758028449E+02  0.74371639060E+02 -0.60583619094E+02  0.10136372145E+03  0.00000000000E+00 0. -1.
         -5    1    5    5    0  502 -0.12914034592E+03 -0.96437755996E+02  0.28152241418E+02  0.16368295092E+03  0.47000000000E+01 0.  1.
         13    1    6    6    0    0 -0.40736850517E+02 -0.45835321291E+02 -0.37478173004E+02  0.71867803080E+02  0.00000000000E+00 0. -1.
        -14    1    6    6    0    0  0.24312563146E+02  0.75136609112E+01 -0.14103098094E+02  0.29093868819E+02  0.00000000000E+00 0.  1.
</event>
<event>
12    1  0.8407180E-002  0.2581210E+03  0.7818608E-02  0.1108306E+00
         21   -1    0    0  503  502  0.00000000000E+00  0.00000000000E+00  0.22992006226E+03  0.22992006226E+03  0.00000000000E+00 0. -1.
         21   -1    0    0  501  503 -0.00000000000E+00 -0.00000000000E+00 -0.29824868492E+03  0.29824868492E+03  0.00000000000E+00 0. -1.
          6    2    1    2  501    0 -0.16629566409E+03 -0.96115929351E+02 -0.79198828952E+02  0.26981898382E+03  0.17215490046E+03 0.  0.
         24    2    3    3    0    0 -0.11587758765E+03  0.74096851304E+01 -0.56943542375E+02  0.15244384563E+03  0.80709604745E+02 0.  0.
         -6    2    1    2    0  502  0.16629566409E+03  0.96115929351E+02  0.10870206297E+02  0.25834976336E+03  0.17243526052E+03 0.  0.
        -24    2    5    5    0    0  0.18172995847E+03  0.91452126941E+02  0.43967059046E+02  0.22123561299E+03  0.74985497566E+02 0.  0.
          5    1    3    3  501    0 -0.50418076438E+02 -0.10352561448E+03 -0.22255286577E+02  0.11737513819E+03  0.47000000000E+01 0. -1.
        -13    1    4    4    0    0  0.11108383368E+02  0.90377062568E+01 -0.74637927603E+01  0.16148824038E+02  0.00000000000E+00 0.  1.
         14    1    4    4    0    0 -0.12698597102E+03 -0.16280211264E+01 -0.49479749615E+02  0.13629502159E+03  0.00000000000E+00 0. -1.
         -5    1    5    5    0  502 -0.15434294376E+02  0.46638024097E+01 -0.33096852749E+02  0.37114150370E+02  0.47000000000E+01 0.  1.
         11    1    6    6    0    0  0.13630725443E+03  0.67701888441E+02  0.65433899479E+02  0.16566474733E+03  0.00000000000E+00 0. -1.
        -12    1    6    6    0    0  0.45422704041E+02  0.23750238500E+02 -0.21466840433E+02  0.55570865652E+02  0.00000000000E+00 0.  1.
</event>
<event>
12    1  0.8407180E-002  0.2417594E+03  0.7818608E-02  0.1120465E+00
         21   -1    0    0  501  502  0.00000000000E+00  0.00000000000E+00  0.35403651861E+03  0.35403651861E+03  0.00000000000E+00 0. -1.
         21   -1    0    0  502  503 -0.00000000000E+00 -0.00000000000E+00 -0.34904883851E+03  0.34904883851E+03  0.00000000000E+00 0. -1.
         -6    2    1    2    0  503  0.15164153562E+03  0.16485883007E+02 -0.25775367259E+03  0.34604107535E+03  0.17332204255E+03 0.  0.
        -24    2    3    3    0    0  0.16633964132E+03  0.14043197731E+02 -0.27091242025E+03  0.32561453226E+03  0.69030402721E+02 0.  0.
          6    2    1    2  501    0 -0.15164153562E+03 -0.16485883007E+02  0.26274135269E+03  0.35704428177E+03  0.18756508488E+03 0.  0.
         24    2    5    5    0    0 -0.41816273737E+02 -0.60131548602E+02  0.69689531283E+02  0.13064280646E+03  0.82743629499E+02 0.  0.
          5    1    5    5  501    0 -0.10982526188E+03  0.43645665595E+02  0.19305182141E+03  0.22640147531E+03  0.47000000000E+01 0. -1.
        -11    1    6    6    0    0 -0.59426949076E+02 -0.66783887869E+02  0.66800230669E+02  0.11159713604E+03  0.00000000000E+00 0.  1.
         12    1    6    6    0    0  0.17610675338E+02  0.66523392674E+01  0.28893006133E+01  0.19045670417E+02  0.00000000000E+00 0. -1.
         -5    1    3    3    0  503 -0.14698105707E+02  0.24426852761E+01  0.13158747653E+02  0.20426543088E+02  0.47000000000E+01 0.  1.
         11    1    4    4    0    0  0.75610840619E+02  0.34499178774E+02 -0.16438070471E+03  0.18419611461E+03  0.00000000000E+00 0. -1.
        -12    1    4    4    0    0  0.90728800703E+02 -0.20455981043E+02 -0.10653171553E+03  0.14141841765E+03  0.00000000000E+00 0.  1.
</event>
<event>
12    1  0.8407180E-002  0.1975118E+03  0.7818608E-02  0.1152082E+00
         21   -1    0    0  503  502  0.00000000000E+00  0.00000000000E+00  0.94279363821E+02  0.94279363821E+02  0.00000000000E+00 0.  1.
         21   -1    0    0  501  503 -0.00000000000E+00 -0.00000000000E+00 -0.10033905536E+04  0.10033905536E+04  0.00000000000E+00 0. -1.
          6    2    1    2  501    0  0.56674224557E+02 -0.76936715015E+02 -0.87655482954E+03  0.89853173368E+03  0.17285740192E+03 0.  0.
         24    2    3    3    0    0  0.16582216857E+02 -0.46134026621E+02 -0.80790784662E+03  0.81314629606E+03  0.78028788526E+02 0.  0.
         -6    2    1    2    0  502 -0.56674224557E+02  0.76936715015E+02 -0.32556360248E+02  0.19913818375E+03  0.17165335356E+03 0.  0.
        -24    2    5    5    0    0 -0.46681744529E+01  0.46811611944E+02 -0.79900078044E+02  0.12248527319E+03  0.80034372687E+02 0.  0.
          5    1    3    3  501    0  0.40092007699E+02 -0.30802688394E+02 -0.68646982914E+02  0.85385437616E+02  0.47000000000E+01 0. -1.
        -13    1    4    4    0    0 -0.28506391912E+02 -0.60251805260E+01 -0.17971164173E+03  0.18205820869E+03  0.00000000000E+00 0.  1.
         14    1    4    4    0    0  0.45088608769E+02 -0.40108846095E+02 -0.62819620489E+03  0.63108808737E+03  0.00000000000E+00 0. -1.
         -5    1    5    5    0  502 -0.52006050104E+02  0.30125103071E+02  0.47343717796E+02  0.76652910559E+02  0.47000000000E+01 0.  1.
         11    1    6    6    0    0 -0.63355940257E+01  0.57558258925E+02 -0.19480673549E+02  0.61094922572E+02  0.00000000000E+00 0. -1.
        -12    1    6    6    0    0  0.16674195728E+01 -0.10746646982E+02 -0.60419404495E+02  0.61390350617E+02  0.00000000000E+00 0.  1.
</event>
<event>
12    1  0.8407180E-002  0.2104605E+03  0.7818608E-02  0.1141356E+00
         21   -1    0    0  503  502  0.00000000000E+00  0.00000000000E+00  0.22530350112E+04  0.22530350112E+04  0.00000000000E+00 0.  1.
         21   -1    0    0  501  503 -0.00000000000E+00 -0.00000000000E+00 -0.31675178155E+02  0.31675178155E+02  0.00000000000E+00 0.  1.
          6    2    1    2  501    0 -0.48961302149E+02 -0.11066989267E+03  0.18176637456E+04  0.18298074039E+04  0.17218771398E+03 0.  0.
         24    2    3    3    0    0  0.20528904832E+02 -0.32434800060E+02  0.55313067079E+03  0.56094350024E+03  0.85033048308E+02 0.  0.
         -6    2    1    2    0  502  0.48961302149E+02  0.11066989267E+03  0.40369608744E+03  0.45490278550E+03  0.17123369701E+03 0.  0.
        -24    2    5    5    0    0  0.89438891380E+02  0.30930579076E+02  0.23051505719E+03  0.25993983364E+03  0.73996685776E+02 0.  0.
          5    1    3    3  501    0 -0.69490206980E+02 -0.78235092613E+02  0.12645330749E+04  0.12688639036E+04  0.47000000000E+01 0. -1.
        -11    1    4    4    0    0 -0.71622444399E+01 -0.28474958259E+02  0.50032947716E+03  0.50119028991E+03  0.00000000000E+00 0.  1.
         12    1    4    4    0    0  0.27691149272E+02 -0.39598418007E+01  0.52801193635E+02  0.59753210327E+02  0.00000000000E+00 0. -1.
         -5    1    5    5    0  502 -0.40477589231E+02  0.79739313598E+02  0.17318103024E+03  0.19496295186E+03  0.47000000000E+01 0.  1.
         13    1    6    6    0    0  0.64677320910E+02  0.47226164844E+02  0.20748007001E+03  0.22239929392E+03  0.00000000000E+00 0. -1.
        -14    1    6    6    0    0  0.24761570470E+02 -0.16295585769E+02  0.23034987187E+02  0.37540539719E+02  0.00000000000E+00 0.  1.
</event>
<event>
12    1  0.8407180E-002  0.1889392E+03  0.7818608E-02  0.1159561E+00
         21   -1    0    0  503  502  0.00000000000E+00  0.00000000000E+00  0.12094975051E+03  0.12094975051E+03  0.00000000000E+00 0.  1.
         21   -1    0    0  501  503 -0.00000000000E+00 -0.00000000000E+00 -0.37857978315E+03  0.37857978315E+03  0.00000000000E+00 0.  1.
          6    2    1    2  501    0  0.62454120262E+00 -0.78179563291E+02 -0.24657537541E+03  0.31026719212E+03  0.17132974224E+03 0.  0.
         24    2    3    3    0    0 -0.43176291139E+02 -0.99983450621E+01 -0.19399049424E+03  0.21354878042E+03  0.77502327337E+02 0.  0.
         -6    2    1    2    0  502 -0.62454120262E+00  0.78179563291E+02 -0.11054657234E+02  0.18926234155E+03  0.17200463457E+03 0.  0.
        -24    2    5    5    0    0 -0.60596054189E+02  0.84896126829E+02 -0.18292530319E+02  0.12830193307E+03  0.72439873200E+02 0.  0.
          5    1    3    3  501    0  0.43800832342E+02 -0.68181218229E+02 -0.52584881166E+02  0.96718411693E+02  0.47000000000E+01 0. -1.
        -13    1    4    4    0    0 -0.34718671443E+02 -0.30030583864E+02 -0.49805523230E+02  0.67733391014E+02  0.00000000000E+00 0.  1.
         14    1    4    4    0    0 -0.84576196961E+01  0.20032238802E+02 -0.14418497101E+03  0.14581538941E+03  0.00000000000E+00 0. -1.
         -5    1    5    5    0  502  0.59971512986E+02 -0.67165635376E+01  0.72378730848E+01  0.60960408483E+02  0.47000000000E+01 0.  1.
         11    1    6    6    0    0 -0.24829631063E+02 -0.68903670532E+01 -0.14833220006E+02  0.29732341862E+02  0.00000000000E+00 0. -1.
        -12    1    6    6    0    0 -0.35766423126E+02  0.91786493882E+02 -0.34593103131E+01  0.98569591204E+02  0.00000000000E+00 0.  1.
</event>
<event>
12    1  0.8407180E-002  0.2480908E+03  0.7818608E-02  0.1115020E+00
         21   -1    0    0  503  502  0.00000000000E+00  0.00000000000E+00  0.39381763954E+03  0.39381763954E+03  0.00000000000E+00 0. -1.
         21   -1    0    0  501  503 -0.00000000000E+00 -0.00000000000E+00 -0.15660455427E+03  0.15660455427E+03  0.00000000000E+00 0. -1.
          6    2    1    2  501    0 -0.12530001665E+03 -0.12491172627E+03  0.86137353719E+02  0.26261887306E+03  0.17391375808E+03 0.  0.
         24    2    3    3    0    0 -0.59616047627E+02 -0.89197941813E+02  0.10425024409E+03  0.18554731550E+03  0.10976951734E+03 0.  0.
         -6    2    1    2    0  502  0.12530001665E+03  0.12491172627E+03  0.15107573155E+03  0.28780332074E+03  0.16942208013E+03 0.  0.
        -24    2    5    5    0    0  0.14255568188E+03  0.13613614848E+03  0.10194989565E+03  0.23433198834E+03  0.75249758651E+02 0.  0.
          5    1    3    3  501    0 -0.65683969026E+02 -0.35713784457E+02 -0.18112890375E+02  0.77071557562E+02  0.47000000000E+01 0. -1.
        -11    1    4    4    0    0 -0.12467763425E+02  0.12462807216E+01 -0.20734761542E+02  0.24226610920E+02  0.00000000000E+00 0.  1.
         12    1    4    4    0    0 -0.47148284202E+02 -0.90444222535E+02  0.12498500564E+03  0.16132070458E+03  0.00000000000E+00 0. -1.
         -5    1    5    5    0  502 -0.17255665229E+02 -0.11224422208E+02  0.49125835899E+02  0.53471332405E+02  0.47000000000E+01 0.  1.
         11    1    6    6    0    0  0.94532982344E+02  0.86783657132E+02  0.24408411398E+02  0.13062793898E+03  0.00000000000E+00 0. -1.
        -12    1    6    6    0    0  0.48022699537E+02  0.49352491346E+02  0.77541484252E+02  0.10370404936E+03  0.00000000000E+00 0.  1.
</event>
<event>
12    1  0.8407180E-002  0.2020354E+03  0.7818608E-02  0.1148344E+00
         21   -1    0    0  501  502  0.00000000000E+00  0.00000000000E+00  0.13793923485E+03  0.13793923485E+03  0.00000000000E+00 0. -1.
         21   -1    0    0  502  503 -0.00000000000E+00 -0.00000000000E+00 -0.33783506940E+03  0.33783506940E+03  0.00000000000E+00 0. -1.
         -6    2    1    2    0  503 -0.49683337610E+02 -0.92792889202E+02 -0.18620901941E+03  0.27475829267E+03  0.17245105438E+03 0.  0.
        -24    2    3    3    0    0 -0.98368396166E+02 -0.52363327523E+02 -0.14744416574E+03  0.20039709133E+03  0.77465816773E+02 0.  0.
          6    2    1    2  501    0  0.49683337610E+02  0.92792889202E+02 -0.13686815134E+02  0.20101601159E+03  0.17070780206E+03 0.  0.
         24    2    5    5    0    0  0.91712920603E+02  0.51398087088E+02 -0.39485774777E+02  0.13645834894E+03  0.77516007527E+02 0.  0.
          5    1    5    5  501    0 -0.42029582994E+02  0.41394802113E+02  0.25798959643E+02  0.64557662653E+02  0.47000000000E+01 0. -1.
        -13    1    6    6    0    0  0.22364262424E+02 -0.97462738322E+01 -0.36566645283E+02  0.43957589045E+02  0.00000000000E+00 0.  1.
         14    1    6    6    0    0  0.69348658179E+02  0.61144360921E+02 -0.29191294943E+01  0.92500759892E+02  0.00000000000E+00 0. -1.
         -5    1    3    3    0  503  0.48685058556E+02 -0.40429561678E+02 -0.38764853670E+02  0.74361201336E+02  0.47000000000E+01 0.  1.
         13    1    4    4    0    0 -0.29114059515E+02 -0.24200277110E+02 -0.11089550460E+03  0.11717975429E+03  0.00000000000E+00 0. -1.
        -14    1    4    4    0    0 -0.69254336650E+02 -0.28163050414E+02 -0.36548661142E+02  0.83217337044E+02  0.00000000000E+00 0.  1.
</event>
<event>
12    1  0.8407180E-002  0.2266244E+03  0.7818608E-02  0.1129217E+00
         21   -1    0    0  503  502  0.00000000000E+00  0.00000000000E+00  0.11202188028E+04  0.11202188028E+04  0.00000000000E+00 0.  1.
         21   -1    0    0  501  503 -0.00000000000E+00 -0.00000000000E+00 -0.48105489947E+02  0.48105489947E+02  0.00000000000E+00 0. -1.
          6    2    1    2  501    0  0.80938316537E+02  0.12432606743E+03  0.66925697404E+03  0.70658582911E+03  0.17132032708E+03 0.  0.
         24    2    3    3    0    0  0.86480922341E+02  0.13601986452E+03  0.66909645862E+03  0.69281698259E+03  0.79529535139E+02 0.  0.
         -6    2    1    2    0  502 -0.80938316537E+02 -0.12432606743E+03  0.40285633883E+03  0.46173846366E+03  0.17000352042E+03 0.  0.
        -24    2    5    5    0    0  0.19035210369E+02 -0.46423317963E+02  0.22918571309E+03  0.24668702631E+03  0.76229483681E+02 0.  0.
          5    1    3    3  501    0 -0.55426058036E+01 -0.11693797081E+02  0.16051542126E+00  0.13768846519E+02  0.47000000000E+01 0. -1.
        -13    1    4    4    0    0  0.77349779560E+02  0.14313038270E+03  0.56136057213E+03  0.58446127912E+03  0.00000000000E+00 0.  1.
         14    1    4    4    0    0  0.91311427812E+01 -0.71105181801E+01  0.10773588649E+03  0.10835570347E+03  0.00000000000E+00 0. -1.
         -5    1    5    5    0  502 -0.99973526906E+02 -0.77902749472E+02  0.17367062575E+03  0.21505143735E+03  0.47000000000E+01 0.  1.
         13    1    6    6    0    0  0.53015648709E+01 -0.45817126335E+02  0.54226974118E+02  0.71189046754E+02  0.00000000000E+00 0. -1.
        -14    1    6    6    0    0  0.13733645498E+02 -0.60619162750E+00  0.17495873897E+03  0.17549797956E+03  0.00000000000E+00 0.  1.
</event>
<event>
12    1  0.8407180E-002  0.1885842E+03  0.7818608E-02  0.1160429E+00
         21   -1    0    0  501  502  0.00000000000E+00  0.00000000000E+00  0.64460414321E+02  0.64460414321E+02  0.00000000000E+00 0. -1.
         21   -1    0    0  502  503 -0.00000000000E+00 -0.00000000000E+00 -0.12377734218E+04  0.12377734218E+04  0.00000000000E+00 0. -1.
         -6    2    1    2    0  503 -0.53627556572E+02 -0.46196941979E+02 -0.10765113080E+04  0.10929046649E+04  0.17479684771E+03 0.  0.
        -24    2    3    3    0    0  0.10840148063E+02  0.31777312161E+02 -0.48974535051E+03  0.49746159612E+03  0.80561932029E+02 0.  0.
          6    2    1    2  501    0  0.53627556572E+02  0.46196941979E+02 -0.96801699480E+02  0.20932917125E+03  0.17157523319E+03 0.  0.
         24    2    5    5    0    0  0.42483348031E+02 -0.35061033083E+02 -0.65398625796E+02  0.12137864577E+03  0.86149199028E+02 0.  0.
          5    1    5    5  501    0  0.11144208541E+02  0.81257975062E+02 -0.31403073684E+02  0.87950525479E+02  0.47000000000E+01 0. -1.
        -11    1    6    6    0    0 -0.98100788564E+01  0.19635276434E+02 -0.31663279718E+02  0.38527198319E+02  0.00000000000E+00 0.  1.
         12    1    6    6    0    0  0.52293426887E+02 -0.54696309517E+02 -0.33735346078E+02  0.82851447455E+02  0.00000000000E+00 0. -1.
         -5    1    3    3    0  503 -0.64467704635E+02 -0.77974254141E+02 -0.58676595749E+03  0.59544306875E+03  0.47000000000E+01 0.  1.
         13    1    4    4    0    0  0.55736809071E+01 -0.12451202776E+02 -0.36047351534E+03  0.36073155341E+03  0.00000000000E+00 0. -1.
        -14    1    4    4    0    0  0.52664671563E+01  0.44228514937E+02 -0.12927183517E+03  0.13673004270E+03  0.00000000000E+00 0.  1.
</event>
<event>
12    1  0.8407180E-002  0.2272600E+03  0.7818608E-02  0.1129018E+00
         21   -1    0    0  501  502  0.00000000000E+00  0.00000000000E+00  0.10788431071E+04  0.10788431071E+04  0.00000000000E+00 0.  1.
         21   -1    0    0  502  503 -0.00000000000E+00 -0.00000000000E+00 -0.50136296008E+02  0.50136296008E+02  0.00000000000E+00 0.  1.
         -6    2    1    2    0  503 -0.62978804045E+01  0.14593560501E+03  0.37901720995E+03  0.44068899778E+03  0.17092654334E+03 0.  0.
        -24    2    3    3    0    0 -0.42283905942E+02  0.20719013132E+02  0.18121735031E+03  0.20379015145E+03  0.80458011221E+02 0.  0.
          6    2    1    2  501    0  0.62978804045E+01 -0.14593560501E+03  0.64968960110E+03  0.68829040529E+03  0.17409836337E+03 0.  0.
         24    2    5    5    0    0 -0.53984254436E+02 -0.11991251451E+03  0.52826363775E+03  0.55016911223E+03  0.79562995306E+02 0.  0.
          5    1    5    5  501    0  0.60282134841E+02 -0.26023090497E+02  0.12142596335E+03  0.13812129305E+03  0.47000000000E+01 0. -1.
        -11    1    6    6    0    0 -0.18978550791E+01 -0.89075271675E+02  0.37373736007E+03  0.38421038533E+03  0.00000000000E+00 0.  1.
         12    1    6    6    0    0 -0.52086399357E+02 -0.30837242839E+02  0.15452627768E+03  0.16595872691E+03  0.00000000000E+00 0. -1.
         -5    1    3    3    0  503  0.35986025537E+02  0.12521659188E+03  0.19779985964E+03  0.23689884633E+03  0.47000000000E+01 0.  1.
         11    1    4    4    0    0 -0.10124221647E+02 -0.14948811436E+02  0.13801934082E+03  0.13919520562E+03  0.00000000000E+00 0. -1.
        -12    1    4    4    0    0 -0.32159684295E+02  0.35667824568E+02  0.43198009486E+02  0.64594945831E+02  0.00000000000E+00 0.  1.
</event>
<event>
12    1  0.8407180E-002  0.7748953E+03  0.7818608E-02  0.9597786E-01
         21   -1    0    0  501  502  0.00000000000E+00  0.00000000000E+00  0.20948489196E+04  0.20948489196E+04  0.00000000000E+00 0.  1.
         21   -1    0    0  502  503 -0.00000000000E+00 -0.00000000000E+00 -0.37512299411E+03  0.37512299411E+03  0.00000000000E+00 0. -1.
         -6    2    1    2    0  503 -0.38573321630E+03  0.64914909892E+03  0.25851495560E+03  0.81687990843E+03  0.17400613705E+03 0.  0.
        -24    2    3    3    0    0 -0.12405971057E+03  0.32562562834E+03  0.14320757245E+03  0.38507168452E+03  0.79680184467E+02 0.  0.
          6    2    1    2  501    0  0.38573321630E+03 -0.64914909892E+03  0.14612109699E+04  0.16530920053E+04  0.16550230392E+03 0.  0.
         24    2    5    5    0    0  0.14088099052E+03 -0.32935674690E+03  0.76357307807E+03  0.84752358548E+03  0.83240988489E+02 0.  0.
          5    1    5    5  501    0  0.24485222578E+03 -0.31979235203E+03  0.69763789182E+03  0.80556841981E+03  0.47000000000E+01 0. -1.
        -11    1    6    6    0    0  0.67028928903E+02 -0.79076932033E+02  0.26997441947E+03  0.28919236791E+03  0.00000000000E+00 0.  1.
         12    1    6    6    0    0  0.73852061615E+02 -0.25027981486E+03  0.49359865860E+03  0.55833121756E+03  0.00000000000E+00 0. -1.
         -5    1    3    3    0  503 -0.26167350574E+03  0.32352347059E+03  0.11530738315E+03  0.43180822391E+03  0.47000000000E+01 0.  1.
         13    1    4    4    0    0 -0.12719958174E+03  0.23904171308E+03  0.11073097881E+03  0.29254405456E+03  0.00000000000E+00 0. -1.
        -14    1    4    4    0    0  0.31398711782E+01  0.86583915258E+02  0.32476593640E+02  0.92527629965E+02  0.00000000000E+00 0.  1.
</event>
<event>
12    1  0.8407180E-002  0.1809083E+03  0.7818608E-02  0.1167348E+00
         21   -1    0    0  503  502  0.00000000000E+00  0.00000000000E+00  0.28035662941E+03  0.28035662941E+03  0.00000000000E+00 0.  1.
         21   -1    0    0  501  503 -0.00000000000E+00 -0.00000000000E+00 -0.14704104027E+03  0.14704104027E+03  0.00000000000E+00 0.  1.
          6    2    1    2  501    0  0.16034116338E+02  0.46185618570E+02 -0.31881029478E+02  0.18369599082E+03  0.17417695816E+03 0.  0.
         24    2    3    3    0    0  0.54235078600E+02  0.50777234458E+02 -0.69640574714E+02  0.12958250164E+03  0.80137655295E+02 0.  0.
         -6    2    1    2    0  502 -0.16034116338E+02 -0.46185618570E+02  0.16519661862E+03  0.24370167887E+03  0.17236699577E+03 0.  0.
        -24    2    5    5    0    0 -0.48801566512E+01 -0.46810170849E+02  0.15912006776E+02  0.93925892391E+02  0.79711186655E+02 0.  0.
          5    1    3    3  501    0 -0.38200962261E+02 -0.45916158880E+01  0.37759545236E+02  0.54113489174E+02  0.47000000000E+01 0. -1.
        -13    1    4    4    0    0  0.38956731547E+02  0.71433925129E+02 -0.41019659040E+02  0.91121045976E+02  0.00000000000E+00 0.  1.
         14    1    4    4    0    0  0.15278347053E+02 -0.20656690670E+02 -0.28620915674E+02  0.38461455669E+02  0.00000000000E+00 0. -1.
         -5    1    5    5    0  502 -0.11153959687E+02  0.62455227869E+00  0.14928461184E+03  0.14977578648E+03  0.47000000000E+01 0.  1.
         13    1    6    6    0    0  0.34685349576E+02 -0.28014558988E+02 -0.59314532846E+01  0.44978562989E+02  0.00000000000E+00 0. -1.
        -14    1    6    6    0    0 -0.39565506227E+02 -0.18795611861E+02  0.21843460061E+02  0.48947329402E+02  0.00000000000E+00 0.  1.
</event>
<event>
12    1  0.8407180E-002  0.2023813E+03  0.7818608E-02  0.1147829E+00
         21   -1    0    0  503  502  0.00000000000E+00  0.00000000000E+00  0.28818128501E+03  0.28818128501E+03  0.00000000000E+00 0.  1.
         21   -1    0    0  501  503 -0.00000000000E+00 -0.00000000000E+00 -0.21064639000E+03  0.21064639000E+03  0.00000000000E+00 0.  1.
          6    2    1    2  501    0 -0.74567551990E+02  0.72630616859E+02 -0.10380198290E+03  0.22709021423E+03  0.17308838040E+03 0.  0.
         24    2    3    3    0    0 -0.56718430389E+02  0.87101921985E+02 -0.12860428465E+02  0.13317287751E+03  0.82255088133E+02 0.  0.
         -6    2    1    2    0  502  0.74567551990E+02 -0.72630616859E+02  0.18133687791E+03  0.27173746077E+03  0.17355880266E+03 0.  0.
        -24    2    5    5    0    0 -0.10490701261E+02 -0.40697606126E+02  0.13980918968E+03  0.17173114842E+03  0.90435766489E+02 0.  0.
          5    1    3    3  501    0 -0.17849121601E+02 -0.14471305126E+02 -0.90941554437E+02  0.93917336724E+02  0.47000000000E+01 0. -1.
        -13    1    4    4    0    0 -0.26562702087E+02 -0.11852110180E+02 -0.19512028787E+01  0.29152304378E+02  0.00000000000E+00 0.  1.
         14    1    4    4    0    0 -0.30155728302E+02  0.98954032164E+02 -0.10909225586E+02  0.10402057313E+03  0.00000000000E+00 0. -1.
         -5    1    5    5    0  502  0.85058253252E+02 -0.31933010733E+02  0.41527688232E+02  0.10000631235E+03  0.47000000000E+01 0.  1.
         11    1    6    6    0    0 -0.47168191944E+02 -0.68779542439E+01  0.50579579370E+02  0.69501355635E+02  0.00000000000E+00 0. -1.
        -12    1    6    6    0    0  0.36677490683E+02 -0.33819651882E+02  0.89229610313E+02  0.10222979279E+03  0.00000000000E+00 0.  1.
</event>
<event>
12    1  0.8407180E-002  0.2035929E+03  0.7818608E-02  0.1146900E+00
         21   -1    0    0  503  502  0.00000000000E+00  0.00000000000E+00  0.14310479460E+03  0.14310479460E+03  0.00000000000E+00 0. -1.
         21   -1    0    0  501  503 -0.00000000000E+00 -0.00000000000E+00 -0.32243588357E+03  0.32243588357E+03  0.00000000000E+00 0. -1.
          6    2    1    2  501    0  0.81263418582E+02  0.70303331234E+02 -0.14072211350E+02  0.20331828432E+03  0.17202905576E+03 0.  0.
         24    2    3    3    0    0  0.14225848326E+02  0.53979306700E+02 -0.66673552194E+02  0.11643042175E+03  0.77424416274E+02 0.  0.
         -6    2    1    2    0  502 -0.81263418582E+02 -0.70303331234E+02 -0.16525887762E+03  0.26222239384E+03  0.17292711071E+03 0.  0.
        -24    2    5    5    0    0 -0.85981596338E+02 -0.10691481976E+03 -0.15844707430E+03  0.22439181153E+03  0.80141101394E+02 0.  0.
          5    1    3    3  501    0  0.67037570256E+02  0.16324024534E+02  0.52601340844E+02  0.86887862566E+02  0.47000000000E+01 0. -1.
        -13    1    4    4    0    0 -0.24013276465E+02  0.44993486707E+02 -0.55962348172E+02  0.75715491847E+02  0.00000000000E+00 0.  1.
         14    1    4    4    0    0  0.38239124792E+02  0.89858199928E+01 -0.10711204021E+02  0.40714929907E+02  0.00000000000E+00 0. -1.
         -5    1    5    5    0  502  0.47181777562E+01  0.36611488529E+02 -0.68118033134E+01  0.37830582312E+02  0.47000000000E+01 0.  1.
         11    1    6    6    0    0 -0.17363160902E+02  0.10531430405E+02 -0.36205350366E+02  0.41511658338E+02  0.00000000000E+00 0. -1.
        -12    1    6    6    0    0 -0.68618435436E+02 -0.11744625017E+03 -0.12224172394E+03  0.18288015319E+03  0.00000000000E+00 0.  1.
</event>
<event>
12    1  0.8407180E-002  0.1840178E+03  0.7818608E-02  0.1164159E+00
         21   -1    0    0  503  502  0.00000000000E+00  0.00000000000E+00  0.17727196734E+03  0.17727196734E+03  0.00000000000E+00 0.  1.
         21   -1    0    0  501  503 -0.00000000000E+00 -0.00000000000E+00 -0.72037554858E+03  0.72037554858E+03  0.00000000000E+00 0.  1.
          6    2    1    2  501    0 -0.79006375049E+01 -0.62194642189E+02 -0.65643886381E+03  0.68152846887E+03  0.17215829451E+03 0.  0.
         24    2    3    3    0    0  0.15625495556E+02 -0.50183873681E+02 -0.64551074244E+03  0.65255863398E+03  0.79912920631E+02 0.  0.
         -6    2    1    2    0  502  0.79006375049E+01  0.62194642189E+02  0.11333528257E+03  0.21611904705E+03  0.17300856231E+03 0.  0.
        -24    2    5    5    0    0 -0.17348878969E+02 -0.32016359252E+02  0.52994280829E+02  0.10133064448E+03  0.78316504317E+02 0.  0.
          5    1    3    3  501    0 -0.23526133061E+02 -0.12010768508E+02 -0.10928121371E+02  0.28969834891E+02  0.47000000000E+01 0. -1.
        -13    1    4    4    0    0 -0.30444495110E+02 -0.21097245360E+02 -0.35962675073E+03  0.36152919783E+03  0.00000000000E+00 0.  1.
         14    1    4    4    0    0  0.46069990666E+02 -0.29086628321E+02 -0.28588399171E+03  0.29102943615E+03  0.00000000000E+00 0. -1.
         -5    1    5    5    0  502  0.25249516474E+02  0.94211001441E+02  0.60341001745E+02  0.11478840258E+03  0.47000000000E+01 0.  1.
         13    1    6    6    0    0  0.16388766628E+02 -0.38193546022E+02  0.52589456448E+02  0.67029766215E+02  0.00000000000E+00 0. -1.
        -14    1    6    6    0    0 -0.33737645596E+02  0.61771867706E+01  0.40482438108E+00  0.34300878262E+02  0.00000000000E+00 0.  1.
</event>
<event>
12    1  0.8407180E-002  0.1771895E+03  0.7818608E-02  0.1171733E+00
         21   -1    0    0  503  502  0.00000000000E+00  0.00000000000E+00  0.35904382690E+02  0.35904382690E+02  0.00000000000E+00 0. -1.
         21   -1    0    0  501  503 -0.00000000000E+00 -0.00000000000E+00 -0.16897902310E+04  0.16897902310E+04  0.00000000000E+00 0. -1.
          6    2    1    2  501    0  0.67291087424E+01 -0.16244789524E+02 -0.14290984963E+04  0.14394683348E+04  0.17157330945E+03 0.  0.
         24    2    3    3    0    0  0.51587909076E+02  0.24701523618E+02 -0.59065620931E+03  0.59881592671E+03  0.80213956700E+02 0.  0.
         -6    2    1    2    0  502 -0.67291087424E+01  0.16244789524E+02 -0.22478735200E+03  0.28622627894E+03  0.17631493143E+03 0.  0.
        -24    2    5    5    0    0 -0.19469230940E+02  0.15769883966E+02 -0.24636766456E+03  0.26072459000E+03  0.81563138103E+02 0.  0.
          5    1    3    3  501    0 -0.44858800334E+02 -0.40946313142E+02 -0.83844228701E+03  0.84065240806E+03  0.47000000000E+01 0. -1.
        -13    1    4    4    0    0  0.14280040495E+02 -0.16069541440E+02 -0.40153198588E+02  0.45545900754E+02  0.00000000000E+00 0.  1.
         14    1    4    4    0    0  0.37307868581E+02  0.40771065058E+02 -0.55050301072E+03  0.55327002595E+03  0.00000000000E+00 0. -1.
         -5    1    5    5    0  502  0.12740122198E+02  0.47490555841E+00  0.21580312553E+02  0.25501688940E+02  0.47000000000E+01 0.  1.
         13    1    6    6    0    0 -0.30053360554E+02 -0.47712996416E+01 -0.28684210569E+02  0.41818102741E+02  0.00000000000E+00 0. -1.
        -14    1    6    6    0    0  0.10584129614E+02  0.20541183607E+02 -0.21768345399E+03  0.21890648726E+03  0.00000000000E+00 0.  1.
</event>
<event>
12    1  0.8407180E-002  0.2570784E+03  0.7818608E-02  0.1109114E+00
         21   -1    0    0  501  502  0.00000000000E+00  0.00000000000E+00  0.26407546024E+03  0.26407546024E+03  0.00000000000E+00 0.  1.
         21   -1    0    0  502  503 -0.00000000000E+00 -0.00000000000E+00 -0.84641315457E+03  0.84641315457E+03  0.00000000000E+00 0. -1.
         -6    2    1    2    0  503 -0.85247887289E+01 -0.18956986932E+03 -0.75787416951E+03  0.80028903503E+03  0.17343550789E+03 0.  0.
        -24    2    3    3    0    0  0.36641424295E+02 -0.84900279101E+02 -0.54934123719E+03  0.56258378944E+03  0.78575275385E+02 0.  0.
          6    2    1    2  501    0  0.85247887289E+01  0.18956986932E+03  0.17553647518E+03  0.31019957977E+03  0.17146812472E+03 0.  0.
         24    2    5    5    0    0  0.88413763660E+01  0.15432726135E+03  0.20159181258E+03  0.26611883283E+03  0.79277365949E+02 0.  0.
          5    1    5    5  501    0 -0.31658763707E+00  0.35242607972E+02 -0.26055337402E+02  0.44080746948E+02  0.47000000000E+01 0. -1.
        -11    1    6    6    0    0 -0.29459822683E+02  0.11274691585E+03  0.14634497683E+03  0.18707378338E+03  0.00000000000E+00 0.  1.
         12    1    6    6    0    0  0.38301199049E+02  0.41580345500E+02  0.55246835755E+02  0.79045049442E+02  0.00000000000E+00 0. -1.
         -5    1    3    3    0  503 -0.45166213024E+02 -0.10466959022E+03 -0.20853293232E+03  0.23770524559E+03  0.47000000000E+01 0.  1.
         13    1    4    4    0    0  0.31164230008E+02 -0.87501315926E+02 -0.32116888632E+03  0.33433088858E+03  0.00000000000E+00 0. -1.
        -14    1    4    4    0    0  0.54771942864E+01  0.26010368245E+01 -0.22817235087E+03  0.22825290086E+03  0.00000000000E+00 0.  1.
</event>
<event>
12    1  0.8407180E-002  0.1871184E+03  0.7818608E-02  0.1161658E+00
         21   -1    0    0  501  502  0.00000000000E+00  0.00000000000E+00  0.22811716754E+03  0.22811716754E+03  0.00000000000E+00 0. -1.
         21   -1    0    0  502  503 -0.00000000000E+00 -0.00000000000E+00 -0.18024210082E+03  0.18024210082E+03  0.00000000000E+00 0. -1.
         -6    2    1    2    0  503  0.49920486667E+02 -0.48803075448E+02 -0.57505224327E+02  0.19575534219E+03  0.17360733858E+03 0.  0.
        -24    2    3    3    0    0  0.25520311621E+02 -0.51151598535E+02 -0.10422487998E+03  0.14278648032E+03  0.79103609386E+02 0.  0.
          6    2    1    2  501    0 -0.49920486667E+02  0.48803075448E+02  0.10538029105E+03  0.21260392617E+03  0.17094334886E+03 0.  0.
         24    2    5    5    0    0 -0.33493583473E+02  0.21292686564E+02 -0.85501031962E+01  0.94160313524E+02  0.84957999878E+02 0.  0.
          5    1    5    5  501    0 -0.16426903194E+02  0.27510388884E+02  0.11393039424E+03  0.11844361265E+03  0.47000000000E+01 0. -1.
        -11    1    6    6    0    0 -0.59062844119E+02  0.29903537768E+02 -0.10839717330E+02  0.67083087275E+02  0.00000000000E+00 0.  1.
         12    1    6    6    0    0  0.25569260646E+02 -0.86108512043E+01  0.22896141337E+01  0.27077226249E+02  0.00000000000E+00 0. -1.
         -5    1    3    3    0  503  0.24400175046E+02  0.23485230866E+01  0.46719655654E+02  0.52968861866E+02  0.47000000000E+01 0.  1.
         13    1    4    4    0    0 -0.27818243881E+02 -0.10069272523E+02 -0.39897895713E+02  0.49669779787E+02  0.00000000000E+00 0. -1.
        -14    1    4    4    0    0  0.53338555502E+02 -0.41082326011E+02 -0.64326984268E+02  0.93116700535E+02  0.00000000000E+00 0.  1.
</event>
<event>
12    1  0.8407180E-002  0.1796859E+03  0.7818608E-02  0.1168424E+00
         21   -1    0    0  501  502  0.00000000000E+00  0.00000000000E+00  0.41912341271E+03  0.41912341271E+03  0.00000000000E+00 0.  1.
         21   -1    0    0  502  503 -0.00000000000E+00 -0.00000000000E+00 -0.10176845356E+03  0.10176845356E+03  0.00000000000E+00 0.  1.
         -6    2    1    2    0  503  0.51676518840E+02  0.48081301693E+01  0.29278744276E+02  0.18205563090E+03  0.17202740235E+03 0.  0.
        -24    2    3    3    0    0 -0.11532700427E+02 -0.40650283973E+01  0.67905528998E+02  0.10730098662E+03  0.82175502592E+02 0.  0.
          6    2    1    2  501    0 -0.51676518840E+02 -0.48081301693E+01  0.28807621488E+03  0.33883623536E+03  0.17067075937E+03 0.  0.
         24    2    5    5    0    0 -0.66173216933E+02 -0.56976843514E+02  0.15713994358E+03  0.19706837564E+03  0.80732443759E+02 0.  0.
          5    1    5    5  501    0  0.14496698094E+02  0.52168713345E+02  0.13093627130E+03  0.14176785972E+03  0.47000000000E+01 0. -1.
        -13    1    6    6    0    0 -0.55808350355E+02 -0.59948169096E+02  0.65711837293E+02  0.10500666887E+03  0.00000000000E+00 0.  1.
         14    1    6    6    0    0 -0.10364866579E+02  0.29713255814E+01  0.91428106285E+02  0.92061706772E+02  0.00000000000E+00 0. -1.
         -5    1    3    3    0  503  0.63209219267E+02  0.88731585666E+01 -0.38626784722E+02  0.74754644279E+02  0.47000000000E+01 0.  1.
         11    1    4    4    0    0  0.15651515256E+02  0.31538161939E+02  0.44550018120E+02  0.56783181514E+02  0.00000000000E+00 0. -1.
        -12    1    4    4    0    0 -0.27184215684E+02 -0.35603190337E+02  0.23355510878E+02  0.50517805107E+02  0.00000000000E+00 0.  1.
</event>
<event>
12    1  0.8407180E-002  0.2008398E+03  0.7818608E-02  0.1149059E+00
         21   -1    0    0  501  502  0.00000000000E+00  0.00000000000E+00  0.32887060185E+03  0.32887060185E+03  0.00000000000E+00 0. -1.
         21   -1    0    0  502  503 -0.00000000000E+00 -0.00000000000E+00 -0.35061073862E+03  0.35061073862E+03  0.00000000000E+00 0. -1.
         -6    2    1    2    0  503 -0.56799000788E+02 -0.85608469937E+02 -0.28485973049E+03  0.34846991661E+03  0.17242760832E+03 0.  0.
        -24    2    3    3    0    0  0.18509697685E+02 -0.93089408644E+02 -0.21714700290E+03  0.24681133120E+03  0.68954807165E+02 0.  0.
          6    2    1    2  501    0  0.56799000788E+02  0.85608469937E+02  0.26311959372E+03  0.33101142386E+03  0.17257376831E+03 0.  0.
         24    2    5    5    0    0 -0.34225412353E+02  0.39512383260E+02  0.15663311709E+03  0.18345888169E+03  0.79941357383E+02 0.  0.
          5    1    5    5  501    0  0.91024413141E+02  0.46096086677E+02  0.10648647663E+03  0.14755254216E+03  0.47000000000E+01 0. -1.
        -13    1    6    6    0    0  0.46862509737E+01  0.36833495284E+02  0.21710640039E+02  0.43011849692E+02  0.00000000000E+00 0.  1.
         14    1    6    6    0    0 -0.38911663326E+02  0.26788879766E+01  0.13492247705E+03  0.14044703200E+03  0.00000000000E+00 0. -1.
         -5    1    3    3    0  503 -0.75308698473E+02  0.74809387064E+01 -0.67712727594E+02  0.10165858541E+03  0.47000000000E+01 0.  1.
         13    1    4    4    0    0  0.33779554622E+02 -0.83154785474E+02 -0.13125261034E+03  0.15900636584E+03  0.00000000000E+00 0. -1.
        -14    1    4    4    0    0 -0.15269856937E+02 -0.99346231700E+01 -0.85894392558E+02  0.87804965356E+02  0.00000000000E+00 0.  1.
</event>
<event>
12    1  0.8407180E-002  0.2883944E+03  0.7818608E-02  0.1091403E+00
         21   -1    0    0  501  502  0.00000000000E+00  0.00000000000E+00  0.12760478411E+03  0.12760478411E+03  0.00000000000E+00 0. -1.
         21   -1    0    0  502  503 -0.00000000000E+00 -0.00000000000E+00 -0.72282020487E+03  0.72282020487E+03  0.00000000000E+00 0. -1.
         -6    2    1    2    0  503  0.18008637460E+03  0.14396899241E+03 -0.16168566499E+03  0.33062605180E+03  0.17324306271E+03 0.  0.
        -24    2    3    3    0    0  0.13592342920E+03  0.14851445609E+03 -0.66899052029E+02  0.22585191863E+03  0.77471825291E+02 0.  0.
          6    2    1    2  501    0 -0.18008637460E+03 -0.14396899241E+03 -0.43352975577E+03  0.51979893718E+03  0.17054240781E+03 0.  0.
         24    2    5    5    0    0 -0.11632620143E+03 -0.19495534795E+02 -0.25565658166E+03  0.29348067145E+03  0.82817605337E+02 0.  0.
          5    1    5    5  501    0 -0.63760173169E+02 -0.12447345761E+03 -0.17787317411E+03  0.22631826573E+03  0.47000000000E+01 0. -1.
        -11    1    6    6    0    0 -0.92963626737E+02 -0.46481613292E+02 -0.21848012897E+03  0.24194285074E+03  0.00000000000E+00 0.  1.
         12    1    6    6    0    0 -0.23362574695E+02  0.26986078497E+02 -0.37176452689E+02  0.51537820710E+02  0.00000000000E+00 0. -1.
         -5    1    3    3    0  503  0.44162945403E+02 -0.45454636795E+01 -0.94786612958E+02  0.10477413318E+03  0.47000000000E+01 0.  1.
         11    1    4    4    0    0  0.65386143403E+01  0.22229774584E+02  0.14753847844E+02  0.27469844953E+02  0.00000000000E+00 0. -1.
        -12    1    4    4    0    0  0.12938481486E+03  0.12628468150E+03 -0.81652899873E+02  0.19838207368E+03  0.00000000000E+00 0.  1.
</event>
<event>
12    1  0.8407180E-002  0.1735520E+03  0.7818608E-02  0.1174310E+00
         21   -1    0    0  501  502  0.00000000000E+00  0.00000000000E+00  0.36935278337E+02  0.36935278337E+02  0.00000000000E+00 0.  1.
         21   -1    0    0  502  503 -0.00000000000E+00 -0.00000000000E+00 -0.15115658438E+04  0.15115658438E+04  0.00000000000E+00 0.  1.
         -6    2    1    2    0  503  0.85153404527E+01  0.19581537453E+02 -0.12630095395E+04  0.12748156238E+04  0.17177261142E+03 0.  0.
        -24    2    3    3    0    0 -0.36593182937E+02  0.63471437293E+02 -0.72187161541E+03  0.73000974540E+03  0.80298909395E+02 0.  0.
          6    2    1    2  501    0 -0.85153404527E+01 -0.19581537453E+02 -0.21162102594E+03  0.27368549837E+03  0.17223340491E+03 0.  0.
         24    2    5    5    0    0  0.60416415253E+02 -0.46490534251E+00 -0.11276070540E+03  0.15156881014E+03  0.81288179678E+02 0.  0.
          5    1    5    5  501    0 -0.68931755706E+02 -0.19116632110E+02 -0.98860320532E+02  0.12211668823E+03  0.47000000000E+01 0. -1.
        -11    1    6    6    0    0  0.23106689579E+01  0.33762079872E+02 -0.37024995124E+02  0.50160417584E+02  0.00000000000E+00 0.  1.
         12    1    6    6    0    0  0.58105746295E+02 -0.34226985214E+02 -0.75735710280E+02  0.10140839256E+03  0.00000000000E+00 0. -1.
         -5    1    3    3    0  503  0.45108523389E+02 -0.43889899841E+02 -0.54113792412E+03  0.54480587837E+03  0.47000000000E+01 0.  1.
         13    1    4    4    0    0 -0.36269774575E+02  0.11047609677E+02 -0.11972072819E+03  0.12558104549E+03  0.00000000000E+00 0. -1.
        -14    1    4    4    0    0 -0.32340836196E+00  0.52423827616E+02 -0.60215088722E+03  0.60442869991E+03  0.00000000000E+00 0.  1.
</event>
<event>
12    1  0.8407180E-002  0.1808550E+03  0.7818608E-02  0.1167622E+00
         21   -1    0    0  501  502  0.00000000000E+00  0.00000000000E+00  0.11476459084E+03  0.11476459084E+03  0.00000000000E+00 0.  1.
         21   -1    0    0  502  503 -0.00000000000E+00 -0.00000000000E+00 -0.32804893398E+03  0.32804893398E+03  0.00000000000E+00 0.  1.
         -6    2    1    2    0  503 -0.14198759744E+02  0.47652761512E+02 -0.18995925358E+03  0.26046062622E+03  0.17112226427E+03 0.  0.
        -24    2    3    3    0    0 -0.63465913588E+02  0.51998168421E+02 -0.17509822222E+03  0.20860433188E+03  0.78260131282E+02 0.  0.
          6    2    1    2  501    0  0.14198759744E+02 -0.47652761512E+02 -0.23325089550E+02  0.18235289861E+03  0.17388539148E+03 0.  0.
         24    2    5    5    0    0  0.64271203127E+02 -0.14549087361E+02  0.27765055636E+02  0.10338837642E+03  0.74671243263E+02 0.  0.
          5    1    5    5  501    0 -0.50072443382E+02 -0.33103674151E+02 -0.51090145186E+02  0.78964522184E+02  0.47000000000E+01 0. -1.
        -13    1    6    6    0    0  0.12464797478E+02 -0.30152864202E+02  0.36083281687E+02  0.48647400887E+02  0.00000000000E+00 0.  1.
         14    1    6    6    0    0  0.51806405649E+02  0.15603776841E+02 -0.83182260512E+01  0.54740975536E+02  0.00000000000E+00 0. -1.
         -5    1    3    3    0  503  0.49267153844E+02 -0.43454069085E+01 -0.14861031365E+02  0.51856294336E+02  0.47000000000E+01 0.  1.
         11    1    4    4    0    0 -0.24773548693E+02 -0.72732334947E+01 -0.10810385067E+03  0.11114437084E+03  0.00000000000E+00 0. -1.
        -12    1    4    4    0    0 -0.38692364894E+02  0.59271401916E+02 -0.66994371549E+02  0.97459961037E+02  0.00000000000E+00 0.  1.
</event>
<event>
12    1  0.8407180E-002  0.2310187E+03  0.7818608E-02  0.1125995E+00
         21   -1    0    0  501  502  0.00000000000E+00  0.00000000000E+00  0.10865438845E+04  0.10865438845E+04  0.00000000000E+00 0.  1.
         21   -1    0    0  502  503 -0.00000000000E+00 -0.00000000000E+00 -0.60006757241E+02  0.60006757241E+02  0.00000000000E+00 0. -1.
         -6    2    1    2    0  503 -0.54084675052E+02  0.14415105333E+03  0.26776362108E+03  0.35338807513E+03  0.17170060168E+03 0.  0.
        -24    2    3    3    0    0 -0.19586179113E+02  0.15493275143E+03  0.26336173474E+03  0.31667489167E+03  0.80844343131E+02 0.  0.
          6    2    1    2  501    0  0.54084675052E+02 -0.14415105333E+03  0.75877350618E+03  0.79316256661E+03  0.17223514492E+03 0.  0.
         24    2    5    5    0    0 -0.15040481892E+02 -0.13925719540E+03  0.53456802358E+03  0.55844480931E+03  0.80491307848E+02 0.  0.
          5    1    5    5  501    0  0.69125156944E+02 -0.48938579297E+01  0.22420548260E+03  0.23471775730E+03  0.47000000000E+01 0. -1.
        -13    1    6    6    0    0  0.24720108438E+02 -0.43130873091E+02  0.26254362367E+03  0.26720873920E+03  0.00000000000E+00 0.  1.
         14    1    6    6    0    0 -0.39760590330E+02 -0.96126322312E+02  0.27202439992E+03  0.29123607011E+03  0.00000000000E+00 0. -1.
         -5    1    3    3    0  503 -0.34498495939E+02 -0.10781698095E+02  0.44018863429E+01  0.36713183453E+02  0.47000000000E+01 0.  1.
         11    1    4    4    0    0 -0.20731281991E+02  0.43782140484E+02  0.26948373884E+02  0.55433534375E+02  0.00000000000E+00 0. -1.
        -12    1    4    4    0    0  0.11451028785E+01  0.11115061094E+03  0.23641336085E+03  0.26124135730E+03  0.00000000000E+00 0.  1.
</event>
<event>
12    1  0.8407180E-002  0.1809536E+03  0.7818608E-02  0.1167117E+00
         21   -1    0    0  503  502  0.00000000000E+00  0.00000000000E+00  0.46296822904E+02  0.46296822904E+02  0.00000000000E+00 0. -1.
         21   -1    0    0  501  503 -0.00000000000E+00 -0.00000000000E+00 -0.15036492109E+04  0.15036492109E+04  0.00000000000E+00 0. -1.
          6    2    1    2  501    0  0.51954668173E+02 -0.19748216391E+02 -0.12949232804E+04  0.13075054555E+04  0.17220608162E+03 0.  0.
         24    2    3    3    0    0  0.60080950684E+01 -0.49782390507E+01 -0.11790135337E+04  0.11818615174E+04  0.81626304571E+02 0.  0.
         -6    2    1    2    0  502 -0.51954668173E+02  0.19748216391E+02 -0.16242910758E+03  0.24244057825E+03  0.17118685521E+03 0.  0.
        -24    2    5    5    0    0 -0.43091360261E+02  0.49074363842E+02 -0.33436154022E+02  0.10977613984E+03  0.81655777299E+02 0.  0.
          5    1    3    3  501    0  0.45946573104E+02 -0.14769977341E+02 -0.11590974670E+03  0.12564393814E+03  0.47000000000E+01 0. -1.
        -13    1    4    4    0    0  0.23390025687E+02  0.13574725988E+02 -0.14292220695E+03  0.14545832299E+03  0.00000000000E+00 0.  1.
         14    1    4    4    0    0 -0.17381930618E+02 -0.18552965038E+02 -0.10360913267E+04  0.10364031944E+04  0.00000000000E+00 0. -1.
         -5    1    5    5    0  502 -0.88633079120E+01 -0.29326147450E+02 -0.12899295356E+03  0.13266443841E+03  0.47000000000E+01 0.  1.
         11    1    6    6    0    0 -0.29910262928E+02 -0.13226126388E+02  0.81702557208E+01  0.33709157898E+02  0.00000000000E+00 0. -1.
        -12    1    6    6    0    0 -0.13181097333E+02  0.62300490230E+02 -0.41606409742E+02  0.76066981940E+02  0.00000000000E+00 0.  1.
</event>
<event>
12    1  0.8407180E-002  0.2306161E+03  0.7818608E-02  0.1126216E+00
         21   -1    0    0  503  502  0.00000000000E+00  0.00000000000E+00  0.19983146225E+03  0.19983146225E+03  0.00000000000E+00 0.  1.
         21   -1    0    0  501  503 -0.00000000000E+00 -0.00000000000E+00 -0.26777465629E+03  0.26777465629E+03  0.00000000000E+00 0. -1.
          6    2    1    2  501    0 -0.11053496609E+03  0.10567290849E+03 -0.15406450680E+02  0.23113010356E+03  0.17262393730E+03 0.  0.
         24    2    3    3    0    0 -0.34580562449E+02  0.13543104401E+02  0.52457923623E+02  0.93708724090E+02  0.68192816658E+02 0.  0.
         -6    2    1    2    0  502  0.11053496609E+03 -0.10567290849E+03 -0.52536743365E+02  0.23647601498E+03  0.17255739317E+03 0.  0.
        -24    2    5    5    0    0  0.12446336179E+03 -0.13278657979E+03 -0.45937373599E+02  0.20493567479E+03  0.82249524643E+02 0.  0.
          5    1    3    3  501    0 -0.75954403641E+02  0.92129804094E+02 -0.67864374303E+02  0.13742137947E+03  0.47000000000E+01 0. -1.
        -11    1    4    4    0    0 -0.42862485915E+00 -0.16102679358E+02 -0.81778191731E+01  0.18065346058E+02  0.00000000000E+00 0.  1.
         12    1    4    4    0    0 -0.34151937589E+02  0.29645783758E+02  0.60635742796E+02  0.75643378033E+02  0.00000000000E+00 0. -1.
         -5    1    5    5    0  502 -0.13928395704E+02  0.27113671300E+02 -0.65993697654E+01  0.31540340194E+02  0.47000000000E+01 0.  1.
         11    1    6    6    0    0  0.80073059950E+01  0.10896196600E+02  0.24915273039E+01  0.13749609374E+02  0.00000000000E+00 0. -1.
        -12    1    6    6    0    0  0.11645605580E+03 -0.14368277639E+03 -0.48428900903E+02  0.19118606541E+03  0.00000000000E+00 0.  1.
</event>
<event>
12    1  0.8407180E-002  0.1814138E+03  0.7818608E-02  0.1166538E+00
         21   -1    0    0  501  502  0.00000000000E+00  0.00000000000E+00  0.20738485546E+04  0.20738485546E+04  0.00000000000E+00 0.  1.
         21   -1    0    0  502  503 -0.00000000000E+00 -0.00000000000E+00 -0.31830851060E+02  0.31830851060E+02  0.00000000000E+00 0.  1.
         -6    2    1    2    0  503  0.58277435286E+02 -0.22864614274E+01  0.27407688198E+03  0.32845524138E+03  0.17135699865E+03 0.  0.
        -24    2    3    3    0    0  0.41304550848E+02 -0.39365143084E+02  0.71503213989E+02  0.12176443752E+03  0.80362853496E+02 0.  0.
          6    2    1    2  501    0 -0.58277435286E+02  0.22864614274E+01  0.17679408216E+04  0.17772241643E+04  0.17178327679E+03 0.  0.
         24    2    5    5    0    0 -0.32725365524E+02 -0.29647465112E+02  0.16456417648E+04  0.16481821819E+04  0.80110953814E+02 0.  0.
          5    1    5    5  501    0 -0.25552069763E+02  0.31933926539E+02  0.12229905677E+03  0.12904198239E+03  0.47000000000E+01 0. -1.
        -11    1    6    6    0    0 -0.32288509458E+01 -0.51448839291E+02  0.11665313332E+04  0.11676697991E+04  0.00000000000E+00 0.  1.
         12    1    6    6    0    0 -0.29496514578E+02  0.21801374179E+02  0.47911043167E+03  0.48051238280E+03  0.00000000000E+00 0. -1.
         -5    1    3    3    0  503  0.16972884438E+02  0.37078681657E+02  0.20257366799E+03  0.20669080387E+03  0.47000000000E+01 0.  1.
         11    1    4    4    0    0  0.29535647821E+02 -0.38330218704E+00  0.75282277328E+02  0.80869788502E+02  0.00000000000E+00 0. -1.
        -12    1    4    4    0    0  0.11768903027E+02 -0.38981840897E+02 -0.37790633387E+01  0.40894649013E+02  0.00000000000E+00 0.  1.
</event>
<event>
12    1  0.8407180E-002  0.2358892E+03  0.7818608E-02  0.1122604E+00
         21   -1    0    0  501  502  0.00000000000E+00  0.00000000000E+00  0.74051477931E+03  0.74051477931E+03  0.00000000000E+00 0. -1.
         21   -1    0    0  502  503 -0.00000000000E+00 -0.00000000000E+00 -0.75095362321E+02  0.75095362321E+02  0.00000000000E+00 0. -1.
         -6    2    1    2    0  503  0.12546051391E+03  0.10135809133E+03  0.34085437008E+03  0.41437929638E+03  0.17179841804E+03 0.  0.
        -24    2    3    3    0    0  0.14533320042E+03  0.11890380017E+03  0.32247969215E+03  0.38178337092E+03  0.80656913056E+02 0.  0.
          6    2    1    2  501    0 -0.12546051391E+03 -0.10135809133E+03  0.32456504691E+03  0.40123084525E+03  0.17213343160E+03 0.  0.
         24    2    5    5    0    0 -0.44965900759E+02 -0.72459161744E+02  0.79531938268E+02  0.14165841758E+03  0.80433299782E+02 0.  0.
          5    1    5    5  501    0 -0.80494613149E+02 -0.28898929583E+02  0.24503310864E+03  0.25957242767E+03  0.47000000000E+01 0. -1.
        -11    1    6    6    0    0 -0.31745217518E+02 -0.87323247783E+00  0.57352932598E+02  0.65558220292E+02  0.00000000000E+00 0.  1.
         12    1    6    6    0    0 -0.13220683241E+02 -0.71585929266E+02  0.22179005670E+02  0.76100197285E+02  0.00000000000E+00 0. -1.
         -5    1    3    3    0  503 -0.19872686509E+02 -0.17545708841E+02  0.18374677932E+02  0.32595925465E+02  0.47000000000E+01 0.  1.
         13    1    4    4    0    0  0.41573808112E+02  0.84464412150E+02  0.13147898553E+03  0.16170758200E+03  0.00000000000E+00 0. -1.
        -14    1    4    4    0    0  0.10375939231E+03  0.34439388018E+02  0.19100070662E+03  0.22007578892E+03  0.00000000000E+00 0.  1.
</event>
<event>
12    1  0.8407180E-002  0.3078223E+03  0.7818608E-02  0.1081556E+00
         21   -1    0    0  501  502  0.00000000000E+00  0.00000000000E+00  0.52407504571E+03  0.52407504571E+03  0.00000000000E+00 0. -1.
         21   -1    0    0  502  503 -0.00000000000E+00 -0.00000000000E+00 -0.38485052008E+03  0.38485052008E+03  0.00000000000E+00 0.  1.
         -6    2    1    2    0  503 -0.96368626006E+02  0.23542303995E+03 -0.26186764677E+03  0.40414009157E+03  0.17333098215E+03 0.  0.
        -24    2    3    3    0    0  0.13400956138E+02  0.13752053404E+03 -0.11373778628E+03  0.19533681718E+03  0.78286047354E+02 0.  0.
          6    2    1    2  501    0  0.96368626006E+02 -0.23542303995E+03  0.40109217239E+03  0.50478547422E+03  0.17094596927E+03 0.  0.
         24    2    5    5    0    0  0.34756166970E+01 -0.18298589681E+03  0.26817575053E+03  0.33429315662E+03  0.79610068757E+02 0.  0.
          5    1    5    5  501    0  0.92893009309E+02 -0.52437143143E+02  0.13291642186E+03  0.17049231760E+03  0.47000000000E+01 0. -1.
        -13    1    6    6    0    0 -0.20307426125E+02 -0.26364739609E+02  0.17092904087E+02  0.37412009043E+02  0.00000000000E+00 0.  1.
         14    1    6    6    0    0  0.23783042822E+02 -0.15662115720E+03  0.25108284644E+03  0.29688114757E+03  0.00000000000E+00 0. -1.
         -5    1    3    3    0  503 -0.10976958214E+03  0.97902505910E+02 -0.14812986049E+03  0.20880327439E+03  0.47000000000E+01 0.  1.
         11    1    4    4    0    0  0.13382143210E+02  0.10242801215E+02 -0.50454824743E+02  0.53194793669E+02  0.00000000000E+00 0. -1.
        -12    1    4    4    0    0  0.18812927847E-01  0.12727773283E+03 -0.63282961538E+02  0.14214202352E+03  0.00000000000E+00 0.  1.
</event>
<event>
12    1  0.8407180E-002  0.1856576E+03  0.7818608E-02  0.1162610E+00
         21   -1    0    0  503  502  0.00000000000E+00  0.00000000000E+00  0.33863575424E+02  0.33863575424E+02  0.00000000000E+00 0.  1.
         21   -1    0    0  501  503 -0.00000000000E+00 -0.00000000000E+00 -0.11135387705E+04  0.11135387705E+04  0.00000000000E+00 0.  1.
          6    2    1    2  501    0 -0.23782910421E+02 -0.64507994089E+02 -0.71055026364E+03  0.73421720567E+03  0.17165756556E+03 0.  0.
         24    2    3    3    0    0  0.36508023732E+01 -0.46186038835E+02 -0.68745635333E+03  0.69367437233E+03  0.80258448443E+02 0.  0.
         -6    2    1    2    0  502  0.23782910421E+02  0.64507994089E+02 -0.36912493141E+03  0.41318514023E+03  0.17245821809E+03 0.  0.
        -24    2    5    5    0    0  0.69021926696E+00  0.21187036915E+02 -0.35076507594E+03  0.36056240742E+03  0.80744933036E+02 0.  0.
          5    1    3    3  501    0 -0.27433712795E+02 -0.18321955254E+02 -0.23093910306E+02  0.40542833340E+02  0.47000000000E+01 0. -1.
        -11    1    4    4    0    0 -0.37525538205E+02 -0.14877371808E+02 -0.26352045088E+03  0.26659431772E+03  0.00000000000E+00 0.  1.
         12    1    4    4    0    0  0.41176340579E+02 -0.31308667028E+02 -0.42393590245E+03  0.42708005461E+03  0.00000000000E+00 0. -1.
         -5    1    5    5    0  502  0.23092691154E+02  0.43320957174E+02 -0.18359855473E+02  0.52622732808E+02  0.47000000000E+01 0.  1.
         11    1    6    6    0    0 -0.13911722948E+02  0.43417910582E+02 -0.12172514900E+03  0.12998331775E+03  0.00000000000E+00 0. -1.
        -12    1    6    6    0    0  0.14601942215E+02 -0.22230873667E+02 -0.22903992694E+03  0.23057908967E+03  0.00000000000E+00 0.  1.
</event>
<event>
12    1  0.8407180E-002  0.2326400E+03  0.7818608E-02  0.1125374E+00
         21   -1    0    0  503  502  0.00000000000E+00  0.00000000000E+00  0.23511793270E+03  0.23511793270E+03  0.00000000000E+00 0. -1.
         21   -1    0    0  501  503 -0.00000000000E+00 -0.00000000000E+00 -0.31439508145E+03  0.31439508145E+03  0.00000000000E+00 0. -1.
          6    2    1    2  501    0 -0.11160882746E+03  0.10034724599E+03 -0.18476798612E+03  0.29708683706E+03  0.17775061157E+03 0.  0.
         24    2    3    3    0    0 -0.65363634339E+02  0.49667732825E+02 -0.21882641471E+02  0.12027972057E+03  0.85141486972E+02 0.  0.
         -6    2    1    2    0  502  0.11160882746E+03 -0.10034724599E+03  0.10549083737E+03  0.25242617708E+03  0.17339134339E+03 0.  0.
        -24    2    5    5    0    0  0.11014923070E+03 -0.13186791573E+03  0.65613393765E+02  0.20135775678E+03  0.81962360564E+02 0.  0.
          5    1    3    3  501    0 -0.46245193124E+02  0.50679513165E+02 -0.16288534465E+03  0.17680711650E+03  0.47000000000E+01 0. -1.
        -13    1    4    4    0    0 -0.17253409074E+02 -0.15976900941E+01 -0.43420429167E+02  0.46750041790E+02  0.00000000000E+00 0.  1.
         14    1    4    4    0    0 -0.48110225266E+02  0.51265422919E+02  0.21537787696E+02  0.73529678776E+02  0.00000000000E+00 0. -1.
         -5    1    5    5    0  502  0.14595967601E+01  0.31520669744E+02  0.39877443609E+02  0.51068420307E+02  0.47000000000E+01 0.  1.
         13    1    6    6    0    0  0.10822099457E+03 -0.71652212335E+02  0.39258364098E+02  0.13559882872E+03  0.00000000000E+00 0. -1.
        -14    1    6    6    0    0  0.19282361283E+01 -0.60215703399E+02  0.26355029667E+02  0.65758928056E+02  0.00000000000E+00 0.  1.
</event>
<event>
12    1  0.8407180E-002  0.1878740E+03  0.7818608E-02  0.1160405E+00
         21   -1    0    0  501  502  0.00000000000E+00  0.00000000000E+00  0.44033864011E+02  0.44033864011E+02  0.00000000000E+00 0.  1.
         21   -1    0    0  502  503 -0.00000000000E+00 -0.00000000000E+00 -0.80425281006E+03  0.80425281006E+03  0.00000000000E+00 0.  1.
         -6    2    1    2    0  503  0.35480352646E+02  0.67627164533E+02 -0.40560778895E+03  0.44700595759E+03  0.17165185365E+03 0.  0.
        -24    2    3    3    0    0  0.50407449831E+02  0.27628498463E+02 -0.38522864238E+03  0.39946533147E+03  0.88697233361E+02 0.  0.
          6    2    1    2  501    0 -0.35480352646E+02 -0.67627164533E+02 -0.35461115711E+03  0.40128071648E+03  0.17159502285E+03 0.  0.
         24    2    5    5    0    0 -0.87444132705E+02 -0.67706683288E+02 -0.25301023068E+03  0.28706566051E+03  0.78497422285E+02 0.  0.
          5    1    5    5  501    0  0.51963780058E+02  0.79518754750E-01 -0.10160092642E+03  0.11421505597E+03  0.47000000000E+01 0. -1.
        -13    1    6    6    0    0 -0.16264731262E+02 -0.43196501493E+02 -0.16458718302E+03  0.17093688905E+03  0.00000000000E+00 0.  1.
         14    1    6    6    0    0 -0.71179401443E+02 -0.24510181795E+02 -0.88423047659E+02  0.11612877145E+03  0.00000000000E+00 0. -1.
         -5    1    3    3    0  503 -0.14927097184E+02  0.39998666070E+02 -0.20379146562E+02  0.47540626125E+02  0.47000000000E+01 0.  1.
         13    1    4    4    0    0 -0.15692710399E+02  0.35632653403E+02 -0.13116638696E+03  0.13682312749E+03  0.00000000000E+00 0. -1.
        -14    1    4    4    0    0  0.66100160230E+02 -0.80041549407E+01 -0.25406225543E+03  0.26264220398E+03  0.00000000000E+00 0.  1.
</event>
<event>
12    1  0.8407180E-002  0.2217493E+03  0.7818608E-02  0.1132849E+00
         21   -1    0    0  503  502  0.00000000000E+00  0.00000000000E+00  0.34288315682E+03  0.34288315682E+03  0.00000000000E+00 0. -1.
         21   -1    0    0  501  503 -0.00000000000E+00 -0.00000000000E+00 -0.14961773607E+03  0.14961773607E+03  0.00000000000E+00 0. -1.
          6    2    1    2  501    0 -0.12769856453E+03  0.52546397818E+02  0.43181095261E+02  0.22591445599E+03  0.17350702328E+03 0.  0.
         24    2    3    3    0    0 -0.67726724890E+02  0.56533764904E+02  0.90426542391E+02  0.14931978959E+03  0.79601910497E+02 0.  0.
         -6    2    1    2    0  502  0.12769856453E+03 -0.52546397818E+02  0.15008432549E+03  0.26658643691E+03  0.17168277805E+03 0.  0.
        -24    2    5    5    0    0  0.14191664248E+03 -0.17882104602E+02  0.15859029312E+03  0.22787973917E+03  0.79487051600E+02 0.  0.
          5    1    3    3  501    0 -0.59971839644E+02 -0.39873670863E+01 -0.47245447131E+02  0.76594666401E+02  0.47000000000E+01 0. -1.
        -13    1    4    4    0    0  0.16001925052E+02 -0.11920238026E+01  0.59582931361E+01  0.17116769065E+02  0.00000000000E+00 0.  1.
         14    1    4    4    0    0 -0.83728649942E+02  0.57725788707E+02  0.84468249255E+02  0.13220302052E+03  0.00000000000E+00 0. -1.
         -5    1    5    5    0  502 -0.14218077950E+02 -0.34664293216E+02 -0.85059676309E+01  0.38706697742E+02  0.47000000000E+01 0.  1.
         13    1    6    6    0    0  0.42318762289E+02  0.23512380797E+02  0.20285028202E+02  0.52489923429E+02  0.00000000000E+00 0. -1.
        -14    1    6    6    0    0  0.99597880195E+02 -0.41394485399E+02  0.13830526492E+03  0.17538981574E+03  0.00000000000E+00 0.  1.
</event>
<event>
12    1  0.8407180E-002  0.1775369E+03  0.7818608E-02  0.1170367E+00
         21   -1    0    0  503  502  0.00000000000E+00  0.00000000000E+00  0.58670666513E+02  0.58670666513E+02  0.00000000000E+00 0.  1.
         21   -1    0    0  501  503 -0.00000000000E+00 -0.00000000000E+00 -0.14859315426E+04  0.14859315426E+04  0.00000000000E+00 0.  1.
          6    2    1    2  501    0 -0.10146224007E+02 -0.34122117807E+02 -0.13308920339E+04  0.13425965075E+04  0.17327582414E+03 0.  0.
         24    2    3    3    0    0  0.12761691494E+02 -0.52277235592E+02 -0.41189561874E+03  0.42312335292E+03  0.80495968326E+02 0.  0.
         -6    2    1    2    0  502  0.10146224007E+02  0.34122117807E+02 -0.96368842133E+02  0.20200570157E+03  0.17393126501E+03 0.  0.
        -24    2    5    5    0    0 -0.30320196353E+02  0.57977815901E+02 -0.11251268896E+03  0.15211242248E+03  0.78729552604E+02 0.  0.
          5    1    3    3  501    0 -0.22907915502E+02  0.18155117785E+02 -0.91899641519E+03  0.91947315459E+03  0.47000000000E+01 0. -1.
        -13    1    4    4    0    0 -0.19842080288E+02 -0.60102863674E+02 -0.27090277619E+03  0.27819844809E+03  0.00000000000E+00 0.  1.
         14    1    4    4    0    0  0.32603771782E+02  0.78256280827E+01 -0.14099284255E+03  0.14492490483E+03  0.00000000000E+00 0. -1.
         -5    1    5    5    0  502  0.40466420360E+02 -0.23855698095E+02  0.16143846822E+02  0.49893279092E+02  0.47000000000E+01 0.  1.
         13    1    6    6    0    0 -0.95443146789E+01  0.27628383107E+01 -0.87454001631E+02  0.88016643992E+02  0.00000000000E+00 0. -1.
        -14    1    6    6    0    0 -0.20775881674E+02  0.55214977591E+02 -0.25058687324E+02  0.64095778488E+02  0.00000000000E+00 0.  1.
</event>
<event>
12    1  0.8407180E-002  0.2142104E+03  0.7818608E-02  0.1138496E+00
         21   -1    0    0  503  502  0.00000000000E+00  0.00000000000E+00  0.34218078327E+03  0.34218078327E+03  0.00000000000E+00 0.  1.
         21   -1    0    0  501  503 -0.00000000000E+00 -0.00000000000E+00 -0.14133821442E+03  0.14133821442E+03  0.00000000000E+00 0.  1.
          6    2    1    2  501    0  0.10398291711E+03  0.72098587279E+02  0.42814758877E+02  0.21732564939E+03  0.17142543851E+03 0.  0.
         24    2    3    3    0    0  0.28851748472E+01  0.73114920354E+02  0.38370406179E+02  0.11601608077E+03  0.81445239975E+02 0.  0.
         -6    2    1    2    0  502 -0.10398291711E+03 -0.72098587279E+02  0.15802780997E+03  0.26619334830E+03  0.17284518106E+03 0.  0.
        -24    2    5    5    0    0 -0.57099897281E+02 -0.79193055636E+02  0.34132716622E+02  0.13345136856E+03  0.84334376713E+02 0.  0.
          5    1    3    3  501    0  0.10109774226E+03 -0.10163330748E+01  0.44443526983E+01  0.10130956862E+03  0.47000000000E+01 0. -1.
        -11    1    4    4    0    0  0.43973934307E+01  0.30309336368E+02 -0.24995469234E+02  0.39531840614E+02  0.00000000000E+00 0.  1.
         12    1    4    4    0    0 -0.15122185835E+01  0.42805583985E+02  0.63365875413E+02  0.76484240156E+02  0.00000000000E+00 0. -1.
         -5    1    5    5    0  502 -0.46883019830E+02  0.70944683565E+01  0.12389509335E+03  0.13274197974E+03  0.47000000000E+01 0.  1.
         11    1    6    6    0    0 -0.46785819482E+02 -0.19979763422E+02 -0.17922616703E+02  0.53938150140E+02  0.00000000000E+00 0. -1.
        -12    1    6    6    0    0 -0.10314077799E+02 -0.59213292213E+02  0.52055333325E+02  0.79513218418E+02  0.00000000000E+00 0.  1.
</event>
<event>
12    1  0.8407180E-002  0.1734280E+03  0.7818608E-02  0.1174365E+00
         21   -1    0    0  503  502  0.00000000000E+00  0.00000000000E+00  0.39941213838E+02  0.39941213838E+02  0.00000000000E+00 0.  1.
         21   -1    0    0  501  503 -0.00000000000E+00 -0.00000000000E+00 -0.83023444750E+03  0.83023444750E+03  0.00000000000E+00 0.  1.
          6    2    1    2  501    0  0.17621333307E+02 -0.14282362468E+01 -0.52830051813E+03  0.55598233479E+03  0.17234374923E+03 0.  0.
         24    2    3    3    0    0  0.71975573660E+01  0.71769362536E+02 -0.31523952112E+03  0.33040835132E+03  0.67757484571E+02 0.  0.
         -6    2    1    2    0  502 -0.17621333307E+02  0.14282362468E+01 -0.26199271554E+03  0.31419332655E+03  0.17252452640E+03 0.  0.
        -24    2    5    5    0    0 -0.37690118699E+02  0.47550652719E+02 -0.88566253936E+02  0.13355872014E+03  0.79450240836E+02 0.  0.
          5    1    3    3  501    0  0.10423775941E+02 -0.73197598782E+02 -0.21306099701E+03  0.22557398347E+03  0.47000000000E+01 0. -1.
        -11    1    4    4    0    0 -0.12514404573E+02  0.50460791597E+02 -0.95275048541E+02  0.10853679876E+03  0.00000000000E+00 0.  1.
         12    1    4    4    0    0  0.19711961939E+02  0.21308570938E+02 -0.21996447258E+03  0.22187155256E+03  0.00000000000E+00 0. -1.
         -5    1    5    5    0  502  0.20068785392E+02 -0.46122416472E+02 -0.17342646160E+03  0.18063460641E+03  0.47000000000E+01 0.  1.
         11    1    6    6    0    0 -0.54884262953E+02  0.39828877007E+02 -0.34061204833E+02  0.75886674972E+02  0.00000000000E+00 0. -1.
        -12    1    6    6    0    0  0.17194144255E+02  0.77217757122E+01 -0.54505049103E+02  0.57672045173E+02  0.00000000000E+00 0.  1.
</event>
<event>
12    1  0.8407180E-002  0.2162959E+03  0.7818608E-02  0.1136813E+00
         21   -1    0    0  501  502  0.00000000000E+00  0.00000000000E+00  0.72700585397E+03  0.72700585397E+03  0.00000000000E+00 0. -1.
         21   -1    0    0  502  503 -0.00000000000E+00 -0.00000000000E+00 -0.98888798270E+03  0.98888798270E+03  0.00000000000E+00 0. -1.
         -6    2    1    2    0  503 -0.12052497747E+03  0.41566101238E+02 -0.96058523247E+03  0.98447744661E+03  0.17383280205E+03 0.  0.
        -24    2    3    3    0    0 -0.86935298098E+02  0.84357109723E+02 -0.51051722609E+03  0.53110934304E+03  0.82312988705E+02 0.  0.
          6    2    1    2  501    0  0.12052497747E+03 -0.41566101238E+02  0.69870310375E+03  0.73141639006E+03  0.17472806728E+03 0.  0.
         24    2    5    5    0    0  0.20436631965E+02  0.63057915137E+01  0.14752239840E+03  0.16916052751E+03  0.79968788325E+02 0.  0.
          5    1    5    5  501    0  0.10008834551E+03 -0.47871892751E+02  0.55118070535E+03  0.56225586255E+03  0.47000000000E+01 0. -1.
        -11    1    6    6    0    0  0.42315655992E+02  0.11279142412E+02  0.39964826823E+02  0.59287614040E+02  0.00000000000E+00 0.  1.
         12    1    6    6    0    0 -0.21879024027E+02 -0.49733508982E+01  0.10755757158E+03  0.10987291347E+03  0.00000000000E+00 0. -1.
         -5    1    3    3    0  503 -0.33589679374E+02 -0.42791008486E+02 -0.45006800638E+03  0.45336810357E+03  0.47000000000E+01 0.  1.
         11    1    4    4    0    0 -0.46784415546E+02  0.36801778399E+02 -0.39886449973E+03  0.40328159092E+03  0.00000000000E+00 0. -1.
        -12    1    4    4    0    0 -0.40150882552E+02  0.47555331324E+02 -0.11165272636E+03  0.12782775211E+03  0.00000000000E+00 0.  1.
</event>
<event>
12    1  0.8407180E-002  0.1868553E+03  0.7818608E-02  0.1161550E+00
         21   -1    0    0  503  502  0.00000000000E+00  0.00000000000E+00  0.22156607143E+03  0.22156607143E+03  0.00000000000E+00 0. -1.
         21   -1    0    0  501  503 -0.00000000000E+00 -0.00000000000E+00 -0.19283796028E+03  0.19283796028E+03  0.00000000000E+00 0. -1.
          6    2    1    2  501    0 -0.41232833357E+02 -0.56168976529E+02 -0.75268759067E+02  0.20055770581E+03  0.17234531266E+03 0.  0.
         24    2    3    3    0    0 -0.29289834823E+02 -0.81070420164E+02 -0.10986965350E+03  0.15603772148E+03  0.69614095654E+02 0.  0.
         -6    2    1    2    0  502  0.41232833357E+02  0.56168976529E+02  0.10399687022E+03  0.21384632590E+03  0.17337762720E+03 0.  0.
        -24    2    5    5    0    0 -0.37993995934E+02  0.44314704730E+02  0.89853677225E+02  0.13236298927E+03  0.77710622413E+02 0.  0.
          5    1    3    3  501    0 -0.11942998534E+02  0.24901443635E+02  0.34600894436E+02  0.44519984331E+02  0.47000000000E+01 0. -1.
        -11    1    4    4    0    0  0.13392541821E+02 -0.41547347125E+02 -0.78815350279E+02  0.90096624072E+02  0.00000000000E+00 0.  1.
         12    1    4    4    0    0 -0.42682376644E+02 -0.39523073039E+02 -0.31054303225E+02  0.65941097407E+02  0.00000000000E+00 0. -1.
         -5    1    5    5    0  502  0.79226829290E+02  0.11854271800E+02  0.14143192993E+02  0.81483336624E+02  0.47000000000E+01 0.  1.
         11    1    6    6    0    0  0.23997759615E+02  0.17175798524E+02  0.26462574987E+02  0.39637966603E+02  0.00000000000E+00 0. -1.
        -12    1    6    6    0    0 -0.61991755548E+02  0.27138906205E+02  0.63391102238E+02  0.92725022669E+02  0.00000000000E+00 0.  1.
</event>
<event>
12    1  0.8407180E-002  0.2113636E+03  0.7818608E-02  0.1140743E+00
         21   -1    0    0  501  502  0.00000000000E+00  0.00000000000E+00  0.52330970079E+03  0.52330970079E+03  0.00000000000E+00 0. -1.
         21   -1    0    0  502  503 -0.00000000000E+00 -0.00000000000E+00 -0.89292783070E+02  0.89292783070E+02  0.00000000000E+00 0.  1.
         -6    2    1    2    0  503  0.26921734988E+02 -0.11722902661E+03  0.14807356426E+03  0.25702100696E+03  0.17223992886E+03 0.  0.
        -24    2    3    3    0    0  0.42284877477E+02 -0.14013646250E+03  0.15514944287E+03  0.22816039670E+03  0.80991221843E+02 0.  0.
          6    2    1    2  501    0 -0.26921734988E+02  0.11722902661E+03  0.28594335346E+03  0.35558147689E+03  0.17380207371E+03 0.  0.
         24    2    5    5    0    0 -0.28530056034E+02  0.98197801542E+02  0.82992922215E+02  0.15168017291E+03  0.75248105565E+02 0.  0.
          5    1    5    5  501    0  0.16083210461E+01  0.19031225067E+02  0.20295043124E+03  0.20390130398E+03  0.47000000000E+01 0. -1.
        -13    1    6    6    0    0  0.18758182940E+02  0.51067215306E+02  0.15100604239E+02  0.56460235163E+02  0.00000000000E+00 0.  1.
         14    1    6    6    0    0 -0.47288238974E+02  0.47130586235E+02  0.67892317977E+02  0.95219937746E+02  0.00000000000E+00 0. -1.
         -5    1    3    3    0  503 -0.15363142489E+02  0.22907435894E+02 -0.70758786109E+01  0.28860610259E+02  0.47000000000E+01 0.  1.
         13    1    4    4    0    0 -0.17208245717E+02 -0.37837788733E+01  0.97365464402E+01  0.20130599588E+02  0.00000000000E+00 0. -1.
        -14    1    4    4    0    0  0.59493123194E+02 -0.13635268363E+03  0.14541289643E+03  0.20802979712E+03  0.00000000000E+00 0.  1.
</event>
<event>
12    1  0.8407180E-002  0.2117846E+03  0.7818608E-02  0.1140303E+00
         21   -1    0    0  503  502  0.00000000000E+00  0.00000000000E+00  0.75664826126E+02  0.75664826126E+02  0.00000000000E+00 0. -1.
         21   -1    0    0  501  503 -0.00000000000E+00 -0.00000000000E+00 -0.61825669451E+03  0.61825669451E+03  0.00000000000E+00 0. -1.
          6    2    1    2  501    0  0.28132807238E+02 -0.12214104305E+03 -0.34491959809E+03  0.40474960494E+03  0.17071269525E+03 0.  0.
         24    2    3    3    0    0  0.78234243391E+02 -0.10555620512E+03 -0.29191317903E+03  0.32980308258E+03  0.79335111441E+02 0.  0.
         -6    2    1    2    0  502 -0.28132807238E+02  0.12214104305E+03 -0.19767227030E+03  0.28917191569E+03  0.16981219374E+03 0.  0.
        -24    2    5    5    0    0  0.43163609633E+02  0.99818121113E+02 -0.12234144426E+03  0.18297250301E+03  0.81760341093E+02 0.  0.
          5    1    3    3  501    0 -0.50101436153E+02 -0.16584837921E+02 -0.53006419059E+02  0.74946522367E+02  0.47000000000E+01 0. -1.
        -11    1    4    4    0    0  0.75423722760E+02 -0.63375345101E+02 -0.25611242089E+03  0.27440616694E+03  0.00000000000E+00 0.  1.
         12    1    4    4    0    0  0.28105206314E+01 -0.42180860024E+02 -0.35800758138E+02  0.55396915635E+02  0.00000000000E+00 0. -1.
         -5    1    5    5    0  502 -0.71296416871E+02  0.22322921933E+02 -0.75330826039E+02  0.10619941268E+03  0.47000000000E+01 0.  1.
         13    1    6    6    0    0  0.25110293583E+02  0.11144156921E+03 -0.10756688788E+03  0.15690884474E+03  0.00000000000E+00 0. -1.
        -14    1    6    6    0    0  0.18053316051E+02 -0.11623448094E+02 -0.14774556380E+02  0.26063658267E+02  0.00000000000E+00 0.  1.
</event>
<event>
12    1  0.8407180E-002  0.2055232E+03  0.7818608E-02  0.1145259E+00
         21   -1    0    0  503  502  0.00000000000E+00  0.00000000000E+00  0.31511539422E+03  0.31511539422E+03  0.00000000000E+00 0.  1.
         21   -1    0    0  501  503 -0.00000000000E+00 -0.00000000000E+00 -0.18786941389E+03  0.18786941389E+03  0.00000000000E+00 0. -1.
          6    2    1    2  501    0  0.70046285799E+01  0.11083136952E+03 -0.71433449554E+02  0.21712944430E+03  0.17236531141E+03 0.  0.
         24    2    3    3    0    0  0.56624965127E+02  0.61250266984E+02 -0.11467806734E+02  0.12472580884E+03  0.92016492642E+02 0.  0.
         -6    2    1    2    0  502 -0.70046285799E+01 -0.11083136952E+03  0.19867942988E+03  0.28585536381E+03  0.17293673951E+03 0.  0.
        -24    2    5    5    0    0 -0.13836687747E+02 -0.11124727398E+03  0.63141386687E+02  0.15006323900E+03  0.77231671548E+02 0.  0.
          5    1    3    3  501    0 -0.49620336547E+02  0.49581102532E+02 -0.59965642820E+02  0.92403635460E+02  0.47000000000E+01 0. -1.
        -11    1    4    4    0    0  0.45977899781E+02  0.79635628670E+02  0.12382006878E+02  0.92785315197E+02  0.00000000000E+00 0.  1.
         12    1    4    4    0    0  0.10647065346E+02 -0.18385361686E+02 -0.23849813612E+02  0.31940493643E+02  0.00000000000E+00 0. -1.
         -5    1    5    5    0  502  0.68320591671E+01  0.41590446312E+00  0.13553804319E+03  0.13579212481E+03  0.47000000000E+01 0.  1.
         11    1    6    6    0    0  0.93569652436E+01 -0.39161408470E+02 -0.13358980281E+02  0.42422058721E+02  0.00000000000E+00 0. -1.
        -12    1    6    6    0    0 -0.23193652991E+02 -0.72085865509E+02  0.76500366968E+02  0.10764118028E+03  0.00000000000E+00 0.  1.
</event>
<event>
12    1  0.8407180E-002  0.2025875E+03  0.7818608E-02  0.1147681E+00
         21   -1    0    0  501  502  0.00000000000E+00  0.00000000000E+00  0.12394219902E+04  0.12394219902E+04  0.00000000000E+00 0. -1.
         21   -1    0    0  502  503 -0.00000000000E+00 -0.00000000000E+00 -0.42226540059E+02  0.42226540059E+02  0.00000000000E+00 0. -1.
         -6    2    1    2    0  503  0.10603698516E+03 -0.24332969132E+02  0.89706859430E+03  0.91954656245E+03  0.17028764493E+03 0.  0.
        -24    2    3    3    0    0 -0.60789322965E+01 -0.35329809178E+02  0.36541838447E+03  0.37607168257E+03  0.81327522346E+02 0.  0.
          6    2    1    2  501    0 -0.10603698516E+03  0.24332969132E+02  0.30012685589E+03  0.36210196786E+03  0.17089695695E+03 0.  0.
         24    2    5    5    0    0 -0.10228616385E+03  0.69997609137E+02  0.26841804682E+03  0.30618357572E+03  0.79611617116E+02 0.  0.
          5    1    5    5  501    0 -0.37508213109E+01 -0.45664640005E+02  0.31708809069E+02  0.55918392143E+02  0.47000000000E+01 0. -1.
        -13    1    6    6    0    0 -0.13957519095E+02 -0.13632290058E+02  0.76627806974E+02  0.79072577251E+02  0.00000000000E+00 0.  1.
         14    1    6    6    0    0 -0.88328644759E+02  0.83629899195E+02  0.19179023985E+03  0.22711099847E+03  0.00000000000E+00 0. -1.
         -5    1    3    3    0  503  0.11211591746E+03  0.10996840045E+02  0.53165020983E+03  0.54347487987E+03  0.47000000000E+01 0.  1.
         11    1    4    4    0    0 -0.21651667547E+02  0.70896994921E+01  0.26472710498E+03  0.26570566170E+03  0.00000000000E+00 0. -1.
        -12    1    4    4    0    0  0.15572735251E+02 -0.42419508670E+02  0.10069127949E+03  0.11036602088E+03  0.00000000000E+00 0.  1.
</event>
<event>
12    1  0.8407180E-002  0.2036013E+03  0.7818608E-02  0.1146931E+00
         21   -1    0    0  503  502  0.00000000000E+00  0.00000000000E+00  0.33289749038E+03  0.33289749038E+03  0.00000000000E+00 0.  1.
         21   -1    0    0  501  503 -0.00000000000E+00 -0.00000000000E+00 -0.17411416218E+03  0.17411416218E+03  0.00000000000E+00 0. -1.
          6    2    1    2  501    0 -0.13220532998E+02  0.10814408188E+03 -0.56816702357E+02  0.21047017917E+03  0.17087900314E+03 0.  0.
         24    2    3    3    0    0  0.99735419454E+01  0.33021494891E+02  0.19657128222E+02  0.10068992160E+03  0.92531978033E+02 0.  0.
         -6    2    1    2    0  502  0.13220532998E+02 -0.10814408188E+03  0.21560003055E+03  0.29654147339E+03  0.17199868408E+03 0.  0.
        -24    2    5    5    0    0 -0.23316441277E+02 -0.10780612771E+03  0.73229450500E+02  0.14948183662E+03  0.69400644469E+02 0.  0.
          5    1    3    3  501    0 -0.23194074943E+02  0.75122586991E+02 -0.76473830579E+02  0.10978025757E+03  0.47000000000E+01 0. -1.
        -11    1    4    4    0    0  0.35425822907E+02  0.10506517533E+02 -0.24970737679E+02  0.44597237353E+02  0.00000000000E+00 0.  1.
         12    1    4    4    0    0 -0.25452280961E+02  0.22514977358E+02  0.44627865900E+02  0.56092684250E+02  0.00000000000E+00 0. -1.
         -5    1    5    5    0  502  0.36536974275E+02 -0.33795417455E+00  0.14237058005E+03  0.14705963677E+03  0.47000000000E+01 0.  1.
         13    1    6    6    0    0 -0.86604971180E+01 -0.14850807298E+02 -0.13227802691E+02  0.21691598645E+02  0.00000000000E+00 0. -1.
        -14    1    6    6    0    0 -0.14655944159E+02 -0.92955320409E+02  0.86457253191E+02  0.12779023797E+03  0.00000000000E+00 0.  1.
</event>
<event>
12    1  0.8407180E-002  0.1898790E+03  0.7818608E-02  0.1160263E+00
         21   -1    0    0  503  502  0.00000000000E+00  0.00000000000E+00  0.22918641589E+03  0.22918641589E+03  0.00000000000E+00 0. -1.
         21   -1    0    0  501  503 -0.00000000000E+00 -0.00000000000E+00 -0.55810700921E+03  0.55810700921E+03  0.00000000000E+00 0. -1.
          6    2    1    2  501    0 -0.99460682882E+01  0.64126706914E+02 -0.50140572835E+03  0.53615458530E+03  0.17844572312E+03 0.  0.
         24    2    3    3    0    0  0.45604523023E+02 -0.31168083650E+01 -0.34558777753E+03  0.35752401026E+03  0.79391554447E+02 0.  0.
         -6    2    1    2    0  502  0.99460682882E+01 -0.64126706914E+02  0.17248513503E+03  0.25113883980E+03  0.17061194634E+03 0.  0.
        -24    2    5    5    0    0  0.37360074996E+01 -0.10381318603E+03  0.88417382358E+02  0.15784865533E+03  0.79419324728E+02 0.  0.
          5    1    3    3  501    0 -0.55550591311E+02  0.67243515279E+02 -0.15581795082E+03  0.17863057504E+03  0.47000000000E+01 0. -1.
        -11    1    4    4    0    0  0.53526853397E+01 -0.20178986877E+02 -0.19658761169E+02  0.28675941875E+02  0.00000000000E+00 0.  1.
         12    1    4    4    0    0  0.40251837683E+02  0.17062178512E+02 -0.32592901636E+03  0.32884806838E+03  0.00000000000E+00 0. -1.
         -5    1    5    5    0  502  0.62100607887E+01  0.39686479112E+02  0.84067752676E+02  0.93290184474E+02  0.47000000000E+01 0.  1.
         11    1    6    6    0    0  0.16818216621E+02 -0.68239617770E+02  0.96216628044E+02  0.11915174088E+03  0.00000000000E+00 0. -1.
        -12    1    6    6    0    0 -0.13082209121E+02 -0.35573568256E+02 -0.77992456866E+01  0.38696914441E+02  0.00000000000E+00 0.  1.
</event>
<event>
12    1  0.8407180E-002  0.1758548E+03  0.7818608E-02  0.1172466E+00
         21   -1    0    0  501  502  0.00000000000E+00  0.00000000000E+00  0.39905446641E+03  0.39905446641E+03  0.00000000000E+00 0.  1.
         21   -1    0    0  502  503 -0.00000000000E+00 -0.00000000000E+00 -0.23783513466E+03  0.23783513466E+03  0.00000000000E+00 0.  1.
         -6    2    1    2    0  503  0.17825586557E+02  0.16988889751E+02 -0.18186814531E+03  0.25135887234E+03  0.17175239887E+03 0.  0.
        -24    2    3    3    0    0  0.16129001031E+02  0.74027164688E+02 -0.68400798629E+02  0.12426374273E+03  0.70870605452E+02 0.  0.
          6    2    1    2  501    0 -0.17825586557E+02 -0.16988889751E+02  0.34308747706E+03  0.38553072873E+03  0.17412223282E+03 0.  0.
         24    2    5    5    0    0  0.82826459495E+01 -0.30505926112E+02  0.70282131154E+02  0.11110551700E+03  0.80035268447E+02 0.  0.
          5    1    5    5  501    0 -0.26108232506E+02  0.13517036360E+02  0.27280534591E+03  0.27442521173E+03  0.47000000000E+01 0. -1.
        -13    1    6    6    0    0 -0.29221411289E+02 -0.37835834803E+02  0.40552066932E+02  0.62689005458E+02  0.00000000000E+00 0.  1.
         14    1    6    6    0    0  0.37504057238E+02  0.73299086912E+01  0.29730064222E+02  0.48416511537E+02  0.00000000000E+00 0. -1.
         -5    1    3    3    0  503  0.16965855259E+01 -0.57038274937E+02 -0.11346734668E+03  0.12709512962E+03  0.47000000000E+01 0.  1.
         13    1    4    4    0    0 -0.26983100485E+02  0.36438871741E+02 -0.39717270116E+02  0.60277198267E+02  0.00000000000E+00 0. -1.
        -14    1    4    4    0    0  0.43112101516E+02  0.37588292948E+02 -0.28683528514E+02  0.63986544459E+02  0.00000000000E+00 0.  1.
</event>
<event>
12    1  0.8407180E-002  0.2395871E+03  0.7818608E-02  0.1120451E+00
         21   -1    0    0  501  502  0.00000000000E+00  0.00000000000E+00  0.27456382837E+03  0.27456382837E+03  0.00000000000E+00 0.  1.
         21   -1    0    0  502  503 -0.00000000000E+00 -0.00000000000E+00 -0.58922250470E+03  0.58922250470E+03  0.00000000000E+00 0. -1.
         -6    2    1    2    0  503 -0.44523634106E+02  0.15723143054E+03 -0.50540835505E+03  0.55932064076E+03  0.17520815361E+03 0.  0.
        -24    2    3    3    0    0 -0.77746029163E+02  0.64727859525E+02 -0.19473727117E+03  0.23343837592E+03  0.79603578562E+02 0.  0.
          6    2    1    2  501    0  0.44523634106E+02 -0.15723143054E+03  0.19074967872E+03  0.30446569231E+03  0.17207510314E+03 0.  0.
         24    2    5    5    0    0  0.14942606258E+02 -0.24588569187E+02  0.23046647837E+02  0.88559318059E+02  0.80521584820E+02 0.  0.
          5    1    5    5  501    0  0.29581027848E+02 -0.13264286135E+03  0.16770303088E+03  0.21590637425E+03  0.47000000000E+01 0. -1.
        -11    1    6    6    0    0  0.39011859532E+01 -0.34781874832E+02  0.48015113405E+02  0.59417583122E+02  0.00000000000E+00 0.  1.
         12    1    6    6    0    0  0.11041420305E+02  0.10193305645E+02 -0.24968465568E+02  0.29141734937E+02  0.00000000000E+00 0. -1.
         -5    1    3    3    0  503  0.33222395057E+02  0.92503571013E+02 -0.31067108388E+03  0.32588226484E+03  0.47000000000E+01 0.  1.
         11    1    4    4    0    0 -0.51852483892E+02  0.63305395687E+02 -0.19027435993E+03  0.20712456459E+03  0.00000000000E+00 0. -1.
        -12    1    4    4    0    0 -0.25893545271E+02  0.14224638373E+01 -0.44629112404E+01  0.26313811332E+02  0.00000000000E+00 0.  1.
</event>
<event>
12    1  0.8407180E-002  0.2394910E+03  0.7818608E-02  0.1120248E+00
         21   -1    0    0  501  502  0.00000000000E+00  0.00000000000E+00  0.71211479300E+02  0.71211479300E+02  0.00000000000E+00 0.  1.
         21   -1    0    0  502  503 -0.00000000000E+00 -0.00000000000E+00 -0.11886420502E+04  0.11886420502E+04  0.00000000000E+00 0. -1.
         -6    2    1    2    0  503  0.12755406486E+03  0.10423717481E+03 -0.91692348102E+03  0.94750908798E+03  0.17288543512E+03 0.  0.
        -24    2    3    3    0    0  0.39662290129E+02  0.19631118274E+02 -0.27249674262E+03  0.29161956982E+03  0.93962868719E+02 0.  0.
          6    2    1    2  501    0 -0.12755406486E+03 -0.10423717481E+03 -0.20050708985E+03  0.31234444149E+03  0.17384052742E+03 0.  0.
         24    2    5    5    0    0 -0.86225681025E+02 -0.13189420206E+03 -0.19285191021E+03  0.26181090567E+03  0.80759782406E+02 0.  0.
          5    1    5    5  501    0 -0.41328383836E+02  0.27657027247E+02 -0.76551796387E+01  0.50533535815E+02  0.47000000000E+01 0. -1.
        -13    1    6    6    0    0 -0.91239443506E+02 -0.10159333232E+03 -0.11643072002E+03  0.17944902839E+03  0.00000000000E+00 0.  1.
         14    1    6    6    0    0  0.50137624810E+01 -0.30300869733E+02 -0.76421190187E+02  0.82361877288E+02  0.00000000000E+00 0. -1.
         -5    1    3    3    0  503  0.87891774733E+02  0.84606056537E+02 -0.64442673839E+03  0.65588951816E+03  0.47000000000E+01 0.  1.
         13    1    4    4    0    0 -0.60391509792E+01  0.38329930746E+02 -0.20110918191E+03  0.20481835363E+03  0.00000000000E+00 0. -1.
        -14    1    4    4    0    0  0.45701441108E+02 -0.18698812472E+02 -0.71387560718E+02  0.86801216192E+02  0.00000000000E+00 0.  1.
</event>
<event>
12    1  0.8407180E-002  0.1913244E+03  0.7818608E-02  0.1157866E+00
         21   -1    0    0  501  502  0.00000000000E+00  0.00000000000E+00  0.19743101532E+03  0.19743101532E+03  0.00000000000E+00 0.  1.
         21   -1    0    0  502  503 -0.00000000000E+00 -0.00000000000E+00 -0.38815513167E+03  0.38815513167E+03  0.00000000000E+00 0.  1.
         -6    2    1    2    0  503  0.19918098084E+02 -0.73462418660E+02 -0.30798324903E+03  0.36118758239E+03  0.17265378770E+03 0.  0.
        -24    2    3    3    0    0 -0.46710633851E+02 -0.50090444887E+02 -0.11630240592E+03  0.15686119474E+03  0.79926521312E+02 0.  0.
          6    2    1    2  501    0 -0.19918098084E+02  0.73462418660E+02  0.11725913268E+03  0.22439856460E+03  0.17553220220E+03 0.  0.
         24    2    5    5    0    0 -0.54565397892E+00 -0.31757477763E+02  0.30756996265E+02  0.86735106123E+02  0.74620042098E+02 0.  0.
          5    1    5    5  501    0 -0.19372444106E+02  0.10521989642E+03  0.86502136419E+02  0.13766345847E+03  0.47000000000E+01 0. -1.
        -11    1    6    6    0    0  0.52885393509E+00  0.12155747784E+02  0.40032003211E+02  0.41840209987E+02  0.00000000000E+00 0.  1.
         12    1    6    6    0    0 -0.10745079140E+01 -0.43913225547E+02 -0.92750069463E+01  0.44894896136E+02  0.00000000000E+00 0. -1.
         -5    1    3    3    0  503  0.66628731935E+02 -0.23371973773E+02 -0.19168084311E+03  0.20432638765E+03  0.47000000000E+01 0.  1.
         11    1    4    4    0    0 -0.13697928022E+01 -0.10336735983E+02  0.11514581751E+02  0.15534157074E+02  0.00000000000E+00 0. -1.
        -12    1    4    4    0    0 -0.45340841048E+02 -0.39753708904E+02 -0.12781698767E+03  0.14132703767E+03  0.00000000000E+00 0.  1.
</event>
<event>
12    1  0.8407180E-002  0.1723068E+03  0.7818608E-02  0.1175551E+00
         21   -1    0    0  501  502  0.00000000000E+00  0.00000000000E+00  0.26204012341E+04  0.26204012341E+04  0.00000000000E+00 0. -1.
         21   -1    0    0  502  503 -0.00000000000E+00 -0.00000000000E+00 -0.23040696628E+02  0.23040696628E+02  0.00000000000E+00 0. -1.
         -6    2    1    2    0  503  0.89564027294E+01 -0.14213022832E+02  0.35612999610E+03  0.39562382648E+03  0.17148589093E+03 0.  0.
        -24    2    3    3    0    0  0.20513731039E+02 -0.43940331240E+02  0.10709861930E+03  0.14451428597E+03  0.84039863893E+02 0.  0.
          6    2    1    2  501    0 -0.89564027294E+01  0.14213022832E+02  0.22412305413E+04  0.22478181042E+04  0.17114223046E+03 0.  0.
         24    2    5    5    0    0 -0.16881852348E+02  0.52629875936E+02  0.77503285155E+03  0.78108826444E+03  0.79800094501E+02 0.  0.
          5    1    5    5  501    0  0.79254496189E+01 -0.38416853105E+02  0.14661976898E+04  0.14667298398E+04  0.47000000000E+01 0. -1.
        -11    1    6    6    0    0  0.29367266606E+02  0.40004525446E+01  0.26779245113E+03  0.26942760967E+03  0.00000000000E+00 0.  1.
         12    1    6    6    0    0 -0.46249118955E+02  0.48629423392E+02  0.50724040042E+03  0.51166065477E+03  0.00000000000E+00 0. -1.
         -5    1    3    3    0  503 -0.11557328310E+02  0.29727308409E+02  0.24903137680E+03  0.25110954050E+03  0.47000000000E+01 0.  1.
         13    1    4    4    0    0  0.94451165573E+01  0.23385221418E+02  0.48113034860E+02  0.54322582146E+02  0.00000000000E+00 0. -1.
        -14    1    4    4    0    0  0.11068614482E+02 -0.67325552658E+02  0.58985584444E+02  0.90191703828E+02  0.00000000000E+00 0.  1.
</event>
<event>
12    1  0.8407180E-002  0.2811682E+03  0.7818608E-02  0.1095388E+00
         21   -1    0    0  503  502  0.00000000000E+00  0.00000000000E+00  0.20775685285E+03  0.20775685285E+03  0.00000000000E+00 0.  1.
         21   -1    0    0  501  503 -0.00000000000E+00 -0.00000000000E+00 -0.37814008187E+03  0.37814008187E+03  0.00000000000E+00 0. -1.
          6    2    1    2  501    0 -0.17735065486E+03  0.13017350678E+03 -0.70242251155E+02  0.28742792383E+03  0.17112112934E+03 0.  0.
         24    2    3    3    0    0 -0.29179145595E+02  0.59942457802E+02 -0.70113004990E+02  0.12338737061E+03  0.76577339810E+02 0.  0.
         -6    2    1    2    0  502  0.17735065486E+03 -0.13017350678E+03 -0.10014097787E+03  0.29846901089E+03  0.17509179983E+03 0.  0.
        -24    2    5    5    0    0  0.15075605347E+03 -0.10702531292E+03 -0.29807890231E+01  0.19500257189E+03  0.61929901333E+02 0.  0.
          5    1    3    3  501    0 -0.14817150926E+03  0.70231048981E+02 -0.12924616494E+00  0.16404055322E+03  0.47000000000E+01 0. -1.
        -13    1    4    4    0    0  0.22746086312E+02  0.63783465129E+01 -0.45228546961E+01  0.24052525051E+02  0.00000000000E+00 0.  1.
         14    1    4    4    0    0 -0.51925231907E+02  0.53564111289E+02 -0.65590150294E+02  0.99334845560E+02  0.00000000000E+00 0. -1.
         -5    1    5    5    0  502  0.26594601384E+02 -0.23148193868E+02 -0.97160188844E+02  0.10346643899E+03  0.47000000000E+01 0.  1.
         13    1    6    6    0    0  0.11716610593E+03 -0.68697900193E+02 -0.27294723598E+02  0.13853627614E+03  0.00000000000E+00 0. -1.
        -14    1    6    6    0    0  0.33589947538E+02 -0.38327412723E+02  0.24313934575E+02  0.56466295754E+02  0.00000000000E+00 0.  1.
</event>
<event>
12    1  0.8407180E-002  0.1794933E+03  0.7818608E-02  0.1168313E+00
         21   -1    0    0  501  502  0.00000000000E+00  0.00000000000E+00  0.24857599850E+02  0.24857599850E+02  0.00000000000E+00 0.  1.
         21   -1    0    0  502  503 -0.00000000000E+00 -0.00000000000E+00 -0.15230655799E+04  0.15230655799E+04  0.00000000000E+00 0.  1.
         -6    2    1    2    0  503 -0.23210440041E+02 -0.45902818782E+02 -0.10481088673E+04  0.10633542330E+04  0.17188436185E+03 0.  0.
        -24    2    3    3    0    0  0.50957823713E+01 -0.91662737922E+02 -0.82149318239E+03  0.83039077863E+03  0.79181891926E+02 0.  0.
          6    2    1    2  501    0  0.23210440041E+02  0.45902818782E+02 -0.45009911278E+03  0.48456894676E+03  0.17196528588E+03 0.  0.
         24    2    5    5    0    0  0.49275164234E+02  0.49158345227E+02 -0.15978288518E+03  0.19302894899E+03  0.82976020840E+02 0.  0.
          5    1    5    5  501    0 -0.26064724192E+02 -0.32555264447E+01 -0.29031622759E+03  0.29153999778E+03  0.47000000000E+01 0. -1.
        -13    1    6    6    0    0 -0.14172204092E+02 -0.13141139506E+02 -0.26205277921E+02  0.32561595589E+02  0.00000000000E+00 0.  1.
         14    1    6    6    0    0  0.63447368325E+02  0.62299484733E+02 -0.13357760726E+03  0.16046735340E+03  0.00000000000E+00 0. -1.
         -5    1    3    3    0  503 -0.28306222413E+02  0.45759919141E+02 -0.22661568493E+03  0.23296345439E+03  0.47000000000E+01 0.  1.
         11    1    4    4    0    0 -0.16524079558E+02 -0.35923540707E+02 -0.11983596446E+03  0.12619114216E+03  0.00000000000E+00 0. -1.
        -12    1    4    4    0    0  0.21619861930E+02 -0.55739197215E+02 -0.70165721793E+03  0.70419963647E+03  0.00000000000E+00 0.  1.
</event>
<event>
12    1  0.8407180E-002  0.2104781E+03  0.7818608E-02  0.1141189E+00
         21   -1    0    0  503  502  0.00000000000E+00  0.00000000000E+00  0.18783746185E+04  0.18783746185E+04  0.00000000000E+00 0. -1.
         21   -1    0    0  501  503 -0.00000000000E+00 -0.00000000000E+00 -0.50390793491E+02  0.50390793491E+02  0.00000000000E+00 0. -1.
          6    2    1    2  501    0 -0.11572274074E+03 -0.37944118339E+02  0.21060958871E+03  0.29775400795E+03  0.17166694950E+03 0.  0.
         24    2    3    3    0    0 -0.60448506061E+02 -0.48695796595E+02  0.21401474797E+03  0.24114548638E+03  0.79520631066E+02 0.  0.
         -6    2    1    2    0  502  0.11572274074E+03  0.37944118339E+02  0.16173742363E+04  0.16310114040E+04  0.17166033624E+03 0.  0.
        -24    2    5    5    0    0  0.76681167954E+02  0.87515598062E+02  0.91875682510E+03  0.92953442421E+03  0.79882167595E+02 0.  0.
          5    1    3    3  501    0 -0.55274234679E+02  0.10751678256E+02 -0.34051592507E+01  0.56608521568E+02  0.47000000000E+01 0. -1.
        -13    1    4    4    0    0 -0.19613761622E+02  0.30474359569E+00  0.14820288012E+03  0.14949543870E+03  0.00000000000E+00 0.  1.
         14    1    4    4    0    0 -0.40834744438E+02 -0.49000540191E+02  0.65811867841E+02  0.91650047687E+02  0.00000000000E+00 0. -1.
         -5    1    5    5    0  502  0.39041572786E+02 -0.49571479723E+02  0.69861741119E+03  0.70147697982E+03  0.47000000000E+01 0.  1.
         13    1    6    6    0    0  0.85224763721E+02  0.74634131407E+02  0.88711398155E+03  0.89431802519E+03  0.00000000000E+00 0. -1.
        -14    1    6    6    0    0 -0.85435957668E+01  0.12881466656E+02  0.31642843552E+02  0.35216399019E+02  0.00000000000E+00 0.  1.
</event>
<event>
12    1  0.8407180E-002  0.1962285E+03  0.7818608E-02  0.1156591E+00
         21   -1    0    0  503  502  0.00000000000E+00  0.00000000000E+00  0.20170561358E+03  0.20170561358E+03  0.00000000000E+00 0.  1.
         21   -1    0    0  501  503 -0.00000000000E+00 -0.00000000000E+00 -0.25103479737E+03  0.25103479737E+03  0.00000000000E+00 0.  1.
          6    2    1    2  501    0 -0.17756439106E+02  0.49896265475E+02 -0.14793135154E+03  0.23313163593E+03  0.17222585887E+03 0.  0.
         24    2    3    3    0    0  0.20732644846E+02  0.89738789959E+02 -0.12016496719E+03  0.17098746129E+03  0.79461938031E+02 0.  0.
         -6    2    1    2    0  502  0.17756439106E+02 -0.49896265475E+02  0.98602167750E+02  0.21960877502E+03  0.18894628375E+03 0.  0.
        -24    2    5    5    0    0 -0.15658572551E+02  0.40555693257E+02  0.86173889304E+02  0.12227084846E+03  0.75061748151E+02 0.  0.
          5    1    3    3  501    0 -0.38489083951E+02 -0.39842524483E+02 -0.27766384357E+02  0.62144174633E+02  0.47000000000E+01 0. -1.
        -11    1    4    4    0    0 -0.92849266657E+01  0.24148326535E+02  0.51645834776E+01  0.26382275492E+02  0.00000000000E+00 0.  1.
         12    1    4    4    0    0  0.30017571511E+02  0.65590463424E+02 -0.12532955066E+03  0.14460518580E+03  0.00000000000E+00 0. -1.
         -5    1    5    5    0  502  0.33415011657E+02 -0.90451958732E+02  0.12428278445E+02  0.97337926563E+02  0.47000000000E+01 0.  1.
         11    1    6    6    0    0  0.13640120345E+02  0.28119545356E+02  0.84840788280E+02  0.90414164101E+02  0.00000000000E+00 0. -1.
        -12    1    6    6    0    0 -0.29298692896E+02  0.12436147900E+02  0.13331010243E+01  0.31856684359E+02  0.00000000000E+00 0.  1.
</event>
<event>
12    1  0.8407180E-002  0.1912849E+03  0.7818608E-02  0.1157690E+00
         21   -1    0    0  503  502  0.00000000000E+00  0.00000000000E+00  0.38458641583E+03  0.38458641583E+03  0.00000000000E+00 0.  1.
         21   -1    0    0  501  503 -0.00000000000E+00 -0.00000000000E+00 -0.10878830087E+03  0.10878830087E+03  0.00000000000E+00 0.  1.
          6    2    1    2  501    0  0.58392594432E+02 -0.56407989355E+02  0.48393994478E+02  0.19731165784E+03  0.17320033276E+03 0.  0.
         24    2    3    3    0    0 -0.31589411797E+02 -0.15385493759E+02  0.45861605220E+02  0.98275757350E+02  0.79499894928E+02 0.  0.
         -6    2    1    2    0  502 -0.58392594432E+02  0.56407989355E+02  0.22740412048E+03  0.29606305886E+03  0.17131592004E+03 0.  0.
        -24    2    5    5    0    0 -0.61643705143E+02  0.82633682525E+02  0.95884909452E+02  0.16183284776E+03  0.79797762378E+02 0.  0.
          5    1    3    3  501    0  0.89982006229E+02 -0.41022495596E+02  0.25323892579E+01  0.99035900487E+02  0.47000000000E+01 0. -1.
        -11    1    4    4    0    0  0.24627404687E+02 -0.68631274348E+01  0.55261941296E+00  0.25571800249E+02  0.00000000000E+00 0.  1.
         12    1    4    4    0    0 -0.56216816483E+02 -0.85223663245E+01  0.45308985807E+02  0.72703957101E+02  0.00000000000E+00 0. -1.
         -5    1    5    5    0  502  0.32511107113E+01 -0.26225693170E+02  0.13151921103E+03  0.13423021110E+03  0.47000000000E+01 0.  1.
         11    1    6    6    0    0  0.11298891706E+02 -0.75869401969E+01  0.15822658646E+02  0.20870628691E+02  0.00000000000E+00 0. -1.
        -12    1    6    6    0    0 -0.72942596849E+02  0.90220622721E+02  0.80062250806E+02  0.14096221906E+03  0.00000000000E+00 0.  1.
</event>
<event>
12    1  0.8407180E-002  0.3389240E+03  0.7818608E-02  0.1067318E+00
         21   -1    0    0  501  502  0.00000000000E+00  0.00000000000E+00  0.54229470447E+03  0.54229470447E+03  0.00000000000E+00 0. -1.
         21   -1    0    0  502  503 -0.00000000000E+00 -0.00000000000E+00 -0.24972073452E+03  0.24972073452E+03  0.00000000000E+00 0.  1.
         -6    2    1    2    0  503  0.18162916303E+03 -0.22834514271E+03  0.30120324429E+03  0.45298159042E+03  0.17128417856E+03 0.  0.
        -24    2    3    3    0    0  0.11563616604E+03 -0.19802256324E+03  0.29170834471E+03  0.37958692034E+03  0.80048818061E+02 0.  0.
          6    2    1    2  501    0 -0.18162916303E+03  0.22834514271E+03 -0.86292743433E+01  0.33903384856E+03  0.17244949705E+03 0.  0.
         24    2    5    5    0    0 -0.13952851179E+03  0.22009241029E+03  0.38270980685E+02  0.27529770224E+03  0.80095456932E+02 0.  0.
          5    1    5    5  501    0 -0.42100651234E+02  0.82527324194E+01 -0.46900255028E+02  0.63736146325E+02  0.47000000000E+01 0. -1.
        -11    1    6    6    0    0 -0.66108542995E+02  0.49006380897E+02  0.34097765728E+02  0.89076497760E+02  0.00000000000E+00 0.  1.
         12    1    6    6    0    0 -0.73419968800E+02  0.17108602940E+03  0.41732149564E+01  0.18622120448E+03  0.00000000000E+00 0. -1.
         -5    1    3    3    0  503  0.65992996993E+02 -0.30322579477E+02  0.94948995794E+01  0.73394670081E+02  0.47000000000E+01 0.  1.
         13    1    4    4    0    0  0.49606242289E+02 -0.51301961414E+02  0.14605766846E+03  0.16255926007E+03  0.00000000000E+00 0. -1.
        -14    1    4    4    0    0  0.66029923747E+02 -0.14672060182E+03  0.14565067625E+03  0.21702766027E+03  0.00000000000E+00 0.  1.
</event>
<event>
12    1  0.8407180E-002  0.3835625E+03  0.7818608E-02  0.1049658E+00
         21   -1    0    0  503  502  0.00000000000E+00  0.00000000000E+00  0.32434310073E+03  0.32434310073E+03  0.00000000000E+00 0. -1.
         21   -1    0    0  501  503 -0.00000000000E+00 -0.00000000000E+00 -0.55864689977E+03  0.55864689977E+03  0.00000000000E+00 0. -1.
          6    2    1    2  501    0 -0.10276086181E+03 -0.32628888644E+03  0.74648561248E+02  0.39075903392E+03  0.17348193786E+03 0.  0.
         24    2    3    3    0    0 -0.64297288129E+02 -0.69956365650E+02  0.19678295265E+02  0.12575030226E+03  0.79986679259E+02 0.  0.
         -6    2    1    2    0  502  0.10276086181E+03  0.32628888644E+03 -0.30895236028E+03  0.49223096658E+03  0.17267174466E+03 0.  0.
        -24    2    5    5    0    0  0.33191835794E+02  0.94470663647E+02 -0.17253556229E+03  0.21436198563E+03  0.78461050060E+02 0.  0.
          5    1    3    3  501    0 -0.38463573678E+02 -0.25633252079E+03  0.54970265983E+02  0.26500873166E+03  0.47000000000E+01 0. -1.
        -13    1    4    4    0    0  0.15169546541E+02 -0.17923412101E+00  0.12668604071E+02  0.19764634989E+02  0.00000000000E+00 0.  1.
         14    1    4    4    0    0 -0.79466834670E+02 -0.69777131529E+02  0.70096911940E+01  0.10598566727E+03  0.00000000000E+00 0. -1.
         -5    1    5    5    0  502  0.69569026012E+02  0.23181822279E+03 -0.13641679799E+03  0.27786898095E+03  0.47000000000E+01 0.  1.
         13    1    6    6    0    0  0.21349339297E+02 -0.87569654528E+01 -0.26573770034E+02  0.35194374354E+02  0.00000000000E+00 0. -1.
        -14    1    6    6    0    0  0.11842496497E+02  0.10322762910E+03 -0.14596179226E+03  0.17916761128E+03  0.00000000000E+00 0.  1.
</event>
<event>
12    1  0.8407180E-002  0.2212516E+03  0.7818608E-02  0.1133110E+00
         21   -1    0    0  501  502  0.00000000000E+00  0.00000000000E+00  0.89266790058E+03  0.89266790058E+03  0.00000000000E+00 0. -1.
         21   -1    0    0  502  503 -0.00000000000E+00 -0.00000000000E+00 -0.59515854903E+02  0.59515854903E+02  0.00000000000E+00 0. -1.
         -6    2    1    2    0  503  0.70466265005E+02  0.12053986861E+03  0.27943112636E+03  0.35589597228E+03  0.17054276378E+03 0.  0.
        -24    2    3    3    0    0  0.36832020984E+02  0.96775859672E+01  0.60469385882E+02  0.10812986912E+03  0.81149667444E+02 0.  0.
          6    2    1    2  501    0 -0.70466265005E+02 -0.12053986861E+03  0.55372091931E+03  0.59628778320E+03  0.17163015317E+03 0.  0.
         24    2    5    5    0    0 -0.12476286882E+02 -0.10408320983E+03  0.22533097275E+03  0.26237805560E+03  0.84138127362E+02 0.  0.
          5    1    5    5  501    0 -0.57989978123E+02 -0.16456658784E+02  0.32838994657E+03  0.33390972760E+03  0.47000000000E+01 0. -1.
        -11    1    6    6    0    0  0.13039221518E+01  0.14102235973E+02  0.14374947895E+02  0.20179504439E+02  0.00000000000E+00 0.  1.
         12    1    6    6    0    0 -0.13780209034E+02 -0.11818544580E+03  0.21095602485E+03  0.24219855116E+03  0.00000000000E+00 0. -1.
         -5    1    3    3    0  503  0.33634244021E+02  0.11086228265E+03  0.21896174048E+03  0.24776610317E+03  0.47000000000E+01 0.  1.
         11    1    4    4    0    0  0.26253887824E+02  0.44303420947E+02  0.46296712179E+02  0.69249153728E+02  0.00000000000E+00 0. -1.
        -12    1    4    4    0    0  0.10578133160E+02 -0.34625834980E+02  0.14172673703E+02  0.38880715388E+02  0.00000000000E+00 0.  1.
</event>
<event>
12    1  0.8407180E-002  0.2490776E+03  0.7818608E-02  0.1114038E+00
         21   -1    0    0  503  502  0.00000000000E+00  0.00000000000E+00  0.95422111216E+03  0.95422111216E+03  0.00000000000E+00 0.  1.
         21   -1    0    0  501  503 -0.00000000000E+00 -0.00000000000E+00 -0.10495592258E+03  0.10495592258E+03  0.00000000000E+00 0.  1.
          6    2    1    2  501    0  0.70789410766E+02  0.16762654849E+03  0.96448461797E+02  0.26622515191E+03  0.16871195953E+03 0.  0.
         24    2    3    3    0    0  0.51527801158E+01  0.15023999988E+02  0.33412135438E+02  0.88485529047E+02  0.80380634096E+02 0.  0.
         -6    2    1    2    0  502 -0.70789410766E+02 -0.16762654849E+03  0.75281672777E+03  0.79295188283E+03  0.17008780801E+03 0.  0.
        -24    2    5    5    0    0  0.14218632288E+02 -0.10907801450E+03  0.33471700302E+03  0.36227361770E+03  0.84300173310E+02 0.  0.
          5    1    3    3  501    0  0.65636630650E+02  0.15260254851E+03  0.63036326359E+02  0.17773962286E+03  0.47000000000E+01 0. -1.
        -11    1    4    4    0    0  0.64311777938E+01  0.31381949979E+02 -0.16437340123E+02  0.36005179942E+02  0.00000000000E+00 0.  1.
         12    1    4    4    0    0 -0.12783976780E+01 -0.16357949991E+02  0.49849475561E+02  0.52480349106E+02  0.00000000000E+00 0. -1.
         -5    1    5    5    0  502 -0.85008043055E+02 -0.58548533996E+02  0.41809972475E+03  0.43067826513E+03  0.47000000000E+01 0.  1.
         13    1    6    6    0    0  0.20073625530E+02  0.73554378628E+01  0.65440974140E+02  0.68844564088E+02  0.00000000000E+00 0. -1.
        -14    1    6    6    0    0 -0.58549932414E+01 -0.11643345236E+03  0.26927602888E+03  0.29342905362E+03  0.00000000000E+00 0.  1.
</event>
<event>
12    1  0.8407180E-002  0.1993097E+03  0.7818608E-02  0.1151508E+00
         21   -1    0    0  503  502  0.00000000000E+00  0.00000000000E+00  0.66652449139E+03  0.66652449139E+03  0.00000000000E+00 0. -1.
         21   -1    0    0  501  503 -0.00000000000E+00 -0.00000000000E+00 -0.62529312625E+02  0.62529312625E+02  0.00000000000E+00 0.  1.
          6    2    1    2  501    0 -0.82439563824E+02  0.39753956648E+02  0.19957688544E+03  0.27818962430E+03  0.17082703275E+03 0.  0.
         24    2    3    3    0    0 -0.15455165150E+02  0.72939209525E+02  0.74986553305E+02  0.13281764786E+03  0.80365129196E+02 0.  0.
         -6    2    1    2    0  502  0.82439563824E+02 -0.39753956648E+02  0.40441829333E+03  0.45086417971E+03  0.17705279951E+03 0.  0.
        -24    2    5    5    0    0  0.10774620535E+03 -0.69442816192E+02  0.25360858166E+03  0.29501966226E+03  0.79295264296E+02 0.  0.
          5    1    3    3  501    0 -0.66984398675E+02 -0.33185252877E+02  0.12459033213E+03  0.14537197644E+03  0.47000000000E+01 0. -1.
        -11    1    4    4    0    0  0.16277466639E+02  0.14281022003E+02 -0.10767028507E+02  0.24183308551E+02  0.00000000000E+00 0.  1.
         12    1    4    4    0    0 -0.31732631788E+02  0.58658187522E+02  0.85753581812E+02  0.10863433931E+03  0.00000000000E+00 0. -1.
         -5    1    5    5    0  502 -0.25306641526E+02  0.29688859544E+02  0.15080971167E+03  0.15584451745E+03  0.47000000000E+01 0.  1.
         13    1    6    6    0    0  0.60428492977E+02  0.49466912934E+01  0.80773710262E+02  0.10099735040E+03  0.00000000000E+00 0. -1.
        -14    1    6    6    0    0  0.47317712374E+02 -0.74389507485E+02  0.17283487140E+03  0.19402231186E+03  0.00000000000E+00 0.  1.
</event>
<event>
12    1  0.8407180E-002  0.1847336E+03  0.7818608E-02  0.1164799E+00
         21   -1    0    0  503  502  0.00000000000E+00  0.00000000000E+00  0.32737881371E+03  0.32737881371E+03  0.00000000000E+00 0. -1.
         21   -1    0    0  501  503 -0.00000000000E+00 -0.00000000000E+00 -0.11071177782E+03  0.11071177782E+03  0.00000000000E+00 0. -1.
          6    2    1    2  501    0  0.24570776306E+02 -0.50862027517E+02  0.40831208025E+02  0.18305188330E+03  0.16926350918E+03 0.  0.
         24    2    3    3    0    0  0.62397029416E+02 -0.45909141832E+02  0.73446193427E+02  0.13264172784E+03  0.78730210545E+02 0.  0.
         -6    2    1    2    0  502 -0.24570776306E+02  0.50862027517E+02  0.17583582787E+03  0.25503870822E+03  0.17588585912E+03 0.  0.
        -24    2    5    5    0    0  0.39165797598E+01  0.98615013889E+02  0.10505198113E+03  0.16490369770E+03  0.80106492961E+02 0.  0.
          5    1    3    3  501    0 -0.37826253109E+02 -0.49528856848E+01 -0.32614985402E+02  0.50410155462E+02  0.47000000000E+01 0. -1.
        -13    1    4    4    0    0 -0.10627152236E+02 -0.27278853870E+02  0.41500198108E+02  0.50787190079E+02  0.00000000000E+00 0.  1.
         14    1    4    4    0    0  0.73024181652E+02 -0.18630287962E+02  0.31945995319E+02  0.81854537763E+02  0.00000000000E+00 0. -1.
         -5    1    5    5    0  502 -0.28487356066E+02 -0.47752986372E+02  0.70783846734E+02  0.90135010521E+02  0.47000000000E+01 0.  1.
         13    1    6    6    0    0  0.24210123226E+02  0.10729673302E+01  0.37073199871E+02  0.44291121844E+02  0.00000000000E+00 0. -1.
        -14    1    6    6    0    0 -0.20293543467E+02  0.97542046559E+02  0.67978781264E+02  0.12061257586E+03  0.00000000000E+00 0.  1.
</event>
<event>
12    1  0.8407180E-002  0.1803480E+03  0.7818608E-02  0.1167542E+00
         21   -1    0    0  501  502  0.00000000000E+00  0.00000000000E+00  0.27531459912E+03  0.27531459912E+03  0.00000000000E+00 0. -1.
         21   -1    0    0  502  503 -0.00000000000E+00 -0.00000000000E+00 -0.12269696561E+03  0.12269696561E+03  0.00000000000E+00 0.  1.
         -6    2    1    2    0  503  0.43346186917E+02 -0.35228948710E+02  0.37171743701E+02  0.18413886959E+03  0.17148006886E+03 0.  0.
        -24    2    3    3    0    0 -0.30994677279E+01 -0.80635177871E+02  0.13941464295E+02  0.11499654996E+03  0.80735391656E+02 0.  0.
          6    2    1    2  501    0 -0.43346186917E+02  0.35228948710E+02  0.11544588981E+03  0.21387269514E+03  0.17115433242E+03 0.  0.
         24    2    5    5    0    0  0.30411910991E+02 -0.18866629377E+02  0.50578370067E+02  0.10163868206E+03  0.80569325038E+02 0.  0.
          5    1    5    5  501    0 -0.73758097909E+02  0.54095578087E+02  0.64867519739E+02  0.11223401308E+03  0.47000000000E+01 0. -1.
        -13    1    6    6    0    0  0.11277721789E+02  0.11531312616E+02 -0.18033056125E+02  0.24193992903E+02  0.00000000000E+00 0.  1.
         14    1    6    6    0    0  0.19134189202E+02 -0.30397941993E+02  0.68611426192E+02  0.77444689152E+02  0.00000000000E+00 0. -1.
         -5    1    3    3    0  503  0.46445654645E+02  0.45406229160E+02  0.23230279406E+02  0.69142319626E+02  0.47000000000E+01 0.  1.
         11    1    4    4    0    0 -0.14009369502E+02 -0.81015454847E+01  0.35104367446E+02  0.38655065475E+02  0.00000000000E+00 0. -1.
        -12    1    4    4    0    0  0.10909901774E+02 -0.72533632386E+02 -0.21162903151E+02  0.76341484486E+02  0.00000000000E+00 0.  1.
</event>
<event>
12    1  0.8407180E-002  0.1905572E+03  0.7818608E-02  0.1158708E+00
         21   -1    0    0  501  502  0.00000000000E+00  0.00000000000E+00  0.46263509967E+03  0.46263509967E+03  0.00000000000E+00 0.  1.
         21   -1    0    0  502  503 -0.00000000000E+00 -0.00000000000E+00 -0.27093542463E+03  0.27093542463E+03  0.00000000000E+00 0.  1.
         -6    2    1    2    0  503 -0.26067139302E+02 -0.76851232813E+02 -0.21459457153E+03  0.28480884249E+03  0.16875911501E+03 0.  0.
        -24    2    3    3    0    0  0.24377697591E+02 -0.10066186871E+03 -0.13787117966E+03  0.18983412581E+03  0.79381667822E+02 0.  0.
          6    2    1    2  501    0  0.26067139302E+02  0.76851232813E+02  0.40629424656E+03  0.44876168181E+03  0.17241352771E+03 0.  0.
         24    2    5    5    0    0  0.49756999361E+02  0.85756460291E+02  0.40228079799E+03  0.42270961250E+03  0.83807198980E+02 0.  0.
          5    1    5    5  501    0 -0.23689860059E+02 -0.89052274778E+01  0.40134485738E+01  0.26052069314E+02  0.47000000000E+01 0. -1.
        -13    1    6    6    0    0  0.40278912818E+02  0.57689660332E+02  0.12174569541E+03  0.14061472924E+03  0.00000000000E+00 0.  1.
         14    1    6    6    0    0  0.94780865431E+01  0.28066799958E+02  0.28053510258E+03  0.28209488326E+03  0.00000000000E+00 0. -1.
         -5    1    3    3    0  503 -0.50444836893E+02  0.23810635900E+02 -0.76723391861E+02  0.94974716687E+02  0.47000000000E+01 0.  1.
         13    1    4    4    0    0 -0.22149735686E+02 -0.20071621476E+02 -0.96634181994E+01  0.31414366633E+02  0.00000000000E+00 0. -1.
        -14    1    4    4    0    0  0.46527433277E+02 -0.80590247237E+02 -0.12820776147E+03  0.15841975917E+03  0.00000000000E+00 0.  1.
</event>
<event>
12    1  0.8407180E-002  0.1768261E+03  0.7818608E-02  0.1171073E+00
         21   -1    0    0  503  502  0.00000000000E+00  0.00000000000E+00  0.71926216435E+03  0.71926216435E+03  0.00000000000E+00 0.  1.
         21   -1    0    0  501  503 -0.00000000000E+00 -0.00000000000E+00 -0.21382924138E+03  0.21382924138E+03  0.00000000000E+00 0.  1.
          6    2    1    2  501    0  0.27378678843E+02 -0.24846266182E+02 -0.16381422511E+03  0.24104473977E+03  0.17291771807E+03 0.  0.
         24    2    3    3    0    0 -0.14070703914E+02 -0.68224420324E+02 -0.14132162904E+03  0.17679738601E+03  0.80205714432E+02 0.  0.
         -6    2    1    2    0  502 -0.27378678843E+02  0.24846266182E+02  0.66924714809E+03  0.69204666596E+03  0.17224956791E+03 0.  0.
        -24    2    5    5    0    0 -0.59362592093E+02  0.10837191419E+02  0.22140907699E+03  0.24282483567E+03  0.79376063065E+02 0.  0.
          5    1    3    3  501    0  0.41449382757E+02  0.43378154142E+02 -0.22492596076E+02  0.64247353766E+02  0.47000000000E+01 0. -1.
        -11    1    4    4    0    0  0.20875607254E+02 -0.66748541387E+02 -0.80511886341E+02  0.10664578097E+03  0.00000000000E+00 0.  1.
         12    1    4    4    0    0 -0.34946311169E+02 -0.14758789367E+01 -0.60809742696E+02  0.70151605040E+02  0.00000000000E+00 0. -1.
         -5    1    5    5    0  502  0.31983913251E+02  0.14009074762E+02  0.44783807109E+03  0.44922183028E+03  0.47000000000E+01 0.  1.
         13    1    6    6    0    0 -0.55764758126E+02 -0.36369593680E+01  0.22094536050E+03  0.22790302334E+03  0.00000000000E+00 0. -1.
        -14    1    6    6    0    0 -0.35978339677E+01  0.14474150787E+02  0.46371649210E+00  0.14921812331E+02  0.00000000000E+00 0.  1.
</event>
<event>
12    1  0.8407180E-002  0.2067256E+03  0.7818608E-02  0.1146391E+00
         21   -1    0    0  501  502  0.00000000000E+00  0.00000000000E+00  0.13979801376E+04  0.13979801376E+04  0.00000000000E+00 0. -1.
         21   -1    0    0  502  503 -0.00000000000E+00 -0.00000000000E+00 -0.10663284035E+03  0.10663284035E+03  0.00000000000E+00 0. -1.
         -6    2    1    2    0  503  0.10454154105E+03  0.47158107025E+02  0.85406344240E+01  0.20690194060E+03  0.17199607474E+03 0.  0.
        -24    2    3    3    0    0  0.79160358169E+02  0.96677333636E+02 -0.72291266379E+01  0.14887493299E+03  0.80613995413E+02 0.  0.
          6    2    1    2  501    0 -0.10454154105E+03 -0.47158107025E+02  0.12828066629E+04  0.12977110374E+04  0.15908545309E+03 0.  0.
         24    2    5    5    0    0 -0.50210815381E+02 -0.51216139029E+02  0.11362036953E+04  0.11412411825E+04  0.79551119609E+02 0.  0.
          5    1    5    5  501    0 -0.54330725669E+02  0.40580320042E+01  0.14660296758E+03  0.15646985486E+03  0.47000000000E+01 0. -1.
        -11    1    6    6    0    0 -0.23645949505E+01 -0.50806781445E+02  0.36140121306E+03  0.36496267912E+03  0.00000000000E+00 0.  1.
         12    1    6    6    0    0 -0.47846220431E+02 -0.40935758433E+00  0.77480248224E+03  0.77627850341E+03  0.00000000000E+00 0. -1.
         -5    1    3    3    0  503  0.25381182881E+02 -0.49519226611E+02  0.15769761062E+02  0.58027007613E+02  0.47000000000E+01 0.  1.
         13    1    4    4    0    0  0.14056384364E+02  0.36345596593E+02 -0.38487510236E+02  0.54771094359E+02  0.00000000000E+00 0. -1.
        -14    1    4    4    0    0  0.65103973805E+02  0.60331737042E+02  0.31258383599E+02  0.94103838630E+02  0.00000000000E+00 0.  1.
</event>
<event>
12    1  0.8407180E-002  0.2128157E+03  0.7818608E-02  0.1140039E+00
         21   -1    0    0  501  502  0.00000000000E+00  0.00000000000E+00  0.61353188733E+03  0.61353188733E+03  0.00000000000E+00 0. -1.
         21   -1    0    0  502  503 -0.00000000000E+00 -0.00000000000E+00 -0.72966208079E+02  0.72966208079E+02  0.00000000000E+00 0. -1.
         -6    2    1    2    0  503 -0.26601429289E+02  0.11696417111E+03  0.24429468204E+03  0.32171457285E+03  0.17155792419E+03 0.  0.
        -24    2    3    3    0    0 -0.19826474528E+02  0.18525246662E+02  0.19590187088E+03  0.21171422726E+03  0.75558567712E+02 0.  0.
          6    2    1    2  501    0  0.26601429289E+02 -0.11696417111E+03  0.29627099721E+03  0.36478352255E+03  0.17579038988E+03 0.  0.
         24    2    5    5    0    0  0.59042728685E+02 -0.79739169104E+01  0.13196349222E+03  0.16490766205E+03  0.78933811265E+02 0.  0.
          5    1    5    5  501    0 -0.32441299396E+02 -0.10899025420E+03  0.16430750499E+03  0.19987586051E+03  0.47000000000E+01 0. -1.
        -11    1    6    6    0    0 -0.17776959821E+02  0.87128150023E+01  0.33500371669E+02  0.38912830117E+02  0.00000000000E+00 0.  1.
         12    1    6    6    0    0  0.76819688506E+02 -0.16686731913E+02  0.98463120554E+02  0.12599483193E+03  0.00000000000E+00 0. -1.
         -5    1    3    3    0  503 -0.67749547618E+01  0.98438924448E+02  0.48392811155E+02  0.11000034559E+03  0.47000000000E+01 0.  1.
         13    1    4    4    0    0  0.43684782671E+01  0.29239463974E+02  0.17635621953E+03  0.17881707419E+03  0.00000000000E+00 0. -1.
        -14    1    4    4    0    0 -0.24194952795E+02 -0.10714217312E+02  0.19545651349E+02  0.32897153069E+02  0.00000000000E+00 0.  1.
</event>
<event>
12    1  0.8407180E-002  0.1879568E+03  0.7818608E-02  0.1160493E+00
         21   -1    0    0  503  502  0.00000000000E+00  0.00000000000E+00  0.37491259896E+03  0.37491259896E+03  0.00000000000E+00 0. -1.
         21   -1    0    0  501  503 -0.00000000000E+00 -0.00000000000E+00 -0.93978043409E+02  0.93978043409E+02  0.00000000000E+00 0. -1.
          6    2    1    2  501    0  0.19730418528E+02 -0.77033071405E+02  0.13137500681E+03  0.22869112746E+03  0.16946048465E+03 0.  0.
         24    2    3    3    0    0  0.25384912680E+02 -0.81228389226E+02  0.16062413487E+03  0.19824157101E+03  0.79102229836E+02 0.  0.
         -6    2    1    2    0  502 -0.19730418528E+02  0.77033071405E+02  0.14955954874E+03  0.24019951491E+03  0.17030667878E+03 0.  0.
        -24    2    5    5    0    0  0.35427612510E+02  0.13088277747E+02  0.12393337772E+03  0.15182454297E+03  0.79150432679E+02 0.  0.
          5    1    3    3  501    0 -0.56544941516E+01  0.41953178216E+01 -0.29249128059E+02  0.30449556449E+02  0.47000000000E+01 0. -1.
        -13    1    4    4    0    0  0.25238715787E+02 -0.36166700718E+01  0.89179062392E+02  0.92752241192E+02  0.00000000000E+00 0.  1.
         14    1    4    4    0    0  0.14619689243E+00 -0.77611719155E+02  0.71445072476E+02  0.10548932981E+03  0.00000000000E+00 0. -1.
         -5    1    5    5    0  502 -0.55158031038E+02  0.63944793658E+02  0.25626171021E+02  0.88374971938E+02  0.47000000000E+01 0.  1.
         13    1    6    6    0    0 -0.33836699764E+01  0.37040468814E+02  0.81252344387E+02  0.89361003916E+02  0.00000000000E+00 0. -1.
        -14    1    6    6    0    0  0.38811282486E+02 -0.23952191067E+02  0.42681033329E+02  0.62463539054E+02  0.00000000000E+00 0.  1.
</event>
<event>
12    1  0.8407180E-002  0.2009961E+03  0.7818608E-02  0.1149428E+00
         21   -1    0    0  501  502  0.00000000000E+00  0.00000000000E+00  0.32663931567E+03  0.32663931567E+03  0.00000000000E+00 0. -1.
         21   -1    0    0  502  503 -0.00000000000E+00 -0.00000000000E+00 -0.64702985713E+03  0.64702985713E+03  0.00000000000E+00 0. -1.
         -6    2    1    2    0  503 -0.58740524056E+01 -0.10160051101E+03 -0.59886188914E+03  0.63169216948E+03  0.17332705035E+03 0.  0.
        -24    2    3    3    0    0  0.15565756939E+02 -0.12341147465E+03 -0.57252815633E+03  0.59106042027E+03  0.78046433366E+02 0.  0.
          6    2    1    2  501    0  0.58740524056E+01  0.10160051101E+03  0.27847134769E+03  0.34197700332E+03  0.17042538246E+03 0.  0.
         24    2    5    5    0    0  0.43534347569E+02  0.84399416492E+02  0.10343127816E+03  0.16204565134E+03  0.80884256160E+02 0.  0.
          5    1    5    5  501    0 -0.37660295164E+02  0.17201094518E+02  0.17504006952E+03  0.17993135197E+03  0.47000000000E+01 0. -1.
        -13    1    6    6    0    0  0.19184766669E+02 -0.13756259488E+02  0.20145618202E+02  0.31034430556E+02  0.00000000000E+00 0.  1.
         14    1    6    6    0    0  0.24349580901E+02  0.98155675980E+02  0.83285659962E+02  0.13101122079E+03  0.00000000000E+00 0. -1.
         -5    1    3    3    0  503 -0.21439809344E+02  0.21810963639E+02 -0.26333732817E+02  0.40631749208E+02  0.47000000000E+01 0.  1.
         13    1    4    4    0    0  0.43848879011E+02 -0.10047806023E+03 -0.40142692973E+03  0.41612755819E+03  0.00000000000E+00 0. -1.
        -14    1    4    4    0    0 -0.28283122073E+02 -0.22933414421E+02 -0.17110122660E+03  0.17493286208E+03  0.00000000000E+00 0.  1.
</event>
<event>
12    1  0.8407180E-002  0.1826536E+03  0.7818608E-02  0.1165472E+00
         21   -1    0    0  501  502  0.00000000000E+00  0.00000000000E+00  0.26541551282E+03  0.26541551282E+03  0.00000000000E+00 0. -1.
         21   -1    0    0  502  503 -0.00000000000E+00 -0.00000000000E+00 -0.14954071067E+03  0.14954071067E+03  0.00000000000E+00 0. -1.
         -6    2    1    2    0  503 -0.34880097874E+02  0.49420484120E+02 -0.26088353689E+02  0.18362120106E+03  0.17139760150E+03 0.  0.
        -24    2    3    3    0    0 -0.62986668957E+02 -0.14869080788E+02 -0.42137384897E+02  0.11149084062E+03  0.80412923755E+02 0.  0.
          6    2    1    2  501    0  0.34880097874E+02 -0.49420484120E+02  0.14196315584E+03  0.23133502243E+03  0.17234659703E+03 0.  0.
         24    2    5    5    0    0  0.85988958653E+01 -0.88181855464E+02  0.13986779829E+03  0.18422211538E+03  0.80776272203E+02 0.  0.
          5    1    5    5  501    0  0.26281202009E+02  0.38761371345E+02  0.20953575422E+01  0.47112907051E+02  0.47000000000E+01 0. -1.
        -11    1    6    6    0    0 -0.27766995418E+02 -0.16710621693E+02  0.14737718276E+02  0.35601281605E+02  0.00000000000E+00 0.  1.
         12    1    6    6    0    0  0.36365891284E+02 -0.71471233771E+02  0.12513008002E+03  0.14862083377E+03  0.00000000000E+00 0. -1.
         -5    1    3    3    0  503  0.28106571083E+02  0.64289564908E+02  0.16049031207E+02  0.72130360437E+02  0.47000000000E+01 0.  1.
         11    1    4    4    0    0 -0.25303065966E+02  0.48353212397E+01 -0.60054146682E+02  0.65346201209E+02  0.00000000000E+00 0. -1.
        -12    1    4    4    0    0 -0.37683602991E+02 -0.19704402028E+02  0.17916761785E+02  0.46144639412E+02  0.00000000000E+00 0.  1.
</event>
<event>
12    1  0.8407180E-002  0.2074821E+03  0.7818608E-02  0.1143771E+00
         21   -1    0    0  503  502  0.00000000000E+00  0.00000000000E+00  0.15897417995E+04  0.15897417995E+04  0.00000000000E+00 0.  1.
         21   -1    0    0  501  503 -0.00000000000E+00 -0.00000000000E+00 -0.27198549971E+02  0.27198549971E+02  0.00000000000E+00 0.  1.
          6    2    1    2  501    0  0.82619561741E+02 -0.78070411986E+02  0.85635565614E+03  0.88090383368E+03  0.17241105873E+03 0.  0.
         24    2    3    3    0    0  0.65980834707E+02  0.16842471886E+02  0.34942811654E+03  0.36487774600E+03  0.79991383827E+02 0.  0.
         -6    2    1    2    0  502 -0.82619561741E+02  0.78070411986E+02  0.70618759336E+03  0.73603651577E+03  0.17357377197E+03 0.  0.
        -24    2    5    5    0    0 -0.40932180448E+01  0.10090460342E+02  0.48540439564E+03  0.49199764412E+03  0.79534160498E+02 0.  0.
          5    1    3    3  501    0  0.16638727035E+02 -0.94912883872E+02  0.50692753960E+03  0.51602608768E+03  0.47000000000E+01 0. -1.
        -11    1    4    4    0    0  0.20736513963E+02  0.32443732525E+02  0.26538087003E+03  0.26815966321E+03  0.00000000000E+00 0.  1.
         12    1    4    4    0    0  0.45244320744E+02 -0.15601260639E+02  0.84047246508E+02  0.96718082791E+02  0.00000000000E+00 0. -1.
         -5    1    5    5    0  502 -0.78526343697E+02  0.67979951644E+02  0.22078319772E+03  0.24403887165E+03  0.47000000000E+01 0.  1.
         13    1    6    6    0    0  0.29574525876E+02  0.28462616494E+02  0.21453287431E+03  0.21842419115E+03  0.00000000000E+00 0. -1.
        -14    1    6    6    0    0 -0.33667743920E+02 -0.18372156152E+02  0.27087152133E+03  0.27357345297E+03  0.00000000000E+00 0.  1.
</event>
<event>
12    1  0.8407180E-002  0.2492044E+03  0.7818608E-02  0.1113943E+00
         21   -1    0    0  503  502  0.00000000000E+00  0.00000000000E+00  0.74259086193E+02  0.74259086193E+02  0.00000000000E+00 0.  1.
         21   -1    0    0  501  503 -0.00000000000E+00 -0.00000000000E+00 -0.21587478463E+04  0.21587478463E+04  0.00000000000E+00 0.  1.
          6    2    1    2  501    0  0.76735416575E+01  0.17902515629E+03 -0.19163701176E+04  0.19323963735E+04  0.17196635356E+03 0.  0.
         24    2    3    3    0    0  0.24046339955E+02  0.18973391824E+02 -0.74278313398E+03  0.74782339812E+03  0.81085353651E+02 0.  0.
         -6    2    1    2    0  502 -0.76735416575E+01 -0.17902515629E+03 -0.16811864243E+03  0.30061055894E+03  0.17318758728E+03 0.  0.
        -24    2    5    5    0    0 -0.71864130039E+02 -0.12573362056E+03 -0.12253444357E+03  0.20542427525E+03  0.78810192704E+02 0.  0.
          5    1    3    3  501    0 -0.16372798297E+02  0.16005176447E+03 -0.11735869837E+04  0.11845729754E+04  0.47000000000E+01 0. -1.
        -13    1    4    4    0    0  0.30536088537E+02  0.23056637666E+02 -0.73754649606E+03  0.73853835046E+03  0.00000000000E+00 0.  1.
         14    1    4    4    0    0 -0.64897485826E+01 -0.40832458415E+01 -0.52366379183E+01  0.92850476550E+01  0.00000000000E+00 0. -1.
         -5    1    5    5    0  502  0.64190588381E+02 -0.53291535735E+02 -0.45584198853E+02  0.95186283691E+02  0.47000000000E+01 0.  1.
         11    1    6    6    0    0 -0.80878454677E+02 -0.11805166141E+03 -0.12835257418E+03  0.19222877644E+03  0.00000000000E+00 0. -1.
        -12    1    6    6    0    0  0.90143246384E+01 -0.76819591493E+01  0.58181306065E+01  0.13195498809E+02  0.00000000000E+00 0.  1.
</event>
<event>
12    1  0.8407180E-002  0.2154144E+03  0.7818608E-02  0.1139866E+00
         21   -1    0    0  503  502  0.00000000000E+00  0.00000000000E+00  0.65612958018E+03  0.65612958018E+03  0.00000000000E+00 0.  1.
         21   -1    0    0  501  503 -0.00000000000E+00 -0.00000000000E+00 -0.33046017871E+03  0.33046017871E+03  0.00000000000E+00 0. -1.
          6    2    1    2  501    0 -0.10946971897E+03 -0.10333800363E+02 -0.27890904555E+03  0.34478100106E+03  0.17027412076E+03 0.  0.
         24    2    3    3    0    0 -0.16630627265E+02  0.40791990695E+02 -0.87453253361E+02  0.12589666214E+03  0.79128589946E+02 0.  0.
         -6    2    1    2    0  502  0.10946971897E+03  0.10333800363E+02  0.60457844701E+03  0.64180875784E+03  0.18523762102E+03 0.  0.
        -24    2    5    5    0    0 -0.10046696148E+01 -0.15951073666E+02  0.12808642484E+03  0.15194936747E+03  0.80168771564E+02 0.  0.
          5    1    3    3  501    0 -0.92839091703E+02 -0.51125791058E+02 -0.19145579219E+03  0.21888433891E+03  0.47000000000E+01 0. -1.
        -11    1    4    4    0    0  0.13772868662E+02  0.44948717521E+01  0.99633109706E+01  0.17583041510E+02  0.00000000000E+00 0.  1.
         12    1    4    4    0    0 -0.30403495927E+02  0.36297118943E+02 -0.97416564331E+02  0.10831362063E+03  0.00000000000E+00 0. -1.
         -5    1    5    5    0  502  0.11047438858E+03  0.26284874028E+02  0.47649202218E+03  0.48985939037E+03  0.47000000000E+01 0.  1.
         11    1    6    6    0    0 -0.36060259408E+02  0.31379060792E+01  0.89018050846E+02  0.96095796680E+02  0.00000000000E+00 0. -1.
        -12    1    6    6    0    0  0.35055589793E+02 -0.19088979745E+02  0.39068373990E+02  0.55853570787E+02  0.00000000000E+00 0.  1.
</event>
<event>
12    1  0.8407180E-002  0.1900032E+03  0.7818608E-02  0.1159956E+00
         21   -1    0    0  503  502  0.00000000000E+00  0.00000000000E+00  0.90337890070E+02  0.90337890070E+02  0.00000000000E+00 0. -1.
         21   -1    0    0  501  503 -0.00000000000E+00 -0.00000000000E+00 -0.78243356678E+03  0.78243356678E+03  0.00000000000E+00 0.  1.
          6    2    1    2  501    0 -0.80609024535E+01  0.78991857322E+02 -0.65961610868E+03  0.68643617182E+03  0.17261667208E+03 0.  0.
         24    2    3    3    0    0  0.28497961998E+01  0.74414033145E+02 -0.66141602322E+03  0.67357811941E+03  0.10339611938E+03 0.  0.
         -6    2    1    2    0  502  0.80609024535E+01 -0.78991857322E+02 -0.32479568031E+02  0.18633528503E+03  0.16541228623E+03 0.  0.
        -24    2    5    5    0    0 -0.42327774000E+02 -0.69817369312E+02 -0.50505017405E+02  0.13183577338E+03  0.90353798208E+02 0.  0.
          5    1    3    3  501    0 -0.10910698653E+02  0.45778241777E+01  0.17999145479E+01  0.12858052406E+02  0.47000000000E+01 0. -1.
        -11    1    4    4    0    0  0.24850630918E+02  0.59895254990E+02 -0.17799914883E+03  0.18944311128E+03  0.00000000000E+00 0.  1.
         12    1    4    4    0    0 -0.22000834718E+02  0.14518778155E+02 -0.48341687439E+03  0.48413500813E+03  0.00000000000E+00 0. -1.
         -5    1    5    5    0  502  0.50388676453E+02 -0.91744880105E+01  0.18025449374E+02  0.54499511650E+02  0.47000000000E+01 0.  1.
         13    1    6    6    0    0  0.21570929963E+01 -0.63373104414E+02  0.10743941371E+01  0.63418906771E+02  0.00000000000E+00 0. -1.
        -14    1    6    6    0    0 -0.44484866996E+02 -0.64442648978E+01 -0.51579411542E+02  0.68416866610E+02  0.00000000000E+00 0.  1.
</event>
<event>
12    1  0.8407180E-002  0.2197700E+03  0.7818608E-02  0.1134904E+00
         21   -1    0    0  503  502  0.00000000000E+00  0.00000000000E+00  0.73217095486E+02  0.73217095486E+02  0.00000000000E+00 0. -1.
         21   -1    0    0  501  503 -0.00000000000E+00 -0.00000000000E+00 -0.74118663333E+03  0.74118663333E+03  0.00000000000E+00 0. -1.
          6    2    1    2  501    0 -0.77503403933E+02  0.10475701232E+03 -0.47671488651E+03  0.52306684687E+03  0.17135061723E+03 0.  0.
         24    2    3    3    0    0 -0.19435918791E+02  0.27445885555E+02 -0.91674259418E+02  0.12604390337E+03  0.79698583202E+02 0.  0.
         -6    2    1    2    0  502  0.77503403933E+02 -0.10475701232E+03 -0.19125465133E+03  0.29133688194E+03  0.17696900257E+03 0.  0.
        -24    2    5    5    0    0  0.99515219461E+02 -0.10586737038E+03 -0.81495770666E+02  0.17928843348E+03  0.66269168762E+02 0.  0.
          5    1    3    3  501    0 -0.58067485142E+02  0.77311126768E+02 -0.38504062709E+03  0.39702294350E+03  0.47000000000E+01 0. -1.
        -13    1    4    4    0    0  0.26637995293E+02  0.10372882387E+02 -0.62929529858E+02  0.69118052710E+02  0.00000000000E+00 0.  1.
         14    1    4    4    0    0 -0.46073914084E+02  0.17073003168E+02 -0.28744729559E+02  0.56925850662E+02  0.00000000000E+00 0. -1.
         -5    1    5    5    0  502 -0.22011815528E+02  0.11103580532E+01 -0.10975888067E+03  0.11204844846E+03  0.47000000000E+01 0.  1.
         13    1    6    6    0    0  0.46692691353E+02 -0.23906839687E+02 -0.59516107067E+02  0.79334175549E+02  0.00000000000E+00 0. -1.
        -14    1    6    6    0    0  0.52822528108E+02 -0.81960530690E+02 -0.21979663599E+02  0.99954257932E+02  0.00000000000E+00 0.  1.
</event>
<event>
12    1  0.8407180E-002  0.2250120E+03  0.7818608E-02  0.1131041E+00
         21   -1    0    0  503  502  0.00000000000E+00  0.00000000000E+00  0.15400465738E+03  0.15400465738E+03  0.00000000000E+00 0.  1.
         21   -1    0    0  501  503 -0.00000000000E+00 -0.00000000000E+00 -0.42970131963E+03  0.42970131963E+03  0.00000000000E+00 0. -1.
          6    2    1    2  501    0 -0.96440624326E+02  0.93221002462E+02 -0.28283292605E+03  0.35858082152E+03  0.17491367066E+03 0.  0.
         24    2    3    3    0    0 -0.57138355504E+02  0.15766021275E+02 -0.52334953264E+02  0.11221656294E+03  0.79625690383E+02 0.  0.
         -6    2    1    2    0  502  0.96440624326E+02 -0.93221002462E+02  0.71362637967E+01  0.22512515549E+03  0.18066394231E+03 0.  0.
        -24    2    5    5    0    0  0.22894593175E+01 -0.49500872416E+01 -0.40294834857E+02  0.87546103790E+02  0.77530004418E+02 0.  0.
          5    1    3    3  501    0 -0.39302268823E+02  0.77454981187E+02 -0.23049797278E+03  0.24636425857E+03  0.47000000000E+01 0. -1.
        -11    1    4    4    0    0 -0.40216926687E+02  0.46994317312E+02 -0.43493458284E+02  0.75614469285E+02  0.00000000000E+00 0.  1.
         12    1    4    4    0    0 -0.16921428817E+02 -0.31228296038E+02 -0.88414949796E+01  0.36602093657E+02  0.00000000000E+00 0. -1.
         -5    1    5    5    0  502  0.94151165009E+02 -0.88270915220E+02  0.47431098654E+02  0.13757905170E+03  0.47000000000E+01 0.  1.
         13    1    6    6    0    0  0.38776822901E+02 -0.81393842829E+00 -0.31039844837E+02  0.49676719473E+02  0.00000000000E+00 0. -1.
        -14    1    6    6    0    0 -0.36487363584E+02 -0.41361488134E+01 -0.92549900201E+01  0.37869384317E+02  0.00000000000E+00 0.  1.
</event>
<event>
12    1  0.8407180E-002  0.2054142E+03  0.7818608E-02  0.1145521E+00
         21   -1    0    0  501  502  0.00000000000E+00  0.00000000000E+00  0.16085124153E+03  0.16085124153E+03  0.00000000000E+00 0.  1.
         21   -1    0    0  502  503 -0.00000000000E+00 -0.00000000000E+00 -0.30877608450E+03  0.30877608450E+03  0.00000000000E+00 0.  1.
         -6    2    1    2    0  503 -0.10849447296E+03  0.27340446716E+02  0.18554062414E+02  0.20625045730E+03  0.17226853228E+03 0.  0.
        -24    2    3    3    0    0 -0.79233749892E+01  0.96210305080E+01 -0.40574729128E+02  0.88153770442E+02  0.77262115555E+02 0.  0.
          6    2    1    2  501    0  0.10849447296E+03 -0.27340446716E+02 -0.16647890539E+03  0.26337686872E+03  0.17068567119E+03 0.  0.
         24    2    5    5    0    0  0.93374021812E+02  0.43569251605E+02 -0.12274729123E+03  0.17857499707E+03  0.78772739193E+02 0.  0.
          5    1    5    5  501    0  0.15120451149E+02 -0.70909698321E+02 -0.43731614156E+02  0.84801871652E+02  0.47000000000E+01 0. -1.
        -11    1    6    6    0    0  0.19502759483E+02 -0.13840440356E+02 -0.63455607977E+02  0.67812459036E+02  0.00000000000E+00 0.  1.
         12    1    6    6    0    0  0.73871262329E+02  0.57409691961E+02 -0.59291683254E+02  0.11076253804E+03  0.00000000000E+00 0. -1.
         -5    1    3    3    0  503 -0.10057109797E+03  0.17719416208E+02  0.59128791541E+02  0.11809668686E+03  0.47000000000E+01 0.  1.
         13    1    4    4    0    0  0.34594354127E+02  0.86354509582E+01 -0.16573414666E+02  0.39319440794E+02  0.00000000000E+00 0. -1.
        -14    1    4    4    0    0 -0.42517729116E+02  0.98557954982E+00 -0.24001314462E+02  0.48834329648E+02  0.00000000000E+00 0.  1.
</event>
<event>
12    1  0.8407180E-002  0.2259926E+03  0.7818608E-02  0.1129797E+00
         21   -1    0    0  501  502  0.00000000000E+00  0.00000000000E+00  0.32434780518E+03  0.32434780518E+03  0.00000000000E+00 0.  1.
         21   -1    0    0  502  503 -0.00000000000E+00 -0.00000000000E+00 -0.16924585057E+03  0.16924585057E+03  0.00000000000E+00 0. -1.
         -6    2    1    2    0  503  0.79539703125E+02  0.12308731179E+03  0.95360428567E+01  0.22619372689E+03  0.17203376202E+03 0.  0.
        -24    2    3    3    0    0  0.37182816832E+02  0.89351198406E+01 -0.36763440589E+02  0.95845881064E+02  0.79827840500E+02 0.  0.
          6    2    1    2  501    0 -0.79539703125E+02 -0.12308731179E+03  0.14556591176E+03  0.26739992886E+03  0.16981235700E+03 0.  0.
         24    2    5    5    0    0  0.11196554868E+02 -0.53801668860E+02  0.11314704967E+03  0.14862854573E+03  0.79172011112E+02 0.  0.
          5    1    5    5  501    0 -0.90736257993E+02 -0.69285642935E+02  0.32418862086E+02  0.11877138313E+03  0.47000000000E+01 0. -1.
        -11    1    6    6    0    0 -0.17593305687E+01 -0.94406042349E+01  0.10016666733E+03  0.10062594843E+03  0.00000000000E+00 0.  1.
         12    1    6    6    0    0  0.12955885436E+02 -0.44361064625E+02  0.12980382338E+02  0.48002597302E+02  0.00000000000E+00 0. -1.
         -5    1    3    3    0  503  0.42356886293E+02  0.11415219195E+03  0.46299483446E+02  0.13034784583E+03  0.47000000000E+01 0.  1.
         13    1    4    4    0    0  0.11874976976E+02  0.37262483203E+02 -0.42128278791E+02  0.57483037554E+02  0.00000000000E+00 0. -1.
        -14    1    4    4    0    0  0.25307839856E+02 -0.28327363362E+02  0.53648382017E+01  0.38362843510E+02  0.00000000000E+00 0.  1.
</event>
<event>
12    1  0.8407180E-002  0.1985514E+03  0.7818608E-02  0.1151958E+00
         21   -1    0    0  501  502  0.00000000000E+00  0.00000000000E+00  0.10134397345E+03  0.10134397345E+03  0.00000000000E+00 0. -1.
         21   -1    0    0  502  503 -0.00000000000E+00 -0.00000000000E+00 -0.69534792802E+03  0.69534792802E+03  0.00000000000E+00 0. -1.
         -6    2    1    2    0  503 -0.85226466906E+02  0.50884042635E+02 -0.56713454090E+03  0.60088620229E+03  0.17195901884E+03 0.  0.
        -24    2    3    3    0    0  0.11307942740E+02  0.62465696196E+02 -0.29198546584E+03  0.30902642354E+03  0.78816149439E+02 0.  0.
          6    2    1    2  501    0  0.85226466906E+02 -0.50884042635E+02 -0.26869413675E+02  0.19580569918E+03  0.16662883900E+03 0.  0.
         24    2    5    5    0    0  0.12018478832E+03 -0.17360334313E+02 -0.23861826733E+02  0.14705060883E+03  0.79427515588E+02 0.  0.
          5    1    5    5  501    0 -0.34958321414E+02 -0.33523708322E+02 -0.30075869419E+01  0.48755090349E+02  0.47000000000E+01 0. -1.
        -13    1    6    6    0    0  0.12881331785E+02 -0.27221851136E+02 -0.25228057533E+02  0.39286292454E+02  0.00000000000E+00 0.  1.
         14    1    6    6    0    0  0.10730345654E+03  0.98615168231E+01  0.13662308002E+01  0.10776431638E+03  0.00000000000E+00 0. -1.
         -5    1    3    3    0  503 -0.96534409646E+02 -0.11581653560E+02 -0.27514907506E+03  0.29185977875E+03  0.47000000000E+01 0.  1.
         13    1    4    4    0    0 -0.29163559575E+02  0.48513840026E+02 -0.19419104337E+03  0.20227275449E+03  0.00000000000E+00 0. -1.
        -14    1    4    4    0    0  0.40471502315E+02  0.13951856170E+02 -0.97794422465E+02  0.10675366905E+03  0.00000000000E+00 0.  1.
</event>
<event>
12    1  0.8407180E-002  0.2108869E+03  0.7818608E-02  0.1141531E+00
         21   -1    0    0  503  502  0.00000000000E+00  0.00000000000E+00  0.33828211327E+03  0.33828211327E+03  0.00000000000E+00 0.  1.
         21   -1    0    0  501  503 -0.00000000000E+00 -0.00000000000E+00 -0.13074981411E+03  0.13074981411E+03  0.00000000000E+00 0.  1.
          6    2    1    2  501    0  0.66905969787E+02  0.96343794248E+02  0.12687403357E+03  0.24324653721E+03  0.17121133720E+03 0.  0.
         24    2    3    3    0    0 -0.16912684401E+02  0.79745606888E+02  0.10437562322E+03  0.15476300721E+03  0.80074446391E+02 0.  0.
         -6    2    1    2    0  502 -0.66905969787E+02 -0.96343794248E+02  0.80658265586E+02  0.22578539017E+03  0.17525624418E+03 0.  0.
        -24    2    5    5    0    0 -0.39868530155E+02  0.83081913325E+01  0.16423267025E+02  0.99962950726E+02  0.89801681934E+02 0.  0.
          5    1    3    3  501    0  0.83818654189E+02  0.16598187360E+02  0.22498410353E+02  0.88483530004E+02  0.47000000000E+01 0. -1.
        -11    1    4    4    0    0 -0.22859668216E+02  0.12089734265E+02  0.77537036131E+02  0.81735659767E+02  0.00000000000E+00 0.  1.
         12    1    4    4    0    0  0.59469838153E+01  0.67655872622E+02  0.26838587090E+02  0.73027347438E+02  0.00000000000E+00 0. -1.
         -5    1    5    5    0  502 -0.27037439632E+02 -0.10465198558E+03  0.64234998560E+02  0.12582243945E+03  0.47000000000E+01 0.  1.
         13    1    6    6    0    0  0.88099708491E+01 -0.26000540626E+02  0.28089749349E+02  0.39276936205E+02  0.00000000000E+00 0. -1.
        -14    1    6    6    0    0 -0.48678501004E+02  0.34308731958E+02 -0.11666482324E+02  0.60686014521E+02  0.00000000000E+00 0.  1.
</event>
<event>
12    1  0.8407180E-002  0.2041476E+03  0.7818608E-02  0.1146461E+00
         21   -1    0    0  503  502  0.00000000000E+00  0.00000000000E+00  0.11940089057E+03  0.11940089057E+03  0.00000000000E+00 0. -1.
         21   -1    0    0  501  503 -0.00000000000E+00 -0.00000000000E+00 -0.50560491638E+03  0.50560491638E+03  0.00000000000E+00 0. -1.
          6    2    1    2  501    0  0.11005972144E+03 -0.11509485992E+02 -0.36808156154E+03  0.42090413407E+03  0.17155361721E+03 0.  0.
         24    2    3    3    0    0  0.44628341288E+02 -0.68805620867E+02 -0.16211047153E+03  0.19727432278E+03  0.76885961897E+02 0.  0.
         -6    2    1    2    0  502 -0.11005972144E+03  0.11509485992E+02 -0.18122464264E+02  0.20410167288E+03  0.17053873053E+03 0.  0.
        -24    2    5    5    0    0 -0.79239713852E+02  0.70068972557E+02 -0.31982605981E+02  0.13632793266E+03  0.79836238466E+02 0.  0.
          5    1    3    3  501    0  0.65431380154E+02  0.57296134875E+02 -0.20597109001E+03  0.22362981130E+03  0.47000000000E+01 0. -1.
        -11    1    4    4    0    0 -0.18881462395E+02 -0.26002692385E+02 -0.73091153015E+02  0.79843385965E+02  0.00000000000E+00 0.  1.
         12    1    4    4    0    0  0.63509803683E+02 -0.42802928483E+02 -0.89019318518E+02  0.11743093681E+03  0.00000000000E+00 0. -1.
         -5    1    5    5    0  502 -0.30820007589E+02 -0.58559486565E+02  0.13860141717E+02  0.67773740217E+02  0.47000000000E+01 0.  1.
         13    1    6    6    0    0 -0.25479656210E+02 -0.14843384798E+02  0.36172422131E+01  0.29708978341E+02  0.00000000000E+00 0. -1.
        -14    1    6    6    0    0 -0.53760057642E+02  0.84912357356E+02 -0.35599848194E+02  0.10661895432E+03  0.00000000000E+00 0.  1.
</event>
<event>
12    1  0.8407180E-002  0.1856175E+03  0.7818608E-02  0.1162528E+00
         21   -1    0    0  503  502  0.00000000000E+00  0.00000000000E+00  0.33267332680E+03  0.33267332680E+03  0.00000000000E+00 0.  1.
         21   -1    0    0  501  503 -0.00000000000E+00 -0.00000000000E+00 -0.10828026219E+03  0.10828026219E+03  0.00000000000E+00 0.  1.
          6    2    1    2  501    0 -0.67590732726E+02  0.10077995736E+02  0.15889126311E+03  0.24433639611E+03  0.17257974338E+03 0.  0.
         24    2    3    3    0    0  0.10948391524E-01 -0.42068181431E+02  0.11742413171E+03  0.14930574806E+03  0.82061243518E+02 0.  0.
         -6    2    1    2    0  502  0.67590732726E+02 -0.10077995736E+02  0.65501801503E+02  0.19661719289E+03  0.17233038441E+03 0.  0.
        -24    2    5    5    0    0  0.55388783084E+02  0.33385574841E+02  0.97244484063E+02  0.14123075557E+03  0.79417395697E+02 0.  0.
          5    1    3    3  501    0 -0.67601681117E+02  0.52146177167E+02  0.41467131401E+02  0.95030648054E+02  0.47000000000E+01 0. -1.
        -13    1    4    4    0    0 -0.26726998767E+02  0.13887362116E+02  0.35492945667E+02  0.46550407966E+02  0.00000000000E+00 0.  1.
         14    1    4    4    0    0  0.26737947159E+02 -0.55955543547E+02  0.81931186039E+02  0.10275534009E+03  0.00000000000E+00 0. -1.
         -5    1    5    5    0  502  0.12201949641E+02 -0.43463570577E+02 -0.31742682560E+02  0.55386437315E+02  0.47000000000E+01 0.  1.
         13    1    6    6    0    0  0.27361513349E+02  0.11902416779E+02 -0.74388710570E+01  0.30751532328E+02  0.00000000000E+00 0. -1.
        -14    1    6    6    0    0  0.28027269736E+02  0.21483158062E+02  0.10468335512E+03  0.11047922324E+03  0.00000000000E+00 0.  1.
</event>
<event>
12    1  0.8407180E-002  0.2148889E+03  0.7818608E-02  0.1137935E+00
         21   -1    0    0  503  502  0.00000000000E+00  0.00000000000E+00  0.24694702862E+03  0.24694702862E+03  0.00000000000E+00 0.  1.
         21   -1    0    0  501  503 -0.00000000000E+00 -0.00000000000E+00 -0.18630960080E+03  0.18630960080E+03  0.00000000000E+00 0.  1.
          6    2    1    2  501    0  0.17453369968E+02  0.12755343491E+03  0.24388037026E+02  0.21626836176E+03  0.17205443635E+03 0.  0.
         24    2    3    3    0    0  0.63555311067E+02  0.32429405124E+02 -0.79424860620E+00  0.10750160431E+03  0.80405349436E+02 0.  0.
         -6    2    1    2    0  502 -0.17453369968E+02 -0.12755343491E+03  0.36249390799E+02  0.21698826766E+03  0.17086658857E+03 0.  0.
        -24    2    5    5    0    0 -0.11851946765E+02 -0.39662487970E+02  0.67530079154E+02  0.12341067441E+03  0.94637737572E+02 0.  0.
          5    1    3    3  501    0 -0.46101941099E+02  0.95124029786E+02  0.25182285632E+02  0.10876675745E+03  0.47000000000E+01 0. -1.
        -11    1    4    4    0    0  0.41637475544E+01  0.30915983141E+02 -0.28220479790E+02  0.42065785228E+02  0.00000000000E+00 0.  1.
         12    1    4    4    0    0  0.59391563513E+02  0.15134219831E+01  0.27426231184E+02  0.65435819087E+02  0.00000000000E+00 0. -1.
         -5    1    5    5    0  502 -0.56014232027E+01 -0.87890946939E+02 -0.31280688355E+02  0.93577593257E+02  0.47000000000E+01 0.  1.
         11    1    6    6    0    0  0.36245508553E+02 -0.90667104936E+00  0.44705255332E+02  0.57559697680E+02  0.00000000000E+00 0. -1.
        -12    1    6    6    0    0 -0.48097455319E+02 -0.38755816921E+02  0.22824823821E+02  0.65850976726E+02  0.00000000000E+00 0.  1.
</event>
<event>
12    1  0.8407180E-002  0.2276136E+03  0.7818608E-02  0.1128373E+00
         21   -1    0    0  503  502  0.00000000000E+00  0.00000000000E+00  0.10702283157E+03  0.10702283157E+03  0.00000000000E+00 0. -1.
         21   -1    0    0  501  503 -0.00000000000E+00 -0.00000000000E+00 -0.65714247543E+03  0.65714247543E+03  0.00000000000E+00 0.  1.
          6    2    1    2  501    0  0.40305777165E+02  0.14274567313E+03 -0.47152844785E+03  0.52359052626E+03  0.17264726810E+03 0.  0.
         24    2    3    3    0    0  0.79774734841E+02  0.12607476968E+03 -0.43711895484E+03  0.46843782142E+03  0.78116297823E+02 0.  0.
         -6    2    1    2    0  502 -0.40305777165E+02 -0.14274567313E+03 -0.78591196012E+02  0.24057478074E+03  0.17233329965E+03 0.  0.
        -24    2    5    5    0    0 -0.13761229289E+02 -0.11166245278E+03 -0.11956021893E+03  0.18251162161E+03  0.79736887832E+02 0.  0.
          5    1    3    3  501    0 -0.39468957675E+02  0.16670903458E+02 -0.34409493011E+02  0.55152704842E+02  0.47000000000E+01 0. -1.
        -11    1    4    4    0    0  0.38326426630E+02  0.10921548953E+03 -0.37072216732E+03  0.38837078092E+03  0.00000000000E+00 0.  1.
         12    1    4    4    0    0  0.41448308210E+02  0.16859280143E+02 -0.66396787518E+02  0.80067040492E+02  0.00000000000E+00 0. -1.
         -5    1    5    5    0  502 -0.26544547877E+02 -0.31083220353E+02  0.40969022915E+02  0.58063159129E+02  0.47000000000E+01 0.  1.
         11    1    6    6    0    0 -0.17983620939E+02 -0.83545590621E+01  0.51768022325E+01  0.20494110387E+02  0.00000000000E+00 0. -1.
        -12    1    6    6    0    0  0.42223916508E+01 -0.10330789372E+03 -0.12473702116E+03  0.16201751123E+03  0.00000000000E+00 0.  1.
</event>
<event>
12    1  0.8407180E-002  0.1816605E+03  0.7818608E-02  0.1166430E+00
         21   -1    0    0  501  502  0.00000000000E+00  0.00000000000E+00  0.29183628692E+02  0.29183628692E+02  0.00000000000E+00 0.  1.
         21   -1    0    0  502  503 -0.00000000000E+00 -0.00000000000E+00 -0.12417249583E+04  0.12417249583E+04  0.00000000000E+00 0.  1.
         -6    2    1    2    0  503 -0.52391676070E+02  0.27912737032E+02 -0.79970444823E+03  0.81987108702E+03  0.17069676680E+03 0.  0.
        -24    2    3    3    0    0  0.17659860077E+02  0.48379098921E+01 -0.62220142162E+03  0.62759763638E+03  0.80055656224E+02 0.  0.
          6    2    1    2  501    0  0.52391676070E+02 -0.27912737032E+02 -0.41283688142E+03  0.45103750001E+03  0.17168729467E+03 0.  0.
         24    2    5    5    0    0  0.97964769214E+02 -0.32715723455E+02 -0.25306584158E+03  0.28475806452E+03  0.79858753852E+02 0.  0.
          5    1    5    5  501    0 -0.45573093144E+02  0.48029864225E+01 -0.15977103983E+03  0.16627943549E+03  0.47000000000E+01 0. -1.
        -13    1    6    6    0    0  0.90587979507E+02 -0.55660963844E+02 -0.21111413784E+03  0.23637576890E+03  0.00000000000E+00 0.  1.
         14    1    6    6    0    0  0.73767897069E+01  0.22945240389E+02 -0.41951703747E+02  0.48382295627E+02  0.00000000000E+00 0. -1.
         -5    1    3    3    0  503 -0.70051536147E+02  0.23074827140E+02 -0.17750302661E+03  0.19227345064E+03  0.47000000000E+01 0.  1.
         13    1    4    4    0    0  0.12701124222E+02 -0.30901487207E+02 -0.13540686033E+03  0.13946769624E+03  0.00000000000E+00 0. -1.
        -14    1    4    4    0    0  0.49587358543E+01  0.35739397099E+02 -0.48679456129E+03  0.48812994015E+03  0.00000000000E+00 0.  1.
</event>
<event>
12    1  0.8407180E-002  0.3171891E+03  0.7818608E-02  0.1076978E+00
         21   -1    0    0  501  502  0.00000000000E+00  0.00000000000E+00  0.99341992638E+03  0.99341992638E+03  0.00000000000E+00 0. -1.
         21   -1    0    0  502  503 -0.00000000000E+00 -0.00000000000E+00 -0.14002537993E+03  0.14002537993E+03  0.00000000000E+00 0.  1.
         -6    2    1    2    0  503 -0.11199685925E+03  0.24136160682E+03  0.12839071606E+03  0.34218871737E+03  0.17265636564E+03 0.  0.
        -24    2    3    3    0    0 -0.27102723809E+02  0.13194562174E+03 -0.63825636136E+00  0.15284923985E+03  0.72237649582E+02 0.  0.
          6    2    1    2  501    0  0.11199685925E+03 -0.24136160682E+03  0.72500383038E+03  0.79125658894E+03  0.17221415082E+03 0.  0.
         24    2    5    5    0    0  0.83286485207E+02 -0.54537316440E+02  0.30789729482E+03  0.33329637990E+03  0.79842189321E+02 0.  0.
          5    1    5    5  501    0  0.28710374046E+02 -0.18682429038E+03  0.41710653557E+03  0.45796020904E+03  0.47000000000E+01 0. -1.
        -11    1    6    6    0    0  0.41896118103E+02  0.16795680207E+02  0.10728486711E+03  0.11639339455E+03  0.00000000000E+00 0.  1.
         12    1    6    6    0    0  0.41390367104E+02 -0.71332996647E+02  0.20061242771E+03  0.21690298535E+03  0.00000000000E+00 0. -1.
         -5    1    3    3    0  503 -0.84894135443E+02  0.10941598508E+03  0.12902897242E+03  0.18933947752E+03  0.47000000000E+01 0.  1.
         11    1    4    4    0    0 -0.44048035895E+02  0.12640477618E+03 -0.66771346878E+01  0.13402604610E+03  0.00000000000E+00 0. -1.
        -12    1    4    4    0    0  0.16945312086E+02  0.55408455583E+01  0.60388783264E+01  0.18823193741E+02  0.00000000000E+00 0.  1.
</event>
<event>
12    1  0.8407180E-002  0.1996317E+03  0.7818608E-02  0.1150082E+00
         21   -1    0    0  501  502  0.00000000000E+00  0.00000000000E+00  0.12433221591E+03  0.12433221591E+03  0.00000000000E+00 0. -1.
         21   -1    0    0  502  503 -0.00000000000E+00 -0.00000000000E+00 -0.38757631174E+03  0.38757631174E+03  0.00000000000E+00 0.  1.
         -6    2    1    2    0  503 -0.43080371140E+02  0.91481592896E+02 -0.25020057303E+02  0.20119351865E+03  0.17212794213E+03 0.  0.
        -24    2    3    3    0    0 -0.25709953050E+02  0.12983678003E+03 -0.47760094975E+01  0.15423861181E+03  0.79045227397E+02 0.  0.
          6    2    1    2  501    0  0.43080371140E+02 -0.91481592896E+02 -0.23822403853E+03  0.31071500900E+03  0.17195442440E+03 0.  0.
         24    2    5    5    0    0  0.71206501641E+02 -0.83436337010E+02 -0.98071294648E+02  0.16746457453E+03  0.79965096632E+02 0.  0.
          5    1    5    5  501    0 -0.28126130502E+02 -0.80452558854E+01 -0.14015274388E+03  0.14325043447E+03  0.47000000000E+01 0. -1.
        -11    1    6    6    0    0  0.75980685158E+02 -0.29425829701E+02 -0.60945699986E+02  0.10175127674E+03  0.00000000000E+00 0.  1.
         12    1    6    6    0    0 -0.47741835168E+01 -0.54010507310E+02 -0.37125594662E+02  0.65713297795E+02  0.00000000000E+00 0. -1.
         -5    1    3    3    0  503 -0.17370418090E+02 -0.38355187130E+02 -0.20244047806E+02  0.46954906836E+02  0.47000000000E+01 0.  1.
         13    1    4    4    0    0 -0.53877942238E+02  0.72987654410E+02 -0.26857721962E+01  0.90759262493E+02  0.00000000000E+00 0. -1.
        -14    1    4    4    0    0  0.28167989188E+02  0.56849125616E+02 -0.20902373013E+01  0.63479349320E+02  0.00000000000E+00 0.  1.
</event>
<event>
12    1  0.8407180E-002  0.2041075E+03  0.7818608E-02  0.1146649E+00
         21   -1    0    0  503  502  0.00000000000E+00  0.00000000000E+00  0.40850296106E+02  0.40850296106E+02  0.00000000000E+00 0.  1.
         21   -1    0    0  501  503 -0.00000000000E+00 -0.00000000000E+00 -0.24860765106E+04  0.24860765106E+04  0.00000000000E+00 0.  1.
          6    2    1    2  501    0  0.10288106561E+03  0.24111021534E+02 -0.21975118710E+04  0.22069703860E+04  0.17462533180E+03 0.  0.
         24    2    3    3    0    0  0.58917723342E+02  0.72150934040E+02 -0.17976087247E+04  0.18017726255E+04  0.79438099603E+02 0.  0.
         -6    2    1    2    0  502 -0.10288106561E+03 -0.24111021534E+02 -0.24771434347E+03  0.31995642067E+03  0.17275375582E+03 0.  0.
        -24    2    5    5    0    0 -0.10710112347E+03 -0.37717344895E+02 -0.26380656045E+03  0.29795663952E+03  0.79315880776E+02 0.  0.
          5    1    3    3  501    0  0.43963342267E+02 -0.48039912506E+02 -0.39990314634E+03  0.40519776049E+03  0.47000000000E+01 0. -1.
        -11    1    4    4    0    0  0.55364510823E+02  0.88329969228E+02 -0.14323884677E+04  0.14361769163E+04  0.00000000000E+00 0.  1.
         12    1    4    4    0    0  0.35532125189E+01 -0.16179035187E+02 -0.36522025700E+03  0.36559570925E+03  0.00000000000E+00 0. -1.
         -5    1    5    5    0  502  0.42200578598E+01  0.13606323361E+02  0.16092216978E+02  0.21999781158E+02  0.47000000000E+01 0.  1.
         11    1    6    6    0    0 -0.13495212524E+02 -0.24763953220E+02 -0.13665678326E+03  0.13953655633E+03  0.00000000000E+00 0. -1.
        -12    1    6    6    0    0 -0.93605910944E+02 -0.12953391675E+02 -0.12714977718E+03  0.15842008319E+03  0.00000000000E+00 0.  1.
</event>
<event>
12    1  0.8407180E-002  0.2594064E+03  0.7818608E-02  0.1107552E+00
         21   -1    0    0  501  502  0.00000000000E+00  0.00000000000E+00  0.61493244283E+03  0.61493244283E+03  0.00000000000E+00 0. -1.
         21   -1    0    0  502  503 -0.00000000000E+00 -0.00000000000E+00 -0.12125552311E+03  0.12125552311E+03  0.00000000000E+00 0.  1.
         -6    2    1    2    0  503  0.19418392329E+03 -0.91573001646E+01  0.13132647868E+03  0.29075470681E+03  0.17175681448E+03 0.  0.
        -24    2    3    3    0    0  0.12718815095E+03  0.54955025037E+02  0.48020734288E+02  0.16601192825E+03  0.77827301643E+02 0.  0.
          6    2    1    2  501    0 -0.19418392329E+03  0.91573001646E+01  0.36235044104E+03  0.44543325913E+03  0.17123578482E+03 0.  0.
         24    2    5    5    0    0 -0.52303577518E+02  0.21853304604E+02  0.23999934206E+03  0.25759529048E+03  0.74447419992E+02 0.  0.
          5    1    5    5  501    0 -0.14188034577E+03 -0.12696004439E+02  0.12235109898E+03  0.18783796865E+03  0.47000000000E+01 0. -1.
        -11    1    6    6    0    0 -0.51319621780E+02  0.13224310496E+02  0.72153641370E+02  0.89525046387E+02  0.00000000000E+00 0.  1.
         12    1    6    6    0    0 -0.98395573842E+00  0.86289941080E+01  0.16784570069E+03  0.16807024409E+03  0.00000000000E+00 0. -1.
         -5    1    3    3    0  503  0.66995772334E+02 -0.64112325202E+02  0.83305744389E+02  0.12474277856E+03  0.47000000000E+01 0.  1.
         13    1    4    4    0    0  0.11263657999E+02  0.22940988186E+02  0.37375507882E+02  0.45277892176E+02  0.00000000000E+00 0. -1.
        -14    1    4    4    0    0  0.11592449296E+03  0.32014036851E+02  0.10645226406E+02  0.12073403608E+03  0.00000000000E+00 0.  1.
</event>
<event>
12    1  0.8407180E-002  0.2061059E+03  0.7818608E-02  0.1144819E+00
         21   -1    0    0  503  502  0.00000000000E+00  0.00000000000E+00  0.41478249782E+02  0.41478249782E+02  0.00000000000E+00 0.  1.
         21   -1    0    0  501  503 -0.00000000000E+00 -0.00000000000E+00 -0.12304868319E+04  0.12304868319E+04  0.00000000000E+00 0. -1.
          6    2    1    2  501    0  0.96203439050E+02  0.58176769374E+02 -0.85774646583E+03  0.88216135175E+03  0.17274261982E+03 0.  0.
         24    2    3    3    0    0  0.57816289244E+01 -0.54466590344E+01 -0.53420371087E+03  0.54021684065E+03  0.79984604034E+02 0.  0.
         -6    2    1    2    0  502 -0.96203439050E+02 -0.58176769374E+02 -0.33126211632E+03  0.38980372996E+03  0.17196720619E+03 0.  0.
        -24    2    5    5    0    0 -0.85341356470E+02 -0.52326957110E+02 -0.34669767573E+03  0.36949236281E+03  0.79398175409E+02 0.  0.
          5    1    3    3  501    0  0.90421810126E+02  0.63623428408E+02 -0.32354275496E+03  0.34194451111E+03  0.47000000000E+01 0. -1.
        -11    1    4    4    0    0 -0.17155473698E+02  0.72177556165E+01 -0.29810661607E+02  0.35143730869E+02  0.00000000000E+00 0.  1.
         12    1    4    4    0    0  0.22937102622E+02 -0.12664414651E+02 -0.50439304926E+03  0.50507310978E+03  0.00000000000E+00 0. -1.
         -5    1    5    5    0  502 -0.10862082580E+02 -0.58498122635E+01  0.15435559404E+02  0.20311367152E+02  0.47000000000E+01 0.  1.
         13    1    6    6    0    0 -0.12187551486E+02  0.16032501284E+02 -0.11987403016E+03  0.12155394118E+03  0.00000000000E+00 0. -1.
        -14    1    6    6    0    0 -0.73153804984E+02 -0.68359458394E+02 -0.22682364556E+03  0.24793842163E+03  0.00000000000E+00 0.  1.
</event>
<event>
12    1  0.8407180E-002  0.1917978E+03  0.7818608E-02  0.1157068E+00
         21   -1    0    0  501  502  0.00000000000E+00  0.00000000000E+00  0.74755451472E+03  0.74755451472E+03  0.00000000000E+00 0.  1.
         21   -1    0    0  502  503 -0.00000000000E+00 -0.00000000000E+00 -0.85128113496E+02  0.85128113496E+02  0.00000000000E+00 0.  1.
         -6    2    1    2    0  503 -0.75119833109E+02 -0.36834975169E+02  0.59344816772E+02  0.19983682361E+03  0.17150260660E+03 0.  0.
        -24    2    3    3    0    0 -0.23757727534E+02  0.31400550848E+02  0.68849882977E+02  0.11377528061E+03  0.81572568192E+02 0.  0.
          6    2    1    2  501    0  0.75119833109E+02  0.36834975169E+02  0.60308158445E+03  0.63284580460E+03  0.17258797808E+03 0.  0.
         24    2    5    5    0    0  0.73145529174E+02 -0.39818076851E+02  0.36573991296E+03  0.38338088264E+03  0.79243104208E+02 0.  0.
          5    1    5    5  501    0  0.19743039345E+01  0.76653052020E+02  0.23734167149E+03  0.24946492196E+03  0.47000000000E+01 0. -1.
        -11    1    6    6    0    0  0.23357640228E+01  0.14926926044E+02  0.13575781412E+03  0.13659594800E+03  0.00000000000E+00 0.  1.
         12    1    6    6    0    0  0.70809765152E+02 -0.54745002895E+02  0.22998209883E+03  0.24678493464E+03  0.00000000000E+00 0. -1.
         -5    1    3    3    0  503 -0.51362105575E+02 -0.68235526017E+02 -0.95050662057E+01  0.86061543000E+02  0.47000000000E+01 0.  1.
         11    1    4    4    0    0 -0.51367452152E+02  0.39407899813E+01  0.42100305410E+02  0.66532553550E+02  0.00000000000E+00 0. -1.
        -12    1    4    4    0    0  0.27609724618E+02  0.27459760866E+02  0.26749577568E+02  0.47242727063E+02  0.00000000000E+00 0.  1.
</event>
<event>
12    1  0.8407180E-002  0.1765254E+03  0.7818608E-02  0.1171845E+00
         21   -1    0    0  503  502  0.00000000000E+00  0.00000000000E+00  0.11009579524E+04  0.11009579524E+04  0.00000000000E+00 0. -1.
         21   -1    0    0  501  503 -0.00000000000E+00 -0.00000000000E+00 -0.31160779182E+02  0.31160779182E+02  0.00000000000E+00 0. -1.
          6    2    1    2  501    0 -0.22644225658E+02  0.91382773731E+01  0.34824545786E+03  0.38928760597E+03  0.17226047767E+03 0.  0.
         24    2    3    3    0    0  0.41908002985E+01 -0.60640853281E+02  0.14012818204E+03  0.16809959502E+03  0.70190387866E+02 0.  0.
         -6    2    1    2    0  502  0.22644225658E+02 -0.91382773731E+01  0.72155171534E+03  0.74283112560E+03  0.17482829914E+03 0.  0.
        -24    2    5    5    0    0  0.25318223580E+02  0.63440471432E+02  0.46013860509E+03  0.47147576956E+03  0.76786454035E+02 0.  0.
          5    1    3    3  501    0 -0.26835025956E+02  0.69779130654E+02  0.20811727582E+03  0.22118801095E+03  0.47000000000E+01 0. -1.
        -13    1    4    4    0    0  0.12694827886E+02 -0.11501454288E+02  0.10669130033E+03  0.10805774230E+03  0.00000000000E+00 0.  1.
         14    1    4    4    0    0 -0.85040275876E+01 -0.49139398992E+02  0.33436881712E+02  0.60041852712E+02  0.00000000000E+00 0. -1.
         -5    1    5    5    0  502 -0.26739979220E+01 -0.72578748805E+02  0.26141311025E+03  0.27135535604E+03  0.47000000000E+01 0.  1.
         13    1    6    6    0    0 -0.11412789438E+02 -0.10469205782E+02  0.33223792319E+02  0.36656191954E+02  0.00000000000E+00 0. -1.
        -14    1    6    6    0    0  0.36731013018E+02  0.73909677213E+02  0.42691481277E+03  0.43481957760E+03  0.00000000000E+00 0.  1.
</event>
<event>
12    1  0.8407180E-002  0.1954375E+03  0.7818608E-02  0.1154644E+00
         21   -1    0    0  501  502  0.00000000000E+00  0.00000000000E+00  0.30139386209E+02  0.30139386209E+02  0.00000000000E+00 0. -1.
         21   -1    0    0  502  503 -0.00000000000E+00 -0.00000000000E+00 -0.16222451115E+04  0.16222451115E+04  0.00000000000E+00 0.  1.
         -6    2    1    2    0  503  0.80172118981E+02 -0.53079940806E+02 -0.40115074026E+03  0.44622608249E+03  0.17014920365E+03 0.  0.
        -24    2    3    3    0    0  0.14642609013E+02  0.18739121445E+02 -0.27329040812E+03  0.28553243322E+03  0.79218448484E+02 0.  0.
          6    2    1    2  501    0 -0.80172118981E+02  0.53079940806E+02 -0.11909549850E+04  0.12061584152E+04  0.16492209513E+03 0.  0.
         24    2    5    5    0    0 -0.10625557438E+03  0.22100775520E+01 -0.78202478938E+03  0.79322490417E+03  0.79673369853E+02 0.  0.
          5    1    5    5  501    0  0.26083455397E+02  0.50869863254E+02 -0.40893019560E+03  0.41293351100E+03  0.47000000000E+01 0. -1.
        -13    1    6    6    0    0 -0.82751224791E+02 -0.33469807783E+02 -0.56878887506E+03  0.57575062104E+03  0.00000000000E+00 0.  1.
         14    1    6    6    0    0 -0.23504349587E+02  0.35679885335E+02 -0.21323591431E+03  0.21747428312E+03  0.00000000000E+00 0. -1.
         -5    1    3    3    0  503  0.65529509968E+02 -0.71819062251E+02 -0.12786033214E+03  0.16069364927E+03  0.47000000000E+01 0.  1.
         11    1    4    4    0    0  0.30695651360E+01  0.27859924728E+02 -0.27384909405E+02  0.39185850751E+02  0.00000000000E+00 0. -1.
        -12    1    4    4    0    0  0.11573043877E+02 -0.91208032821E+01 -0.24590549871E+03  0.24634658247E+03  0.00000000000E+00 0.  1.
</event>
<event>
12    1  0.8407180E-002  0.2144584E+03  0.7818608E-02  0.1138184E+00
         21   -1    0    0  501  502  0.00000000000E+00  0.00000000000E+00  0.11768378576E+03  0.11768378576E+03  0.00000000000E+00 0.  1.
         21   -1    0    0  502  503 -0.00000000000E+00 -0.00000000000E+00 -0.39965603470E+03  0.39965603470E+03  0.00000000000E+00 0. -1.
         -6    2    1    2    0  503 -0.59537502217E+01 -0.12757044182E+03 -0.18131948502E+03  0.28043606062E+03  0.17163322428E+03 0.  0.
        -24    2    3    3    0    0 -0.22961489157E+02 -0.24596300156E+02 -0.14638565933E+03  0.17027527262E+03  0.80204109880E+02 0.  0.
          6    2    1    2  501    0  0.59537502217E+01  0.12757044182E+03 -0.10065276391E+03  0.23690375984E+03  0.17228681835E+03 0.  0.
         24    2    5    5    0    0 -0.33149423189E+02  0.12582898893E+03 -0.29796710008E+02  0.15581885864E+03  0.80373217346E+02 0.  0.
          5    1    5    5  501    0  0.39103173410E+02  0.17414528920E+01 -0.70856053899E+02  0.81084901203E+02  0.47000000000E+01 0. -1.
        -11    1    6    6    0    0  0.15643743191E+02  0.92217917803E+02 -0.21692516655E+02  0.96017895956E+02  0.00000000000E+00 0.  1.
         12    1    6    6    0    0 -0.48793166379E+02  0.33611071126E+02 -0.81041933533E+01  0.59800962680E+02  0.00000000000E+00 0. -1.
         -5    1    3    3    0  503  0.17007738936E+02 -0.10297414166E+03 -0.34933825692E+02  0.11016078800E+03  0.47000000000E+01 0.  1.
         13    1    4    4    0    0 -0.23895990262E+02  0.26276594903E+02 -0.69991741577E+02  0.78487716741E+02  0.00000000000E+00 0. -1.
        -14    1    4    4    0    0  0.93450110471E+00 -0.50872895059E+02 -0.76393917756E+02  0.91787555879E+02  0.00000000000E+00 0.  1.
</event>
<event>
12    1  0.8407180E-002  0.3184524E+03  0.7818608E-02  0.1076400E+00
         21   -1    0    0  503  502  0.00000000000E+00  0.00000000000E+00  0.85232177720E+02  0.85232177720E+02  0.00000000000E+00 0.  1.
         21   -1    0    0  501  503 -0.00000000000E+00 -0.00000000000E+00 -0.19018426825E+04  0.19018426825E+04  0.00000000000E+00 0.  1.
          6    2    1    2  501    0 -0.19779137918E+03 -0.18001302518E+03 -0.15169849929E+04  0.15500501245E+04  0.17287510139E+03 0.  0.
         24    2    3    3    0    0 -0.14175176731E+03 -0.15626231210E+03 -0.14002606783E+04  0.14183262083E+04  0.80048686273E+02 0.  0.
         -6    2    1    2    0  502  0.19779137918E+03  0.18001302518E+03 -0.29962551184E+03  0.43702473574E+03  0.17230511714E+03 0.  0.
        -24    2    5    5    0    0  0.28208080372E+02  0.65252954844E+02 -0.56863937059E+02  0.11940288327E+03  0.77265110372E+02 0.  0.
          5    1    3    3  501    0 -0.56039611868E+02 -0.23750713078E+02 -0.11672431459E+03  0.13172391615E+03  0.47000000000E+01 0. -1.
        -11    1    4    4    0    0 -0.25733599731E+02 -0.10392171381E+01 -0.83495779153E+02  0.87377590169E+02  0.00000000000E+00 0.  1.
         12    1    4    4    0    0 -0.11601816758E+03 -0.15522309496E+03 -0.13167648992E+04  0.13309486182E+04  0.00000000000E+00 0. -1.
         -5    1    5    5    0  502  0.16958329881E+03  0.11476007033E+03 -0.24276157479E+03  0.31762185248E+03  0.47000000000E+01 0.  1.
         11    1    6    6    0    0  0.99355555583E+01  0.44876278608E+02 -0.73999182550E+02  0.87111851455E+02  0.00000000000E+00 0. -1.
        -12    1    6    6    0    0  0.18272524814E+02  0.20376676236E+02  0.17135245491E+02  0.32291031813E+02  0.00000000000E+00 0.  1.
</event>
<event>
12    1  0.8407180E-002  0.1809280E+03  0.7818608E-02  0.1167120E+00
         21   -1    0    0  503  502  0.00000000000E+00  0.00000000000E+00  0.20460051591E+02  0.20460051591E+02  0.00000000000E+00 0.  1.
         21   -1    0    0  501  503 -0.00000000000E+00 -0.00000000000E+00 -0.16809974412E+04  0.16809974412E+04  0.00000000000E+00 0.  1.
          6    2    1    2  501    0 -0.96520952768E+01 -0.46907854854E+02 -0.63279552340E+03  0.65791148557E+03  0.17356220389E+03 0.  0.
         24    2    3    3    0    0  0.41590408998E+02 -0.62162326579E+02 -0.53210325852E+03  0.54380839465E+03  0.83664660362E+02 0.  0.
         -6    2    1    2    0  502  0.96520952768E+01  0.46907854854E+02 -0.10277418662E+04  0.10435460072E+04  0.17447468537E+03 0.  0.
        -24    2    5    5    0    0  0.58785187667E+02  0.18996891724E+02 -0.34940911149E+03  0.36284746987E+03  0.75861577968E+02 0.  0.
          5    1    3    3  501    0 -0.51242504275E+02  0.15254471725E+02 -0.10069226488E+03  0.11410309093E+03  0.47000000000E+01 0. -1.
        -11    1    4    4    0    0 -0.23290463267E+02 -0.33630055790E+02 -0.17218507363E+03  0.17697775542E+03  0.00000000000E+00 0.  1.
         12    1    4    4    0    0  0.64880872266E+02 -0.28532270788E+02 -0.35991818489E+03  0.36683063923E+03  0.00000000000E+00 0. -1.
         -5    1    5    5    0  502 -0.49133092391E+02  0.27910963130E+02 -0.67833275471E+03  0.68069853735E+03  0.47000000000E+01 0.  1.
         11    1    6    6    0    0  0.28889038644E+02 -0.16238200295E+02 -0.26095202372E+03  0.26304793173E+03  0.00000000000E+00 0. -1.
        -12    1    6    6    0    0  0.29896149023E+02  0.35235092018E+02 -0.88457087772E+02  0.99799538141E+02  0.00000000000E+00 0.  1.
</event>
<event>
12    1  0.8407180E-002  0.1953813E+03  0.7818608E-02  0.1153714E+00
         21   -1    0    0  503  502  0.00000000000E+00  0.00000000000E+00  0.12345807552E+03  0.12345807552E+03  0.00000000000E+00 0.  1.
         21   -1    0    0  501  503 -0.00000000000E+00 -0.00000000000E+00 -0.30947382916E+03  0.30947382916E+03  0.00000000000E+00 0. -1.
          6    2    1    2  501    0 -0.34530476316E+02 -0.87313028623E+02 -0.85156709303E+02  0.21305379551E+03  0.17124349880E+03 0.  0.
         24    2    3    3    0    0 -0.28591387805E+02 -0.67533168732E+02  0.15409427691E+02  0.11028145712E+03  0.80909535821E+02 0.  0.
         -6    2    1    2    0  502  0.34530476316E+02  0.87313028623E+02 -0.10085904434E+03  0.21987810917E+03  0.17134152241E+03 0.  0.
        -24    2    5    5    0    0  0.44597160477E+01  0.79227525636E+02 -0.13348362485E+03  0.17453409925E+03  0.79670470153E+02 0.  0.
          5    1    3    3  501    0 -0.59390885105E+01 -0.19779859891E+02 -0.10056613699E+03  0.10277233840E+03  0.47000000000E+01 0. -1.
        -11    1    4    4    0    0 -0.14897388041E+02  0.17403159254E+02  0.17111985303E+00  0.22909199124E+02  0.00000000000E+00 0.  1.
         12    1    4    4    0    0 -0.13693999764E+02 -0.84936327986E+02  0.15238307838E+02  0.87372257995E+02  0.00000000000E+00 0. -1.
         -5    1    5    5    0  502  0.30070760268E+02  0.80855029870E+01  0.32624580507E+02  0.45344009912E+02  0.47000000000E+01 0.  1.
         13    1    6    6    0    0  0.31616505701E+02  0.14768797917E+02 -0.17368829230E+02  0.38979443987E+02  0.00000000000E+00 0. -1.
        -14    1    6    6    0    0 -0.27156789654E+02  0.64458727719E+02 -0.11611479562E+03  0.13555465527E+03  0.00000000000E+00 0.  1.
</event>
<event>
12    1  0.8407180E-002  0.1798219E+03  0.7818608E-02  0.1169423E+00
         21   -1    0    0  503  502  0.00000000000E+00  0.00000000000E+00  0.43430474456E+03  0.43430474456E+03  0.00000000000E+00 0. -1.
         21   -1    0    0  501  503 -0.00000000000E+00 -0.00000000000E+00 -0.18677465721E+03  0.18677465721E+03  0.00000000000E+00 0. -1.
          6    2    1    2  501    0 -0.29378856603E+02 -0.84899111568E+01 -0.11881734635E+03  0.21553067911E+03  0.17720247187E+03 0.  0.
         24    2    3    3    0    0  0.13847898931E+02  0.53290128269E+02 -0.98940769850E+02  0.13741221805E+03  0.77853963641E+02 0.  0.
         -6    2    1    2    0  502  0.29378856603E+02  0.84899111568E+01  0.36634743370E+03  0.40554872266E+03  0.17124289319E+03 0.  0.
        -24    2    5    5    0    0  0.68409475895E+01 -0.56742405070E+02  0.25889093767E+03  0.27775122284E+03  0.82793267128E+02 0.  0.
          5    1    3    3  501    0 -0.43226755534E+02 -0.61780039426E+02 -0.19876576496E+02  0.78118461062E+02  0.47000000000E+01 0. -1.
        -13    1    4    4    0    0 -0.24954087229E+02  0.19814377590E+02 -0.77258571096E+01  0.32787267297E+02  0.00000000000E+00 0.  1.
         14    1    4    4    0    0  0.38801986160E+02  0.33475750679E+02 -0.91214912741E+02  0.10462495075E+03  0.00000000000E+00 0. -1.
         -5    1    5    5    0  502  0.22537909013E+02  0.65232316227E+02  0.10745649603E+03  0.12779749982E+03  0.47000000000E+01 0.  1.
         13    1    6    6    0    0  0.17006794491E+02  0.16767963196E+02  0.93007759596E+02  0.96025199784E+02  0.00000000000E+00 0. -1.
        -14    1    6    6    0    0 -0.10165846901E+02 -0.73510368267E+02  0.16588317808E+03  0.18172602305E+03  0.00000000000E+00 0.  1.
</event>
<event>
12    1  0.8407180E-002  0.2172451E+03  0.7818608E-02  0.1136320E+00
         21   -1    0    0  503  502  0.00000000000E+00  0.00000000000E+00  0.14831166240E+03  0.14831166240E+03  0.00000000000E+00 0. -1.
         21   -1    0    0  501  503 -0.00000000000E+00 -0.00000000000E+00 -0.32495724790E+03  0.32495724790E+03  0.00000000000E+00 0.  1.
          6    2    1    2  501    0  0.97959750500E+02  0.89297772668E+02 -0.47367475933E+02  0.22046804284E+03  0.16968286659E+03 0.  0.
         24    2    3    3    0    0  0.11473695200E+03  0.20929220354E+02 -0.48417363032E+02  0.14990653989E+03  0.80778272073E+02 0.  0.
         -6    2    1    2    0  502 -0.97959750500E+02 -0.89297772668E+02 -0.12927810956E+03  0.25280086746E+03  0.17211985375E+03 0.  0.
        -24    2    5    5    0    0 -0.62915645440E+02  0.52171768151E+01 -0.11191087822E+03  0.15040518542E+03  0.78179778482E+02 0.  0.
          5    1    3    3  501    0 -0.16777201502E+02  0.68368552314E+02  0.10498870993E+01  0.70561502950E+02  0.47000000000E+01 0. -1.
        -13    1    4    4    0    0  0.18723430480E+02  0.32869972555E+01 -0.48706978419E+02  0.52285188597E+02  0.00000000000E+00 0.  1.
         14    1    4    4    0    0  0.96013521522E+02  0.17642223099E+02  0.28961538705E+00  0.97621351291E+02  0.00000000000E+00 0. -1.
         -5    1    5    5    0  502 -0.35044105060E+02 -0.94514949483E+02 -0.17367231344E+02  0.10239568204E+03  0.47000000000E+01 0.  1.
         13    1    6    6    0    0 -0.35670943849E+02  0.30642691125E+02 -0.19767246459E+02  0.51011124150E+02  0.00000000000E+00 0. -1.
        -14    1    6    6    0    0 -0.27244701590E+02 -0.25425514310E+02 -0.92143631758E+02  0.99394061272E+02  0.00000000000E+00 0.  1.
</event>
<event>
12    1  0.8407180E-002  0.2409849E+03  0.7818608E-02  0.1119307E+00
         21   -1    0    0  503  502  0.00000000000E+00  0.00000000000E+00  0.17879882856E+04  0.17879882856E+04  0.00000000000E+00 0.  1.
         21   -1    0    0  501  503 -0.00000000000E+00 -0.00000000000E+00 -0.86338304708E+02  0.86338304708E+02  0.00000000000E+00 0. -1.
          6    2    1    2  501    0 -0.14964649936E+03  0.77104929804E+02  0.11037535538E+03  0.26505928308E+03  0.17243682756E+03 0.  0.
         24    2    3    3    0    0 -0.17065055434E+03  0.38262868296E+02  0.72110118992E+02  0.20644022148E+03  0.82656137075E+02 0.  0.
         -6    2    1    2    0  502  0.14964649936E+03 -0.77104929804E+02  0.15912746255E+04  0.16092673072E+04  0.17101779828E+03 0.  0.
        -24    2    5    5    0    0  0.38753528790E+02  0.59981715801E+01  0.89249535373E+03  0.89686437556E+03  0.79246057622E+02 0.  0.
          5    1    3    3  501    0  0.21004054975E+02  0.38842061507E+02  0.38265236385E+02  0.58619061602E+02  0.47000000000E+01 0. -1.
        -13    1    4    4    0    0 -0.21899153902E+02  0.27476556824E+01  0.46372944954E+02  0.51357303055E+02  0.00000000000E+00 0.  1.
         14    1    4    4    0    0 -0.14875140044E+03  0.35515212614E+02  0.25737174038E+02  0.15508291842E+03  0.00000000000E+00 0. -1.
         -5    1    5    5    0  502  0.11089297057E+03 -0.83103101384E+02  0.69877927174E+03  0.71240293163E+03  0.47000000000E+01 0.  1.
         11    1    6    6    0    0 -0.12460339520E+02  0.78467300016E+01  0.36813364604E+02  0.39649149374E+02  0.00000000000E+00 0. -1.
        -12    1    6    6    0    0  0.51213868310E+02 -0.18485584215E+01  0.85568198913E+03  0.85721522618E+03  0.00000000000E+00 0.  1.
</event>
<event>
12    1  0.8407180E-002  0.2362490E+03  0.7818608E-02  0.1122363E+00
         21   -1    0    0  503  502  0.00000000000E+00  0.00000000000E+00  0.18767959567E+03  0.18767959567E+03  0.00000000000E+00 0.  1.
         21   -1    0    0  501  503 -0.00000000000E+00 -0.00000000000E+00 -0.91250061044E+03  0.91250061044E+03  0.00000000000E+00 0.  1.
          6    2    1    2  501    0  0.45819639017E+02 -0.15500134029E+03 -0.81424341468E+03  0.84782424588E+03  0.17230426215E+03 0.  0.
         24    2    3    3    0    0  0.34105425011E+02 -0.13357945850E+03 -0.80646828704E+03  0.82177309545E+03  0.76897793580E+02 0.  0.
         -6    2    1    2    0  502 -0.45819639017E+02  0.15500134029E+03  0.89422399904E+02  0.25235596022E+03  0.17193693682E+03 0.  0.
        -24    2    5    5    0    0 -0.10568014623E+02  0.37554770016E+02 -0.14633887196E+02  0.91464149440E+02  0.81421718812E+02 0.  0.
          5    1    3    3  501    0  0.11714214005E+02 -0.21421881790E+02 -0.77751276369E+01  0.26051150435E+02  0.47000000000E+01 0. -1.
        -11    1    4    4    0    0  0.57127732680E+02 -0.11445114141E+03 -0.64953175875E+03  0.66200766403E+03  0.00000000000E+00 0.  1.
         12    1    4    4    0    0 -0.23022307669E+02 -0.19128317095E+02 -0.15693652829E+03  0.15976543142E+03  0.00000000000E+00 0. -1.
         -5    1    5    5    0  502 -0.35251624393E+02  0.11744657027E+03  0.10405628710E+03  0.16089181078E+03  0.47000000000E+01 0.  1.
         13    1    6    6    0    0  0.26675921725E+02  0.44775951142E+02 -0.11673809321E+02  0.53411313638E+02  0.00000000000E+00 0. -1.
        -14    1    6    6    0    0 -0.37243936348E+02 -0.72211811259E+01 -0.29600778752E+01  0.38052835802E+02  0.00000000000E+00 0.  1.
</event>
<event>
12    1  0.8407180E-002  0.1784438E+03  0.7818608E-02  0.1169338E+00
         21   -1    0    0  501  502  0.00000000000E+00  0.00000000000E+00  0.57363746541E+03  0.57363746541E+03  0.00000000000E+00 0.  1.
         21   -1    0    0  502  503 -0.00000000000E+00 -0.00000000000E+00 -0.16044347693E+03  0.16044347693E+03  0.00000000000E+00 0.  1.
         -6    2    1    2    0  503  0.16038791582E+02  0.42922966648E+02 -0.90288569579E+02  0.19991160877E+03  0.17237459680E+03 0.  0.
        -24    2    3    3    0    0  0.63960632924E+02 -0.10631010500E+02 -0.34508010731E+02  0.10881774459E+03  0.80290209769E+02 0.  0.
          6    2    1    2  501    0 -0.16038791582E+02 -0.42922966648E+02  0.50348255805E+03  0.53416933357E+03  0.17246033388E+03 0.  0.
         24    2    5    5    0    0 -0.59703572409E+02 -0.71617912378E+02  0.39693802007E+03  0.41540973788E+03  0.79446942140E+02 0.  0.
          5    1    5    5  501    0  0.43664780827E+02  0.28694945730E+02  0.10654453798E+03  0.11875959569E+03  0.47000000000E+01 0. -1.
        -13    1    6    6    0    0 -0.19952979665E+02 -0.79003563825E+02  0.28371487791E+03  0.29518437703E+03  0.00000000000E+00 0.  1.
         14    1    6    6    0    0 -0.39750592744E+02  0.73856514472E+01  0.11322314216E+03  0.12022536085E+03  0.00000000000E+00 0. -1.
         -5    1    3    3    0  503 -0.47921841341E+02  0.53553977148E+02 -0.55780558849E+02  0.91093864181E+02  0.47000000000E+01 0.  1.
         13    1    4    4    0    0  0.59877242955E+01 -0.24772293017E+02  0.16461878804E+02  0.30339953812E+02  0.00000000000E+00 0. -1.
        -14    1    4    4    0    0  0.57972908628E+02  0.14141282517E+02 -0.50969889535E+02  0.78477790777E+02  0.00000000000E+00 0.  1.
</event>
<event>
12    1  0.8407180E-002  0.2183784E+03  0.7818608E-02  0.1135806E+00
         21   -1    0    0  503  502  0.00000000000E+00  0.00000000000E+00  0.16856116617E+03  0.16856116617E+03  0.00000000000E+00 0. -1.
         21   -1    0    0  501  503 -0.00000000000E+00 -0.00000000000E+00 -0.28466944577E+03  0.28466944577E+03  0.00000000000E+00 0. -1.
          6    2    1    2  501    0 -0.12943686131E+03  0.52159577528E+02 -0.23169312104E+02  0.21589796644E+03  0.16309688010E+03 0.  0.
         24    2    3    3    0    0 -0.93721062082E+02  0.58362474172E+02  0.41310044129E+02  0.14177798519E+03  0.78769673531E+02 0.  0.
         -6    2    1    2    0  502  0.12943686131E+03 -0.52159577528E+02 -0.92938967504E+02  0.23733264550E+03  0.16797205227E+03 0.  0.
        -24    2    5    5    0    0  0.14279792415E+03 -0.71965635963E+02 -0.46027955376E+02  0.18447878083E+03  0.79646393525E+02 0.  0.
          5    1    3    3  501    0 -0.35715799232E+02 -0.62028966440E+01 -0.64479356233E+02  0.74119981259E+02  0.47000000000E+01 0. -1.
        -11    1    4    4    0    0 -0.77864317163E+01 -0.18439840735E+02  0.25325918494E+01  0.20175982421E+02  0.00000000000E+00 0.  1.
         12    1    4    4    0    0 -0.85934630366E+02  0.76802314907E+02  0.38777452280E+02  0.12160200276E+03  0.00000000000E+00 0. -1.
         -5    1    5    5    0  502 -0.13361062833E+02  0.19806058435E+02 -0.46911012128E+02  0.52853864661E+02  0.47000000000E+01 0.  1.
         11    1    6    6    0    0  0.13546908343E+03 -0.79555833996E+02 -0.58948734515E+02  0.16779736764E+03  0.00000000000E+00 0. -1.
        -12    1    6    6    0    0  0.73288407222E+01  0.75901980328E+01  0.12920779139E+02  0.16681413192E+02  0.00000000000E+00 0.  1.
</event>
<event>
12    1  0.8407180E-002  0.2573540E+03  0.7818608E-02  0.1109454E+00
         21   -1    0    0  503  502  0.00000000000E+00  0.00000000000E+00  0.10425993766E+04  0.10425993766E+04  0.00000000000E+00 0.  1.
         21   -1    0    0  501  503 -0.00000000000E+00 -0.00000000000E+00 -0.63235044915E+02  0.63235044915E+02  0.00000000000E+00 0.  1.
          6    2    1    2  501    0 -0.18506462800E+03  0.10760218836E+02  0.55799045302E+03  0.61447898346E+03  0.17851155874E+03 0.  0.
         24    2    3    3    0    0 -0.70537827965E+02 -0.52629083335E+02  0.19609712356E+03  0.22961087168E+03  0.80756825957E+02 0.  0.
         -6    2    1    2    0  502  0.18506462800E+03 -0.10760218836E+02  0.42137387865E+03  0.49135543805E+03  0.17178335786E+03 0.  0.
        -24    2    5    5    0    0  0.20799829883E+02 -0.25326076473E+01  0.98586045910E+02  0.12905074244E+03  0.80596765768E+02 0.  0.
          5    1    3    3  501    0 -0.11452680004E+03  0.63389302171E+02  0.36189332946E+03  0.38486811178E+03  0.47000000000E+01 0. -1.
        -11    1    4    4    0    0 -0.52036288240E+01  0.20116364953E+02  0.24625982190E+02  0.32220876628E+02  0.00000000000E+00 0.  1.
         12    1    4    4    0    0 -0.65334199141E+02 -0.72745448288E+02  0.17147114137E+03  0.19738999505E+03  0.00000000000E+00 0. -1.
         -5    1    5    5    0  502  0.16426479812E+03 -0.82276111884E+01  0.32278783274E+03  0.36230469560E+03  0.47000000000E+01 0.  1.
         13    1    6    6    0    0  0.16300352668E+02  0.30620844687E+01  0.11232825565E+03  0.11354609141E+03  0.00000000000E+00 0. -1.
        -14    1    6    6    0    0  0.44994772145E+01 -0.55946921160E+01 -0.13742209738E+02  0.15504651030E+02  0.00000000000E+00 0.  1.
</event>
<event>
12    1  0.8407180E-002  0.1857865E+03  0.7818608E-02  0.1162646E+00
         21   -1    0    0  503  502  0.00000000000E+00  0.00000000000E+00  0.10184890696E+04  0.10184890696E+04  0.00000000000E+00 0.  1.
         21   -1    0    0  501  503 -0.00000000000E+00 -0.00000000000E+00 -0.35023160385E+02  0.35023160385E+02  0.00000000000E+00 0.  1.
          6    2    1    2  501    0  0.71091983583E+02  0.10640236008E+02  0.59485691706E+03  0.62277614019E+03  0.16978835140E+03 0.  0.
         24    2    3    3    0    0  0.17075874004E+02  0.40225307498E+02  0.50747454139E+03  0.51576779413E+03  0.81094675973E+02 0.  0.
         -6    2    1    2    0  502 -0.71091983583E+02 -0.10640236008E+02  0.38860899218E+03  0.43073608982E+03  0.17131650683E+03 0.  0.
        -24    2    5    5    0    0  0.17458028629E+02  0.29789873187E+02  0.20874929293E+03  0.22616996406E+03  0.79902227974E+02 0.  0.
          5    1    3    3  501    0  0.54016109580E+02 -0.29585071491E+02  0.87382375669E+02  0.10700834606E+03  0.47000000000E+01 0. -1.
        -13    1    4    4    0    0  0.34314782302E+02  0.57970288777E+02  0.37518030881E+03  0.38118017103E+03  0.00000000000E+00 0.  1.
         14    1    4    4    0    0 -0.17238908298E+02 -0.17744981279E+02  0.13229423258E+03  0.13458762310E+03  0.00000000000E+00 0. -1.
         -5    1    5    5    0  502 -0.88550012213E+02 -0.40430109195E+02  0.17985969925E+03  0.20456612576E+03  0.47000000000E+01 0.  1.
         11    1    6    6    0    0 -0.20597847903E+02  0.42245400830E+02  0.11198895396E+03  0.12145151723E+03  0.00000000000E+00 0. -1.
        -12    1    6    6    0    0  0.38055876532E+02 -0.12455527643E+02  0.96760338974E+02  0.10471844683E+03  0.00000000000E+00 0.  1.
</event>
<event>
12    1  0.8407180E-002  0.2298356E+03  0.7818608E-02  0.1127011E+00
         21   -1    0    0  503  502  0.00000000000E+00  0.00000000000E+00  0.38317055881E+02  0.38317055881E+02  0.00000000000E+00 0. -1.
         21   -1    0    0  501  503 -0.00000000000E+00 -0.00000000000E+00 -0.27487298852E+04  0.27487298852E+04  0.00000000000E+00 0. -1.
          6    2    1    2  501    0 -0.10753859625E+03 -0.10283191389E+03 -0.23400223322E+04  0.23511415269E+04  0.17327149840E+03 0.  0.
         24    2    3    3    0    0 -0.32817957002E+02 -0.23351652085E+02 -0.51505654660E+03  0.52291219377E+03  0.80818303851E+02 0.  0.
         -6    2    1    2    0  502  0.10753859625E+03  0.10283191389E+03 -0.37039049709E+03  0.43590541415E+03  0.17517265069E+03 0.  0.
        -24    2    5    5    0    0  0.90726160047E+02  0.70847444169E+02 -0.12488499658E+03  0.18771052077E+03  0.79927346862E+02 0.  0.
          5    1    3    3  501    0 -0.74720639245E+02 -0.79480261804E+02 -0.18249657856E+04  0.18282293331E+04  0.47000000000E+01 0. -1.
        -11    1    4    4    0    0  0.26200333239E+02 -0.15593782949E+02 -0.19457434402E+03  0.19694872144E+03  0.00000000000E+00 0.  1.
         12    1    4    4    0    0 -0.59018290242E+02 -0.77578691354E+01 -0.32048220258E+03  0.32596347232E+03  0.00000000000E+00 0. -1.
         -5    1    5    5    0  502  0.16812436200E+02  0.31984469720E+02 -0.24550550051E+03  0.24819489337E+03  0.47000000000E+01 0.  1.
         13    1    6    6    0    0 -0.97977752024E+01  0.29544761162E+02 -0.33362685136E+02  0.45628478722E+02  0.00000000000E+00 0. -1.
        -14    1    6    6    0    0  0.10052393525E+03  0.41302683008E+02 -0.91522311443E+02  0.14208204205E+03  0.00000000000E+00 0.  1.
</event>
<event>
12    1  0.8407180E-002  0.1730515E+03  0.7818608E-02  0.1174807E+00
         21   -1    0    0  503  502  0.00000000000E+00  0.00000000000E+00  0.79931412930E+03  0.79931412930E+03  0.00000000000E+00 0.  1.
         21   -1    0    0  501  503 -0.00000000000E+00 -0.00000000000E+00 -0.37377749151E+02  0.37377749151E+02  0.00000000000E+00 0.  1.
          6    2    1    2  501    0  0.22044507487E+02 -0.10877747251E+01  0.38211701052E+03  0.41930765245E+03  0.17122603224E+03 0.  0.
         24    2    3    3    0    0  0.35461794757E+01  0.19800576430E+02  0.71254864821E+02  0.10716045163E+03  0.77469144941E+02 0.  0.
         -6    2    1    2    0  502 -0.22044507487E+02  0.10877747251E+01  0.37981936964E+03  0.41738422600E+03  0.17163826787E+03 0.  0.
        -24    2    5    5    0    0 -0.42189002863E+02  0.59751961524E+02  0.25666423100E+03  0.27941116457E+03  0.82727640755E+02 0.  0.
          5    1    3    3  501    0  0.18498328011E+02 -0.20888351155E+02  0.31086214569E+03  0.31214720082E+03  0.47000000000E+01 0. -1.
        -13    1    4    4    0    0 -0.15061280598E+02 -0.63360026388E+01 -0.10440790850E+02  0.19390647650E+02  0.00000000000E+00 0.  1.
         14    1    4    4    0    0  0.18607460074E+02  0.26136579069E+02  0.81695655671E+02  0.87769803984E+02  0.00000000000E+00 0. -1.
         -5    1    5    5    0  502  0.20144495377E+02 -0.58664186799E+02  0.12315513864E+03  0.13797306143E+03  0.47000000000E+01 0.  1.
         11    1    6    6    0    0 -0.34913725470E+02  0.44149105665E+02  0.61036938805E+02  0.83027824589E+02  0.00000000000E+00 0. -1.
        -12    1    6    6    0    0 -0.72752773933E+01  0.15602855859E+02  0.19562729219E+03  0.19638333998E+03  0.00000000000E+00 0.  1.
</event>
<event>
12    1  0.8407180E-002  0.2034631E+03  0.7818608E-02  0.1146990E+00
         21   -1    0    0  503  502  0.00000000000E+00  0.00000000000E+00  0.56115535381E+03  0.56115535381E+03  0.00000000000E+00 0. -1.
         21   -1    0    0  501  503 -0.00000000000E+00 -0.00000000000E+00 -0.75394616952E+02  0.75394616952E+02  0.00000000000E+00 0. -1.
          6    2    1    2  501    0 -0.10442682267E+03 -0.25667289018E+02  0.19236525087E+03  0.27950917764E+03  0.17192213245E+03 0.  0.
         24    2    3    3    0    0 -0.21601409553E+02 -0.70622127065E+02  0.10264501285E+03  0.14930626818E+03  0.79386757896E+02 0.  0.
         -6    2    1    2    0  502  0.10442682267E+03  0.25667289018E+02  0.29339548599E+03  0.35704079312E+03  0.17272361082E+03 0.  0.
        -24    2    5    5    0    0  0.12970714580E+03  0.56961983235E+02  0.23675281130E+03  0.28740649683E+03  0.80510803971E+02 0.  0.
          5    1    3    3  501    0 -0.82825413116E+02  0.44954838047E+02  0.89720238017E+02  0.13020290946E+03  0.47000000000E+01 0. -1.
        -13    1    4    4    0    0  0.25572509064E+02 -0.39981903811E+02  0.25639077257E+02  0.53943193591E+02  0.00000000000E+00 0.  1.
         14    1    4    4    0    0 -0.47173918617E+02 -0.30640223254E+02  0.77005935595E+02  0.95363074592E+02  0.00000000000E+00 0. -1.
         -5    1    5    5    0  502 -0.25280323132E+02 -0.31294694217E+02  0.56642674690E+02  0.69634296290E+02  0.47000000000E+01 0.  1.
         13    1    6    6    0    0  0.89523467817E+01 -0.57051314174E+01  0.76322912998E+02  0.77057641321E+02  0.00000000000E+00 0. -1.
        -14    1    6    6    0    0  0.12075479902E+03  0.62667114652E+02  0.16042989830E+03  0.21034885551E+03  0.00000000000E+00 0.  1.
</event>
<event>
12    1  0.8407180E-002  0.1996081E+03  0.7818608E-02  0.1150165E+00
         21   -1    0    0  503  502  0.00000000000E+00  0.00000000000E+00  0.72992299832E+02  0.72992299832E+02  0.00000000000E+00 0. -1.
         21   -1    0    0  501  503 -0.00000000000E+00 -0.00000000000E+00 -0.93567006903E+03  0.93567006903E+03  0.00000000000E+00 0. -1.
          6    2    1    2  501    0 -0.60466061100E+02  0.81070902892E+02 -0.75709113519E+03  0.78284840248E+03  0.17156922345E+03 0.  0.
         24    2    3    3    0    0 -0.17055399048E+02  0.11175795756E+03 -0.62626314620E+03  0.64155355612E+03  0.81269363015E+02 0.  0.
         -6    2    1    2    0  502  0.60466061100E+02 -0.81070902892E+02 -0.10558663401E+03  0.22581396638E+03  0.17208943690E+03 0.  0.
        -24    2    5    5    0    0 -0.53843146825E+00 -0.10209903719E+03 -0.92654286876E+02  0.15983619628E+03  0.80859689968E+02 0.  0.
          5    1    3    3  501    0 -0.43410662052E+02 -0.30687054666E+02 -0.13082798899E+03  0.14129484636E+03  0.47000000000E+01 0. -1.
        -13    1    4    4    0    0 -0.18452261245E+02  0.12511448958E+02 -0.31653107333E+02  0.38716165925E+02  0.00000000000E+00 0.  1.
         14    1    4    4    0    0  0.13968621968E+01  0.99246508601E+02 -0.59461003887E+03  0.60283739020E+03  0.00000000000E+00 0. -1.
         -5    1    5    5    0  502  0.61004492569E+02  0.21028134296E+02 -0.12932347129E+02  0.65977770103E+02  0.47000000000E+01 0.  1.
         11    1    6    6    0    0 -0.27782206376E+02 -0.60602426274E+02 -0.16079340074E+02  0.68578788547E+02  0.00000000000E+00 0. -1.
        -12    1    6    6    0    0  0.27243774907E+02 -0.41496610915E+02 -0.76574946802E+02  0.91257407734E+02  0.00000000000E+00 0.  1.
</event>
<event>
12    1  0.8407180E-002  0.1829038E+03  0.7818608E-02  0.1165998E+00
         21   -1    0    0  501  502  0.00000000000E+00  0.00000000000E+00  0.24815288056E+02  0.24815288056E+02  0.00000000000E+00 0.  1.
         21   -1    0    0  502  503 -0.00000000000E+00 -0.00000000000E+00 -0.13222174629E+04  0.13222174629E+04  0.00000000000E+00 0.  1.
         -6    2    1    2    0  503 -0.48163038068E+02 -0.38571654709E+02 -0.61919513128E+03  0.64564417517E+03  0.17218112427E+03 0.  0.
        -24    2    3    3    0    0  0.26555715217E+02  0.25949099572E+01 -0.18522619498E+03  0.20334483558E+03  0.79551488230E+02 0.  0.
          6    2    1    2  501    0  0.48163038068E+02  0.38571654709E+02 -0.67820704359E+03  0.70138857581E+03  0.16785019963E+03 0.  0.
         24    2    5    5    0    0  0.53887422371E+02 -0.12581050756E+02 -0.59437887320E+03  0.60290700391E+03  0.84548644761E+02 0.  0.
          5    1    5    5  501    0 -0.57243843026E+01  0.51152705465E+02 -0.83828170387E+02  0.98481571892E+02  0.47000000000E+01 0. -1.
        -11    1    6    6    0    0  0.33578815023E+02  0.83280299409E+01 -0.73734630909E+02  0.81447459729E+02  0.00000000000E+00 0.  1.
         12    1    6    6    0    0  0.20308607348E+02 -0.20909080697E+02 -0.52064424229E+03  0.52145954419E+03  0.00000000000E+00 0. -1.
         -5    1    3    3    0  503 -0.74718753285E+02 -0.41166564666E+02 -0.43396893629E+03  0.44229933959E+03  0.47000000000E+01 0.  1.
         11    1    4    4    0    0 -0.41448914884E+01  0.35814436637E+02 -0.57739346887E+02  0.68071184623E+02  0.00000000000E+00 0. -1.
        -12    1    4    4    0    0  0.30700606706E+02 -0.33219526680E+02 -0.12748684810E+03  0.13527365095E+03  0.00000000000E+00 0.  1.
</event>
<event>
12    1  0.8407180E-002  0.1795334E+03  0.7818608E-02  0.1168487E+00
         21   -1    0    0  501  502  0.00000000000E+00  0.00000000000E+00  0.58367233669E+03  0.58367233669E+03  0.00000000000E+00 0.  1.
         21   -1    0    0  502  503 -0.00000000000E+00 -0.00000000000E+00 -0.56780018215E+02  0.56780018215E+02  0.00000000000E+00 0.  1.
         -6    2    1    2    0  503  0.66716496488E+02 -0.32808659101E+01  0.32056099324E+03  0.36694762086E+03  0.16561808803E+03 0.  0.
        -24    2    3    3    0    0 -0.42500060967E+01  0.46043507636E+02  0.17262923237E+03  0.19555615611E+03  0.79393269087E+02 0.  0.
          6    2    1    2  501    0 -0.66716496488E+02  0.32808659101E+01  0.20633132524E+03  0.27350473405E+03  0.16664443822E+03 0.  0.
         24    2    5    5    0    0 -0.94168961813E+02  0.47518262389E+01  0.96824858230E+02  0.16050226552E+03  0.86576849359E+02 0.  0.
          5    1    5    5  501    0  0.27452465324E+02 -0.14709603288E+01  0.10950646701E+03  0.11300246853E+03  0.47000000000E+01 0. -1.
        -13    1    6    6    0    0 -0.71420478715E+02  0.15941130249E+02  0.10985621608E+03  0.13199769931E+03  0.00000000000E+00 0.  1.
         14    1    6    6    0    0 -0.22748483098E+02 -0.11189304010E+02 -0.13031357845E+02  0.28504566209E+02  0.00000000000E+00 0. -1.
         -5    1    3    3    0  503  0.70966502585E+02 -0.49324373546E+02  0.14793176087E+03  0.17139146475E+03  0.47000000000E+01 0.  1.
         13    1    4    4    0    0 -0.25039398794E+02 -0.10042210483E+02  0.27216590482E+02  0.38321799029E+02  0.00000000000E+00 0. -1.
        -14    1    4    4    0    0  0.20789392697E+02  0.56085718120E+02  0.14541264188E+03  0.15723435708E+03  0.00000000000E+00 0.  1.
</event>
<event>
12    1  0.8407180E-002  0.2868940E+03  0.7818608E-02  0.1094814E+00
         21   -1    0    0  503  502  0.00000000000E+00  0.00000000000E+00  0.86351093080E+02  0.86351093080E+02  0.00000000000E+00 0.  1.
         21   -1    0    0  501  503 -0.00000000000E+00 -0.00000000000E+00 -0.88713792200E+03  0.88713792200E+03  0.00000000000E+00 0. -1.
          6    2    1    2  501    0 -0.21369327260E+03  0.91338981781E+01 -0.39831473463E+03  0.49087959919E+03  0.19120645968E+03 0.  0.
         24    2    3    3    0    0 -0.17571983680E+03 -0.62291120964E+02 -0.30822808668E+03  0.36971355887E+03  0.83222096836E+02 0.  0.
         -6    2    1    2    0  502  0.21369327260E+03 -0.91338981781E+01 -0.40247209429E+03  0.48260941589E+03  0.15868150105E+03 0.  0.
        -24    2    5    5    0    0  0.17768989598E+03  0.19455981508E+02 -0.38782108954E+03  0.43412883949E+03  0.78169159067E+02 0.  0.
          5    1    3    3  501    0 -0.37973435800E+02  0.71425019142E+02 -0.90086647950E+02  0.12116604031E+03  0.47000000000E+01 0. -1.
        -11    1    4    4    0    0 -0.14513295457E+03 -0.65137022855E+02 -0.19121795325E+03  0.24873823970E+03  0.00000000000E+00 0.  1.
         12    1    4    4    0    0 -0.30586882235E+02  0.28459018914E+01 -0.11701013343E+03  0.12097531917E+03  0.00000000000E+00 0. -1.
         -5    1    5    5    0  502  0.36003376623E+02 -0.28589879686E+02 -0.14651004745E+02  0.48480576407E+02  0.47000000000E+01 0.  1.
         13    1    6    6    0    0  0.67983356398E+02 -0.17871619056E+02 -0.21375865140E+03  0.22501976038E+03  0.00000000000E+00 0. -1.
        -14    1    6    6    0    0  0.10970653958E+03  0.37327600564E+02 -0.17406243815E+03  0.20910907910E+03  0.00000000000E+00 0.  1.
</event>
<event>
12    1  0.8407180E-002  0.2182661E+03  0.7818608E-02  0.1135588E+00
         21   -1    0    0  503  502  0.00000000000E+00  0.00000000000E+00  0.12056745451E+04  0.12056745451E+04  0.00000000000E+00 0.  1.
         21   -1    0    0  501  503 -0.00000000000E+00 -0.00000000000E+00 -0.42370153363E+02  0.42370153363E+02  0.00000000000E+00 0. -1.
          6    2    1    2  501    0  0.10826684146E+03 -0.79593168453E+02  0.41163954895E+03  0.46592618106E+03  0.17199798405E+03 0.  0.
         24    2    3    3    0    0  0.12864636762E+03 -0.10672621968E+03  0.33628347806E+03  0.38314843662E+03  0.75998506539E+02 0.  0.
         -6    2    1    2    0  502 -0.10826684146E+03  0.79593168453E+02  0.75166484281E+03  0.78211851742E+03  0.16927066478E+03 0.  0.
        -24    2    5    5    0    0 -0.99989799765E+01 -0.96726912900E+01  0.23949574804E+03  0.25300204825E+03  0.80363440259E+02 0.  0.
          5    1    3    3  501    0 -0.20379526164E+02  0.27133051229E+02  0.75356070887E+02  0.82777744444E+02  0.47000000000E+01 0. -1.
        -11    1    4    4    0    0  0.22711285467E+02 -0.23200521500E+01  0.11010179316E+03  0.11244371920E+03  0.00000000000E+00 0.  1.
         12    1    4    4    0    0  0.10593508215E+03 -0.10440616753E+03  0.22618168490E+03  0.27070471742E+03  0.00000000000E+00 0. -1.
         -5    1    5    5    0  502 -0.98267861481E+02  0.89265859743E+02  0.51216909477E+03  0.52911646917E+03  0.47000000000E+01 0.  1.
         13    1    6    6    0    0 -0.28203970890E+02  0.27897165075E+02  0.10928541326E+03  0.11626270832E+03  0.00000000000E+00 0. -1.
        -14    1    6    6    0    0  0.18204990914E+02 -0.37569856365E+02  0.13021033478E+03  0.13673933993E+03  0.00000000000E+00 0.  1.
</event>
<event>
12    1  0.8407180E-002  0.1817399E+03  0.7818608E-02  0.1166843E+00
         21   -1    0    0  501  502  0.00000000000E+00  0.00000000000E+00  0.65591364198E+03  0.65591364198E+03  0.00000000000E+00 0. -1.
         21   -1    0    0  502  503 -0.00000000000E+00 -0.00000000000E+00 -0.73535699228E+02  0.73535699228E+02  0.00000000000E+00 0. -1.
         -6    2    1    2    0  503  0.37144732945E+02  0.36400496677E+02  0.84457099071E+02  0.20040555819E+03  0.17413976808E+03 0.  0.
        -24    2    3    3    0    0  0.56586040866E+02  0.92444244212E+01  0.11760214547E+03  0.15311813053E+03  0.79545319636E+02 0.  0.
          6    2    1    2  501    0 -0.37144732945E+02 -0.36400496677E+02  0.49792084368E+03  0.52904378302E+03  0.17104803545E+03 0.  0.
         24    2    5    5    0    0 -0.57199198446E+02 -0.22165589327E+02  0.48964711611E+03  0.50267412732E+03  0.95728356863E+02 0.  0.
          5    1    5    5  501    0  0.20054465501E+02 -0.14234907349E+02  0.82737275732E+01  0.26369655700E+02  0.47000000000E+01 0. -1.
        -11    1    6    6    0    0 -0.16722390231E+02  0.30927615487E+02  0.76821825514E+02  0.84485197579E+02  0.00000000000E+00 0.  1.
         12    1    6    6    0    0 -0.40476808215E+02 -0.53093204814E+02  0.41282529059E+03  0.41818892974E+03  0.00000000000E+00 0. -1.
         -5    1    3    3    0  503 -0.19441307921E+02  0.27156072256E+02 -0.33145046396E+02  0.47287427659E+02  0.47000000000E+01 0.  1.
         11    1    4    4    0    0  0.76887867368E+02  0.85243475986E+01  0.87384205820E+02  0.11670650401E+03  0.00000000000E+00 0. -1.
        -12    1    4    4    0    0 -0.20301826502E+02  0.72007682255E+00  0.30217939647E+02  0.36411626528E+02  0.00000000000E+00 0.  1.
</event>
<event>
12    1  0.8407180E-002  0.2415503E+03  0.7818608E-02  0.1120014E+00
         21   -1    0    0  501  502  0.00000000000E+00  0.00000000000E+00  0.40939256582E+03  0.40939256582E+03  0.00000000000E+00 0.  1.
         21   -1    0    0  502  503 -0.00000000000E+00 -0.00000000000E+00 -0.16442684313E+03  0.16442684313E+03  0.00000000000E+00 0. -1.
         -6    2    1    2    0  503 -0.15005000667E+03 -0.51898052178E+02  0.94402851114E+01  0.24173468926E+03  0.18203881093E+03 0.  0.
        -24    2    3    3    0    0 -0.12983417853E+03  0.24335505797E+01 -0.47520824780E+02  0.16032669944E+03  0.81139298018E+02 0.  0.
          6    2    1    2  501    0  0.15005000667E+03  0.51898052178E+02  0.23552543758E+03  0.33208471969E+03  0.17204539221E+03 0.  0.
         24    2    5    5    0    0  0.50004719550E+02  0.65357306057E+02  0.79337749268E+02  0.14605543444E+03  0.90915686424E+02 0.  0.
          5    1    5    5  501    0  0.10004528712E+03 -0.13459253879E+02  0.15618768832E+03  0.18602928525E+03  0.47000000000E+01 0. -1.
        -11    1    6    6    0    0 -0.17557860516E+02 -0.93262001318E+01  0.39852600234E+01  0.20276557209E+02  0.00000000000E+00 0.  1.
         12    1    6    6    0    0  0.67562580066E+02  0.74683506189E+02  0.75352489245E+02  0.12577887723E+03  0.00000000000E+00 0. -1.
         -5    1    3    3    0  503 -0.20215828139E+02 -0.54331602757E+02  0.56961109891E+02  0.81407989814E+02  0.47000000000E+01 0.  1.
         13    1    4    4    0    0  0.67654555799E+01 -0.91175763184E+01 -0.16073389179E+02  0.19678806540E+02  0.00000000000E+00 0. -1.
        -14    1    4    4    0    0 -0.13659963411E+03  0.11551126898E+02 -0.31447435600E+02  0.14064789290E+03  0.00000000000E+00 0.  1.
</event>
<event>
12    1  0.8407180E-002  0.2269909E+03  0.7818608E-02  0.1128796E+00
         21   -1    0    0  503  502  0.00000000000E+00  0.00000000000E+00  0.14269917109E+04  0.14269917109E+04  0.00000000000E+00 0.  1.
         21   -1    0    0  501  503 -0.00000000000E+00 -0.00000000000E+00 -0.38096153103E+02  0.38096153103E+02  0.00000000000E+00 0.  1.
          6    2    1    2  501    0 -0.10394523886E+03  0.10590366054E+03  0.86273646661E+03  0.89209813303E+03  0.17176923513E+03 0.  0.
         24    2    3    3    0    0 -0.50035327610E+02  0.10909286139E+03  0.37542947210E+03  0.40178532835E+03  0.77970347825E+02 0.  0.
         -6    2    1    2    0  502  0.10394523886E+03 -0.10590366054E+03  0.52615909117E+03  0.57298973096E+03  0.17162064143E+03 0.  0.
        -24    2    5    5    0    0  0.59324953358E+02 -0.64761451310E+02  0.15031889736E+03  0.19225151047E+03  0.81555972846E+02 0.  0.
          5    1    3    3  501    0 -0.53909911250E+02 -0.31892008496E+01  0.48730699451E+03  0.49031280468E+03  0.47000000000E+01 0. -1.
        -11    1    4    4    0    0 -0.47503750417E+02  0.43022131070E+02  0.26867748312E+03  0.27621567661E+03  0.00000000000E+00 0.  1.
         12    1    4    4    0    0 -0.25315771931E+01  0.66070730323E+02  0.10675198897E+03  0.12556965174E+03  0.00000000000E+00 0. -1.
         -5    1    5    5    0  502  0.44620285503E+02 -0.41142209233E+02  0.37584019381E+03  0.38073822049E+03  0.47000000000E+01 0.  1.
         13    1    6    6    0    0  0.19031960062E+02 -0.28765196712E+02  0.21721338449E+01  0.34559661617E+02  0.00000000000E+00 0. -1.
        -14    1    6    6    0    0  0.40292993296E+02 -0.35996254599E+02  0.14814676352E+03  0.15769184885E+03  0.00000000000E+00 0.  1.
</event>
<event>
12    1  0.8407180E-002  0.3118764E+03  0.7818608E-02  0.1079573E+00
         21   -1    0    0  503  502  0.00000000000E+00  0.00000000000E+00  0.34036724202E+03  0.34036724202E+03  0.00000000000E+00 0. -1.
         21   -1    0    0  501  503 -0.00000000000E+00 -0.00000000000E+00 -0.39733346918E+03  0.39733346918E+03  0.00000000000E+00 0.  1.
          6    2    1    2  501    0 -0.25460975870E+03 -0.53311734415E+02 -0.22479381145E+03  0.38444652841E+03  0.17204245199E+03 0.  0.
         24    2    3    3    0    0 -0.21278822867E+03  0.11246795584E+02 -0.19975094602E+03  0.30341518090E+03  0.82188873286E+02 0.  0.
         -6    2    1    2    0  502  0.25460975870E+03  0.53311734415E+02  0.16782758429E+03  0.35325418280E+03  0.17015918830E+03 0.  0.
        -24    2    5    5    0    0  0.27088950735E+03  0.63939372416E+02  0.14829644809E+03  0.32529828562E+03  0.79735623022E+02 0.  0.
          5    1    3    3  501    0 -0.41821530031E+02 -0.64558530000E+02 -0.25042865426E+02  0.81031347506E+02  0.47000000000E+01 0. -1.
        -13    1    4    4    0    0 -0.16221425647E+03  0.37704431982E+02 -0.17381801136E+03  0.24072347261E+03  0.00000000000E+00 0.  1.
         14    1    4    4    0    0 -0.50573972202E+02 -0.26457636398E+02 -0.25932934662E+02  0.62691708289E+02  0.00000000000E+00 0. -1.
         -5    1    5    5    0  502 -0.16279748645E+02 -0.10627638001E+02  0.19531136200E+02  0.27955897171E+02  0.47000000000E+01 0.  1.
         11    1    6    6    0    0  0.18105819073E+03  0.45265436862E+02  0.13973957276E+03  0.23314839995E+03  0.00000000000E+00 0. -1.
        -12    1    6    6    0    0  0.89831316621E+02  0.18673935553E+02  0.85568753298E+01  0.92149885677E+02  0.00000000000E+00 0.  1.
</event>
<event>
12    1  0.8407180E-002  0.3297389E+03  0.7818608E-02  0.1071434E+00
         21   -1    0    0  503  502  0.00000000000E+00  0.00000000000E+00  0.50865017139E+03  0.50865017139E+03  0.00000000000E+00 0.  1.
         21   -1    0    0  501  503 -0.00000000000E+00 -0.00000000000E+00 -0.24939725801E+03  0.24939725801E+03  0.00000000000E+00 0. -1.
          6    2    1    2  501    0  0.24388036799E+03 -0.13716060366E+03 -0.15496309016E+02  0.33010280091E+03  0.17446219787E+03 0.  0.
         24    2    3    3    0    0  0.11851989540E+03 -0.34049844035E+02 -0.65352702099E+02  0.16023571531E+03  0.78728338636E+02 0.  0.
         -6    2    1    2    0  502 -0.24388036799E+03  0.13716060366E+03  0.27474922239E+03  0.42794462849E+03  0.17134411213E+03 0.  0.
        -24    2    5    5    0    0 -0.21699922789E+03  0.15410495831E+03  0.28048329201E+03  0.39531524907E+03  0.82257315591E+02 0.  0.
          5    1    3    3  501    0  0.12536047260E+03 -0.10311075963E+03  0.49856393083E+02  0.16986708561E+03  0.47000000000E+01 0. -1.
        -13    1    4    4    0    0 -0.80064325244E+01 -0.73676881754E+01  0.61251838846E+01  0.12486139052E+02  0.00000000000E+00 0.  1.
         14    1    4    4    0    0  0.12652632792E+03 -0.26682155860E+02 -0.71477885983E+02  0.14774957625E+03  0.00000000000E+00 0. -1.
         -5    1    5    5    0  502 -0.26881140100E+02 -0.16944354642E+02 -0.57340696174E+01  0.32629379425E+02  0.47000000000E+01 0.  1.
         11    1    6    6    0    0 -0.18203438280E+03  0.14490754931E+03  0.19896849436E+03  0.30614241149E+03  0.00000000000E+00 0. -1.
        -12    1    6    6    0    0 -0.34964845096E+02  0.91974089926E+01  0.81514797651E+02  0.89172837573E+02  0.00000000000E+00 0.  1.
</event>
<event>
12    1  0.8407180E-002  0.1822519E+03  0.7818608E-02  0.1165696E+00
         21   -1    0    0  503  502  0.00000000000E+00  0.00000000000E+00  0.15358992784E+03  0.15358992784E+03  0.00000000000E+00 0.  1.
         21   -1    0    0  501  503 -0.00000000000E+00 -0.00000000000E+00 -0.25250327483E+03  0.25250327483E+03  0.00000000000E+00 0. -1.
          6    2    1    2  501    0  0.57876026922E+02  0.18138007537E+02 -0.12664450426E+03  0.22174365167E+03  0.17161816566E+03 0.  0.
         24    2    3    3    0    0  0.16207689933E+02  0.73660612831E+02 -0.59167413687E+02  0.12481967239E+03  0.79941182620E+02 0.  0.
         -6    2    1    2    0  502 -0.57876026922E+02 -0.18138007537E+02  0.27731157267E+02  0.18434955101E+03  0.17186366126E+03 0.  0.
        -24    2    5    5    0    0 -0.97026282403E+02  0.20065035316E+02  0.15368400715E+02  0.12807217778E+03  0.79684313777E+02 0.  0.
          5    1    3    3  501    0  0.41668336989E+02 -0.55522605294E+02 -0.67477090570E+02  0.96923979272E+02  0.47000000000E+01 0. -1.
        -11    1    4    4    0    0 -0.10752310007E+02  0.26673754334E+02  0.15422507542E+02  0.32633649499E+02  0.00000000000E+00 0.  1.
         12    1    4    4    0    0  0.26959999940E+02  0.46986858498E+02 -0.74589921230E+02  0.92186022896E+02  0.00000000000E+00 0. -1.
         -5    1    5    5    0  502  0.39150255481E+02 -0.38203042853E+02  0.12362756553E+02  0.56277373225E+02  0.47000000000E+01 0.  1.
         13    1    6    6    0    0 -0.10944519812E+03  0.78513167550E+01  0.13496191036E+02  0.11055334341E+03  0.00000000000E+00 0. -1.
        -14    1    6    6    0    0  0.12418915718E+02  0.12213718561E+02  0.18722096793E+01  0.17518834373E+02  0.00000000000E+00 0.  1.
</event>
<event>
12    1  0.8407180E-002  0.2402929E+03  0.7818608E-02  0.1119750E+00
         21   -1    0    0  503  502  0.00000000000E+00  0.00000000000E+00  0.20202097115E+03  0.20202097115E+03  0.00000000000E+00 0.  1.
         21   -1    0    0  501  503 -0.00000000000E+00 -0.00000000000E+00 -0.28502896758E+03  0.28502896758E+03  0.00000000000E+00 0. -1.
          6    2    1    2  501    0  0.12391618652E+03 -0.11209977237E+03 -0.33721959615E+02  0.24264756459E+03  0.17268204827E+03 0.  0.
         24    2    3    3    0    0  0.12167985877E+03 -0.11495975399E+03  0.18965056904E+02  0.18962688592E+03  0.87045674300E+02 0.  0.
         -6    2    1    2    0  502 -0.12391618652E+03  0.11209977237E+03 -0.49286036815E+02  0.24440237414E+03  0.17141127972E+03 0.  0.
        -24    2    5    5    0    0 -0.59587304149E+01  0.29049008176E+02  0.14417503283E+02  0.86631585010E+02  0.80111271219E+02 0.  0.
          5    1    3    3  501    0  0.22363277465E+01  0.28599816202E+01 -0.52687016519E+02  0.53020678667E+02  0.47000000000E+01 0. -1.
        -11    1    4    4    0    0  0.30763352531E+01  0.35652699158E+01  0.21422205586E+02  0.21933670016E+02  0.00000000000E+00 0.  1.
         12    1    4    4    0    0  0.11860352352E+03 -0.11852502390E+03 -0.24571486827E+01  0.16769321591E+03  0.00000000000E+00 0. -1.
         -5    1    5    5    0  502 -0.11795745610E+03  0.83050764189E+02 -0.63703540098E+02  0.15777078913E+03  0.47000000000E+01 0.  1.
         11    1    6    6    0    0  0.31116196995E+02  0.22572800625E+02 -0.12429659274E+02  0.40401057822E+02  0.00000000000E+00 0. -1.
        -12    1    6    6    0    0 -0.37074927410E+02  0.64762075517E+01  0.26847162557E+02  0.46230527188E+02  0.00000000000E+00 0.  1.
</event>
<event>
12    1  0.8407180E-002  0.2716448E+03  0.7818608E-02  0.1100384E+00
         21   -1    0    0  501  502  0.00000000000E+00  0.00000000000E+00  0.11660791186E+03  0.11660791186E+03  0.00000000000E+00 0.  1.
         21   -1    0    0  502  503 -0.00000000000E+00 -0.00000000000E+00 -0.93835209588E+03  0.93835209588E+03  0.00000000000E+00 0. -1.
         -6    2    1    2    0  503 -0.20230102086E+03  0.57080373489E+02 -0.71236052102E+03  0.76239650463E+03  0.17206698196E+03 0.  0.
        -24    2    3    3    0    0 -0.20010062075E+03  0.61387099748E+02 -0.71883660513E+03  0.75304667484E+03  0.80898672265E+02 0.  0.
          6    2    1    2  501    0  0.20230102086E+03 -0.57080373489E+02 -0.10938366300E+03  0.29256350312E+03  0.17159471305E+03 0.  0.
         24    2    5    5    0    0  0.44912414458E+02  0.66381904749E+01 -0.10111409920E+01  0.91074242000E+02  0.78944946668E+02 0.  0.
          5    1    5    5  501    0  0.15738860640E+03 -0.63718563964E+02 -0.10837252201E+03  0.20148926112E+03  0.47000000000E+01 0. -1.
        -11    1    6    6    0    0  0.60820527786E+02 -0.11664368472E+01  0.19583145302E+02  0.63906155846E+02  0.00000000000E+00 0.  1.
         12    1    6    6    0    0 -0.15908113328E+02  0.78046273220E+01 -0.20594286294E+02  0.27168086153E+02  0.00000000000E+00 0. -1.
         -5    1    3    3    0  503 -0.22004001095E+01 -0.43067262593E+01  0.64760841068E+01  0.93498297885E+01  0.47000000000E+01 0.  1.
         13    1    4    4    0    0 -0.91957968880E+01  0.80799417596E+01 -0.15319070777E+03  0.15367901967E+03  0.00000000000E+00 0. -1.
        -14    1    4    4    0    0 -0.19090482386E+03  0.53307157988E+02 -0.56564589736E+03  0.59936765517E+03  0.00000000000E+00 0.  1.
</event>
<event>
12    1  0.8407180E-002  0.2304117E+03  0.7818608E-02  0.1126358E+00
         21   -1    0    0  503  502  0.00000000000E+00  0.00000000000E+00  0.63694291504E+03  0.63694291504E+03  0.00000000000E+00 0. -1.
         21   -1    0    0  501  503 -0.00000000000E+00 -0.00000000000E+00 -0.83336173284E+02  0.83336173284E+02  0.00000000000E+00 0.  1.
          6    2    1    2  501    0  0.14884225046E+03 -0.40656835959E+02  0.27552954924E+03  0.35917417767E+03  0.17112148774E+03 0.  0.
         24    2    3    3    0    0  0.79518208258E+02 -0.87448073109E+02  0.13089518792E+03  0.19203222849E+03  0.75977073001E+02 0.  0.
         -6    2    1    2    0  502 -0.14884225046E+03  0.40656835959E+02  0.27807719251E+03  0.36110491065E+03  0.17106384092E+03 0.  0.
        -24    2    5    5    0    0 -0.16425531548E+03  0.22191695813E+01  0.25645509023E+03  0.31415150740E+03  0.77053377088E+02 0.  0.
          5    1    3    3  501    0  0.69324042202E+02  0.46791237150E+02  0.14463436132E+03  0.16714194918E+03  0.47000000000E+01 0. -1.
        -13    1    4    4    0    0  0.90019695815E+02 -0.60670217219E+02  0.85026428356E+02  0.13789095116E+03  0.00000000000E+00 0.  1.
         14    1    4    4    0    0 -0.10501487557E+02 -0.26777855890E+02  0.45868759562E+02  0.54141277328E+02  0.00000000000E+00 0. -1.
         -5    1    5    5    0  502  0.15413065020E+02  0.38437666378E+02  0.21622102280E+02  0.46953403251E+02  0.47000000000E+01 0.  1.
         13    1    6    6    0    0 -0.69658599908E+01 -0.18804793293E+02  0.49136704586E+02  0.53071265236E+02  0.00000000000E+00 0. -1.
        -14    1    6    6    0    0 -0.15728945549E+03  0.21023962875E+02  0.20731838564E+03  0.26108024216E+03  0.00000000000E+00 0.  1.
</event>
<event>
12    1  0.8407180E-002  0.2208818E+03  0.7818608E-02  0.1133413E+00
         21   -1    0    0  503  502  0.00000000000E+00  0.00000000000E+00  0.54565286649E+03  0.54565286649E+03  0.00000000000E+00 0.  1.
         21   -1    0    0  501  503 -0.00000000000E+00 -0.00000000000E+00 -0.83012127964E+03  0.83012127964E+03  0.00000000000E+00 0. -1.
          6    2    1    2  501    0 -0.13654014913E+03  0.23180066947E+02 -0.79216190530E+03  0.82211230882E+03  0.17078535148E+03 0.  0.
         24    2    3    3    0    0 -0.17085928107E+02  0.51276257254E+02 -0.31190640902E+03  0.32640459400E+03  0.79581200652E+02 0.  0.
         -6    2    1    2    0  502  0.13654014913E+03 -0.23180066947E+02  0.50769349216E+03  0.55366183731E+03  0.17207039342E+03 0.  0.
        -24    2    5    5    0    0  0.98432456412E+02 -0.67641863700E+02  0.23714930591E+03  0.27681297181E+03  0.78238467980E+02 0.  0.
          5    1    3    3  501    0 -0.11945422102E+03 -0.28096190307E+02 -0.48025549628E+03  0.49570771482E+03  0.47000000000E+01 0. -1.
        -13    1    4    4    0    0 -0.42031726300E+01  0.66592968461E+02 -0.16253591158E+03  0.17569921076E+03  0.00000000000E+00 0.  1.
         14    1    4    4    0    0 -0.12882755477E+02 -0.15316711207E+02 -0.14937049744E+03  0.15070538324E+03  0.00000000000E+00 0. -1.
         -5    1    5    5    0  502  0.38107692716E+02  0.44461796753E+02  0.27054418625E+03  0.27684886550E+03  0.47000000000E+01 0.  1.
         13    1    6    6    0    0 -0.68024595912E+01 -0.21582710479E+02  0.73251154881E+02  0.76666932503E+02  0.00000000000E+00 0. -1.
        -14    1    6    6    0    0  0.10523491600E+03 -0.46059153221E+02  0.16389815103E+03  0.20014603931E+03  0.00000000000E+00 0.  1.
</event>
<event>
12    1  0.8407180E-002  0.2259558E+03  0.7818608E-02  0.1129872E+00
         21   -1    0    0  503  502  0.00000000000E+00  0.00000000000E+00  0.39203403117E+02  0.39203403117E+02  0.00000000000E+00 0.  1.
         21   -1    0    0  501  503 -0.00000000000E+00 -0.00000000000E+00 -0.22758028329E+04  0.22758028329E+04  0.00000000000E+00 0. -1.
          6    2    1    2  501    0 -0.96957354906E+02  0.10641363806E+03 -0.18769278101E+04  0.18902478460E+04  0.17162262030E+03 0.  0.
         24    2    3    3    0    0 -0.28090297211E+02 -0.14811605472E+02 -0.52920063097E+03  0.53532022034E+03  0.74202304764E+02 0.  0.
         -6    2    1    2    0  502  0.96957354906E+02 -0.10641363806E+03 -0.35967161967E+03  0.42475839004E+03  0.17415919407E+03 0.  0.
        -24    2    5    5    0    0  0.58244408875E+02 -0.12277032406E+03 -0.34649235002E+03  0.38046373443E+03  0.78935042637E+02 0.  0.
          5    1    3    3  501    0 -0.68867057695E+02  0.12122524353E+03 -0.13477271791E+04  0.13549276256E+04  0.47000000000E+01 0. -1.
        -13    1    4    4    0    0 -0.27827286730E+02  0.17844526660E+02 -0.11026510954E+03  0.11511376721E+03  0.00000000000E+00 0.  1.
         14    1    4    4    0    0 -0.26301048174E+00 -0.32656132132E+02 -0.41893552143E+03  0.42020645313E+03  0.00000000000E+00 0. -1.
         -5    1    5    5    0  502  0.38712946031E+02  0.16356685999E+02 -0.13179269643E+02  0.44294655610E+02  0.47000000000E+01 0.  1.
         11    1    6    6    0    0  0.26658004494E+02  0.34082353855E+01 -0.52358436160E+02  0.58852961770E+02  0.00000000000E+00 0. -1.
        -12    1    6    6    0    0  0.31586404381E+02 -0.12617855945E+03 -0.29413391387E+03  0.32161077266E+03  0.00000000000E+00 0.  1.
</event>
<event>
12    1  0.8407180E-002  0.1768805E+03  0.7818608E-02  0.1171116E+00
         21   -1    0    0  503  502  0.00000000000E+00  0.00000000000E+00  0.10329437655E+03  0.10329437655E+03  0.00000000000E+00 0. -1.
         21   -1    0    0  501  503 -0.00000000000E+00 -0.00000000000E+00 -0.36961102026E+03  0.36961102026E+03  0.00000000000E+00 0.  1.
          6    2    1    2  501    0  0.22405305419E+02  0.33144722801E+02 -0.23463709978E+03  0.29321038361E+03  0.17122263314E+03 0.  0.
         24    2    3    3    0    0 -0.35786480559E+02 -0.26514789184E+01 -0.59544549059E+02  0.10520202387E+03  0.78957013447E+02 0.  0.
         -6    2    1    2    0  502 -0.22405305419E+02 -0.33144722801E+02 -0.31679543927E+02  0.17969501321E+03  0.17229664509E+03 0.  0.
        -24    2    5    5    0    0 -0.41103577013E+02 -0.77396571229E+02  0.12997351020E+02  0.11392293409E+03  0.71622416156E+02 0.  0.
          5    1    3    3  501    0  0.58191785978E+02  0.35796201719E+02 -0.17509255072E+03  0.18800835974E+03  0.47000000000E+01 0. -1.
        -11    1    4    4    0    0 -0.22424869403E+02 -0.34100829351E+02 -0.58098647065E+02  0.71001367036E+02  0.00000000000E+00 0.  1.
         12    1    4    4    0    0 -0.13361611156E+02  0.31449350432E+02 -0.14459019939E+01  0.34200656834E+02  0.00000000000E+00 0. -1.
         -5    1    5    5    0  502  0.18698271594E+02  0.44251848428E+02 -0.44676894946E+02  0.65772079122E+02  0.47000000000E+01 0.  1.
         11    1    6    6    0    0 -0.19037660972E+02 -0.53671664615E+02  0.41743490423E+02  0.70608775025E+02  0.00000000000E+00 0. -1.
        -12    1    6    6    0    0 -0.22065916041E+02 -0.23724906614E+02 -0.28746139403E+02  0.43314159061E+02  0.00000000000E+00 0.  1.
</event>
<event>
12    1  0.8407180E-002  0.2963689E+03  0.7818608E-02  0.1087171E+00
         21   -1    0    0  501  502  0.00000000000E+00  0.00000000000E+00  0.83175708900E+03  0.83175708900E+03  0.00000000000E+00 0.  1.
         21   -1    0    0  502  503 -0.00000000000E+00 -0.00000000000E+00 -0.16838973076E+03  0.16838973076E+03  0.00000000000E+00 0. -1.
         -6    2    1    2    0  503 -0.77246367899E+02 -0.22817603896E+03  0.63801427356E+03  0.70348895876E+03  0.17263602093E+03 0.  0.
        -24    2    3    3    0    0 -0.73695335363E+01 -0.96160355541E+02  0.16436254891E+03  0.20682110303E+03  0.80366642163E+02 0.  0.
          6    2    1    2  501    0  0.77246367899E+02  0.22817603896E+03  0.25353084674E+02  0.29665786100E+03  0.17126529563E+03 0.  0.
         24    2    5    5    0    0 -0.32289013844E+01  0.19224610023E+03  0.21314405045E+02  0.20830838225E+03  0.77259882181E+02 0.  0.
          5    1    5    5  501    0  0.80475269284E+02  0.35929938724E+02  0.40386796298E+01  0.88349478754E+02  0.47000000000E+01 0. -1.
        -13    1    6    6    0    0  0.41416191463E+01  0.10223114270E+03  0.49549391479E+02  0.11368158049E+03  0.00000000000E+00 0.  1.
         14    1    6    6    0    0 -0.73705205307E+01  0.90014957528E+02 -0.28234986434E+02  0.94626801756E+02  0.00000000000E+00 0. -1.
         -5    1    3    3    0  503 -0.69876834363E+02 -0.13201568341E+03  0.47365172465E+03  0.49666785573E+03  0.47000000000E+01 0.  1.
         11    1    4    4    0    0 -0.38844256562E+01 -0.73797653050E+02  0.47640324822E+02  0.87924870813E+02  0.00000000000E+00 0. -1.
        -12    1    4    4    0    0 -0.34851078801E+01 -0.22362702492E+02  0.11672222409E+03  0.11889623222E+03  0.00000000000E+00 0.  1.
</event>
<event>
12    1  0.8407180E-002  0.2000662E+03  0.7818608E-02  0.1149942E+00
         21   -1    0    0  503  502  0.00000000000E+00  0.00000000000E+00  0.57095557475E+03  0.57095557475E+03  0.00000000000E+00 0. -1.
         21   -1    0    0  501  503 -0.00000000000E+00 -0.00000000000E+00 -0.70891247215E+02  0.70891247215E+02  0.00000000000E+00 0. -1.
          6    2    1    2  501    0  0.57624070259E+02  0.84371980777E+02  0.29129803030E+03  0.35269316808E+03  0.17058359752E+03 0.  0.
         24    2    3    3    0    0  0.58019966118E+02  0.28642359222E+02  0.27628072213E+03  0.29478326395E+03  0.79871359532E+02 0.  0.
         -6    2    1    2    0  502 -0.57624070259E+02 -0.84371980777E+02  0.20876629724E+03  0.28915365388E+03  0.17200960461E+03 0.  0.
        -24    2    5    5    0    0 -0.10517191933E+03 -0.51923016832E+02  0.16270490491E+03  0.21527892833E+03  0.78198456550E+02 0.  0.
          5    1    3    3  501    0 -0.39589585903E+00  0.55729621555E+02  0.15017308169E+02  0.57909904134E+02  0.47000000000E+01 0. -1.
        -13    1    4    4    0    0 -0.16554412694E+02  0.57397770481E+01  0.10657404468E+03  0.10800472498E+03  0.00000000000E+00 0.  1.
         14    1    4    4    0    0  0.74574378812E+02  0.22902582174E+02  0.16970667745E+03  0.18677853896E+03  0.00000000000E+00 0. -1.
         -5    1    5    5    0  502  0.47547849075E+02 -0.32448963945E+02  0.46061392329E+02  0.73874725557E+02  0.47000000000E+01 0.  1.
         13    1    6    6    0    0 -0.34341682277E+02  0.15640715215E+02  0.74511431923E+02  0.83522072539E+02  0.00000000000E+00 0. -1.
        -14    1    6    6    0    0 -0.70830237058E+02 -0.67563732047E+02  0.88193472984E+02  0.13175685579E+03  0.00000000000E+00 0.  1.
</event>
<event>
12    1  0.8407180E-002  0.2993376E+03  0.7818608E-02  0.1085609E+00
         21   -1    0    0  503  502  0.00000000000E+00  0.00000000000E+00  0.17718992375E+03  0.17718992375E+03  0.00000000000E+00 0. -1.
         21   -1    0    0  501  503 -0.00000000000E+00 -0.00000000000E+00 -0.82198288794E+03  0.82198288794E+03  0.00000000000E+00 0.  1.
          6    2    1    2  501    0  0.17900742001E+03 -0.16689873662E+03 -0.63263631069E+03  0.69987979115E+03  0.17234899409E+03 0.  0.
         24    2    3    3    0    0  0.12931757554E+03 -0.45353405522E+02 -0.25572064578E+03  0.30071834937E+03  0.79110746642E+02 0.  0.
         -6    2    1    2    0  502 -0.17900742001E+03  0.16689873662E+03 -0.12156653506E+02  0.29929302054E+03  0.17184202982E+03 0.  0.
        -24    2    5    5    0    0 -0.72069671176E+02  0.13806557819E+03  0.34775442222E+02  0.17891135765E+03  0.80893764460E+02 0.  0.
          5    1    3    3  501    0  0.49689844470E+02 -0.12154533110E+03 -0.37691566491E+03  0.39916144179E+03  0.47000000000E+01 0. -1.
        -13    1    4    4    0    0  0.24076053576E+02 -0.23398716913E+02 -0.13479696498E+03  0.13891500306E+03  0.00000000000E+00 0.  1.
         14    1    4    4    0    0  0.10524152196E+03 -0.21954688609E+02 -0.12092368080E+03  0.16180334631E+03  0.00000000000E+00 0. -1.
         -5    1    5    5    0  502 -0.10693774883E+03  0.28833158427E+02 -0.46932095728E+02  0.12038166289E+03  0.47000000000E+01 0.  1.
         13    1    6    6    0    0  0.14166477301E+02  0.18583850278E+01  0.28184984816E+01  0.14563193596E+02  0.00000000000E+00 0. -1.
        -14    1    6    6    0    0 -0.86236148477E+02  0.13620719316E+03  0.31956943740E+02  0.16434816405E+03  0.00000000000E+00 0.  1.
</event>
<event>
12    1  0.8407180E-002  0.1939679E+03  0.7818608E-02  0.1154971E+00
         21   -1    0    0  503  502  0.00000000000E+00  0.00000000000E+00  0.73995528971E+03  0.73995528971E+03  0.00000000000E+00 0.  1.
         21   -1    0    0  501  503 -0.00000000000E+00 -0.00000000000E+00 -0.51139335844E+02  0.51139335844E+02  0.00000000000E+00 0.  1.
          6    2    1    2  501    0  0.28254053056E+00 -0.89757949565E+02  0.37660460090E+03  0.42353580293E+03  0.17174103063E+03 0.  0.
         24    2    3    3    0    0  0.13348582163E+02 -0.92501338629E+02  0.38704809044E+03  0.40594591659E+03  0.79064407871E+02 0.  0.
         -6    2    1    2    0  502 -0.28254053056E+00  0.89757949565E+02  0.31221135296E+03  0.36755882262E+03  0.17195054473E+03 0.  0.
        -24    2    5    5    0    0 -0.17197576895E+02 -0.20423038591E+02  0.15064120202E+03  0.17120971445E+03  0.76857904077E+02 0.  0.
          5    1    3    3  501    0 -0.13066041632E+02  0.27433890648E+01 -0.10443489539E+02  0.17589886334E+02  0.47000000000E+01 0. -1.
        -11    1    4    4    0    0  0.31277524313E+02 -0.30426764246E+02  0.70814189767E+02  0.83178849367E+02  0.00000000000E+00 0.  1.
         12    1    4    4    0    0 -0.17928942151E+02 -0.62074574384E+02  0.31623390067E+03  0.32276706722E+03  0.00000000000E+00 0. -1.
         -5    1    5    5    0  502  0.16915036364E+02  0.11018098816E+03  0.16157015094E+03  0.19634910818E+03  0.47000000000E+01 0.  1.
         11    1    6    6    0    0 -0.46259549361E+02 -0.14499385759E+02  0.11526758493E+03  0.12504716802E+03  0.00000000000E+00 0. -1.
        -12    1    6    6    0    0  0.29061972467E+02 -0.59236528321E+01  0.35373617085E+02  0.46162546423E+02  0.00000000000E+00 0.  1.
</event>
<event>
12    1  0.8407180E-002  0.1996275E+03  0.7818608E-02  0.1150226E+00
         21   -1    0    0  501  502  0.00000000000E+00  0.00000000000E+00  0.45104083217E+02  0.45104083217E+02  0.00000000000E+00 0.  1.
         21   -1    0    0  502  503 -0.00000000000E+00 -0.00000000000E+00 -0.88279244340E+03  0.88279244340E+03  0.00000000000E+00 0. -1.
         -6    2    1    2    0  503  0.11199719176E+02  0.97763968227E+02 -0.44437636469E+03  0.48682342526E+03  0.17275261705E+03 0.  0.
        -24    2    3    3    0    0  0.65729908535E+02  0.30629363500E+02 -0.29348709316E+03  0.31283992327E+03  0.80470895084E+02 0.  0.
          6    2    1    2  501    0 -0.11199719176E+02 -0.97763968227E+02 -0.39331199550E+03  0.44107310135E+03  0.17368916991E+03 0.  0.
         24    2    5    5    0    0 -0.19181098663E+02 -0.10844768431E+03 -0.40202537658E+03  0.42446415142E+03  0.80103668152E+02 0.  0.
          5    1    5    5  501    0  0.79813794871E+01  0.10683716083E+02  0.87133810848E+01  0.16608949930E+02  0.47000000000E+01 0. -1.
        -13    1    6    6    0    0 -0.47360869190E+02 -0.40693840030E+02 -0.16956269186E+03  0.18069462366E+03  0.00000000000E+00 0.  1.
         14    1    6    6    0    0  0.28179770527E+02 -0.67753844279E+02 -0.23246268472E+03  0.24376952777E+03  0.00000000000E+00 0. -1.
         -5    1    3    3    0  503 -0.54530189360E+02  0.67134604727E+02 -0.15088927153E+03  0.17398350199E+03  0.47000000000E+01 0.  1.
         13    1    4    4    0    0  0.59099347383E+02  0.36118590823E+02 -0.29590166111E+03  0.30389978366E+03  0.00000000000E+00 0. -1.
        -14    1    4    4    0    0  0.66305611522E+01 -0.54892273230E+01  0.24145679487E+01  0.89401396061E+01  0.00000000000E+00 0.  1.
</event>
<event>
12    1  0.8407180E-002  0.1965558E+03  0.7818608E-02  0.1152848E+00
         21   -1    0    0  501  502  0.00000000000E+00  0.00000000000E+00  0.32291586887E+03  0.32291586887E+03  0.00000000000E+00 0. -1.
         21   -1    0    0  502  503 -0.00000000000E+00 -0.00000000000E+00 -0.12691798318E+03  0.12691798318E+03  0.00000000000E+00 0.  1.
         -6    2    1    2    0  503  0.91744483607E+02 -0.30144566929E+02  0.42220073431E+02  0.20027066094E+03  0.17029403350E+03 0.  0.
        -24    2    3    3    0    0  0.93245162849E+01 -0.59729859285E+02  0.50713026293E+02  0.11216526505E+03  0.79715951688E+02 0.  0.
          6    2    1    2  501    0 -0.91744483607E+02  0.30144566929E+02  0.15377781225E+03  0.24956319111E+03  0.17119703744E+03 0.  0.
         24    2    5    5    0    0  0.13055842031E+02  0.31669590638E+02  0.42850588836E+02  0.96879292657E+02  0.79849899184E+02 0.  0.
          5    1    5    5  501    0 -0.10480032564E+03 -0.15250237082E+01  0.11092722342E+03  0.15268389845E+03  0.47000000000E+01 0.  1.
        -13    1    6    6    0    0 -0.26544565313E+01  0.85772985559E+01 -0.23356141462E+02  0.25022500554E+02  0.00000000000E+00 0.  1.
         14    1    6    6    0    0  0.15710298563E+02  0.23092292082E+02  0.66206730298E+02  0.71856792102E+02  0.00000000000E+00 0. -1.
         -5    1    3    3    0  503  0.82419967322E+02  0.29585292356E+02 -0.84929528617E+01  0.88105395893E+02  0.47000000000E+01 0.  1.
         11    1    4    4    0    0  0.37962942027E+02 -0.51209089697E+01  0.21575486622E+02  0.43964875742E+02  0.00000000000E+00 0. -1.
        -12    1    4    4    0    0 -0.28638425742E+02 -0.54608950316E+02  0.29137539670E+02  0.68200389307E+02  0.00000000000E+00 0.  1.
</event>
<event>
12    1  0.8407180E-002  0.2135863E+03  0.7818608E-02  0.1139127E+00
         21   -1    0    0  501  502  0.00000000000E+00  0.00000000000E+00  0.19916034070E+03  0.19916034070E+03  0.00000000000E+00 0. -1.
         21   -1    0    0  502  503 -0.00000000000E+00 -0.00000000000E+00 -0.24541739315E+03  0.24541739315E+03  0.00000000000E+00 0. -1.
         -6    2    1    2    0  503 -0.27541289565E+02  0.12303931756E+03 -0.84080322472E+02  0.22954000346E+03  0.17240045320E+03 0.  0.
        -24    2    3    3    0    0  0.16219961713E+02  0.12211554996E+03 -0.14393502244E+02  0.14711280301E+03  0.79118324060E+02 0.  0.
          6    2    1    2  501    0  0.27541289565E+02 -0.12303931756E+03  0.37823270024E+02  0.21503773039E+03  0.17003949377E+03 0.  0.
         24    2    5    5    0    0  0.81861579654E+02 -0.77934990064E+02  0.41357951392E+02  0.14418804269E+03  0.79401074383E+02 0.  0.
          5    1    5    5  501    0 -0.54320290089E+02 -0.45104327498E+02 -0.35346813683E+01  0.70849687697E+02  0.47000000000E+01 0. -1.
        -11    1    6    6    0    0  0.50980608686E+02 -0.88500954114E+01  0.44792177125E+02  0.68437458912E+02  0.00000000000E+00 0.  1.
         12    1    6    6    0    0  0.30880970968E+02 -0.69084894652E+02 -0.34342257327E+01  0.75750583783E+02  0.00000000000E+00 0. -1.
         -5    1    3    3    0  503 -0.43761251277E+02  0.92376759975E+00 -0.69686820227E+02  0.82427200446E+02  0.47000000000E+01 0.  1.
         13    1    4    4    0    0  0.44756932414E+02  0.67127261414E+02 -0.24552694094E+02  0.84333190449E+02  0.00000000000E+00 0. -1.
        -14    1    4    4    0    0 -0.28536970701E+02  0.54988288547E+02  0.10159191850E+02  0.62779612560E+02  0.00000000000E+00 0.  1.
</event>
<event>
12    1  0.8407180E-002  0.2237146E+03  0.7818608E-02  0.1131542E+00
         21   -1    0    0  503  502  0.00000000000E+00  0.00000000000E+00  0.11545945896E+03  0.11545945896E+03  0.00000000000E+00 0. -1.
         21   -1    0    0  501  503 -0.00000000000E+00 -0.00000000000E+00 -0.10285350868E+04  0.10285350868E+04  0.00000000000E+00 0.  1.
          6    2    1    2  501    0 -0.64275094406E+02 -0.12578423567E+03 -0.89221527710E+03  0.91930950423E+03  0.17067191381E+03 0.  0.
         24    2    3    3    0    0 -0.94622310926E+02 -0.13638740941E+03 -0.67195422382E+03  0.69666538812E+03  0.79153502291E+02 0.  0.
         -6    2    1    2    0  502  0.64275094406E+02  0.12578423567E+03 -0.20860350765E+02  0.22468504156E+03  0.17347983157E+03 0.  0.
        -24    2    5    5    0    0  0.33393914495E+02  0.14841750696E+03  0.13620623760E+02  0.17294588959E+03  0.81128598147E+02 0.  0.
          5    1    3    3  501    0  0.30347216520E+02  0.10603173741E+02 -0.22026105328E+03  0.22264411611E+03  0.47000000000E+01 0. -1.
        -11    1    4    4    0    0 -0.83736021707E+02 -0.96226480217E+02 -0.60119417742E+03  0.61457765644E+03  0.00000000000E+00 0.  1.
         12    1    4    4    0    0 -0.10886289219E+02 -0.40160929192E+02 -0.70760046397E+02  0.82087731681E+02  0.00000000000E+00 0. -1.
         -5    1    5    5    0  502  0.30881179910E+02 -0.22633271293E+02 -0.34480974524E+02  0.51739151967E+02  0.47000000000E+01 0.  1.
         11    1    6    6    0    0 -0.15462893103E+02  0.55976472754E+02 -0.22565978209E+02  0.62303209690E+02  0.00000000000E+00 0. -1.
        -12    1    6    6    0    0  0.48856807598E+02  0.92441034207E+02  0.36186601969E+02  0.11064267990E+03  0.00000000000E+00 0.  1.
</event>
<event>
12    1  0.8407180E-002  0.3000479E+03  0.7818608E-02  0.1085277E+00
         21   -1    0    0  503  502  0.00000000000E+00  0.00000000000E+00  0.17403461333E+03  0.17403461333E+03  0.00000000000E+00 0. -1.
         21   -1    0    0  501  503 -0.00000000000E+00 -0.00000000000E+00 -0.56237073677E+03  0.56237073677E+03  0.00000000000E+00 0. -1.
          6    2    1    2  501    0 -0.22264158167E+03  0.10288108377E+03 -0.29949443051E+03  0.42394060963E+03  0.17284367301E+03 0.  0.
         24    2    3    3    0    0 -0.13772000743E+03  0.75801149773E+02 -0.28226869330E+03  0.33303509484E+03  0.80772176049E+02 0.  0.
         -6    2    1    2    0  502  0.22264158167E+03 -0.10288108377E+03 -0.88841692924E+02  0.31246474047E+03  0.17201039606E+03 0.  0.
        -24    2    5    5    0    0  0.15135017143E+03 -0.87848570972E+02 -0.12522459494E+03  0.23089117138E+03  0.83697598729E+02 0.  0.
          5    1    3    3  501    0 -0.84921574235E+02  0.27079934001E+02 -0.17225737208E+02  0.90905514785E+02  0.47000000000E+01 0. -1.
        -11    1    4    4    0    0  0.11157032807E+00  0.32111218883E+02 -0.53980774381E+02  0.62809766986E+02  0.00000000000E+00 0.  1.
         12    1    4    4    0    0 -0.13783157776E+03  0.43689930889E+02 -0.22828791892E+03  0.27022532786E+03  0.00000000000E+00 0. -1.
         -5    1    5    5    0  502  0.71291410241E+02 -0.15032512801E+02  0.36382902013E+02  0.81573569091E+02  0.47000000000E+01 0.  1.
         11    1    6    6    0    0  0.83734986434E+02 -0.18377351822E+02 -0.97984705409E+02  0.13019323142E+03  0.00000000000E+00 0. -1.
        -12    1    6    6    0    0  0.67615184993E+02 -0.69471219150E+02 -0.27239889528E+02  0.10069793997E+03  0.00000000000E+00 0.  1.
</event>
<event>
12    1  0.8407180E-002  0.1913900E+03  0.7818608E-02  0.1157508E+00
         21   -1    0    0  503  502  0.00000000000E+00  0.00000000000E+00  0.19615283297E+03  0.19615283297E+03  0.00000000000E+00 0. -1.
         21   -1    0    0  501  503 -0.00000000000E+00 -0.00000000000E+00 -0.20805026217E+03  0.20805026217E+03  0.00000000000E+00 0. -1.
          6    2    1    2  501    0  0.60434495690E+02 -0.54982643150E+02 -0.72522750098E+02  0.20344068870E+03  0.17161918663E+03 0.  0.
         24    2    3    3    0    0  0.99041930877E+02 -0.17990159517E+02 -0.24428346695E+02  0.13137030965E+03  0.80798912272E+02 0.  0.
         -6    2    1    2    0  502 -0.60434495690E+02  0.54982643150E+02  0.60625320901E+02  0.20076240644E+03  0.17307424704E+03 0.  0.
        -24    2    5    5    0    0 -0.81509615557E+01  0.27279769234E+02  0.98392501810E+02  0.13040995717E+03  0.80715850560E+02 0.  0.
          5    1    3    3  501    0 -0.38607435187E+02 -0.36992483633E+02 -0.48094403403E+02  0.72070379045E+02  0.47000000000E+01 0. -1.
        -11    1    4    4    0    0  0.59854291850E+02 -0.18503260272E+01  0.26183724397E+02  0.65357075995E+02  0.00000000000E+00 0.  1.
         12    1    4    4    0    0  0.39187639027E+02 -0.16139833489E+02 -0.50612071092E+02  0.66013233657E+02  0.00000000000E+00 0. -1.
         -5    1    5    5    0  502 -0.52283534135E+02  0.27702873916E+02 -0.37767180909E+02  0.70352449272E+02  0.47000000000E+01 0.  1.
         11    1    6    6    0    0  0.36225661494E+02  0.96539473598E+01  0.49183016937E+02  0.61842270376E+02  0.00000000000E+00 0. -1.
        -12    1    6    6    0    0 -0.44376623050E+02  0.17625821874E+02  0.49209484873E+02  0.68567686789E+02  0.00000000000E+00 0.  1.
</event>
<event>
12    1  0.8407180E-002  0.2156547E+03  0.7818608E-02  0.1137507E+00
         21   -1    0    0  503  502  0.00000000000E+00  0.00000000000E+00  0.18598519015E+04  0.18598519015E+04  0.00000000000E+00 0.  1.
         21   -1    0    0  501  503 -0.00000000000E+00 -0.00000000000E+00 -0.33818218205E+02  0.33818218205E+02  0.00000000000E+00 0. -1.
          6    2    1    2  501    0  0.10971292215E+03 -0.66782308151E+02  0.42683770099E+03  0.47822312963E+03  0.17323434059E+03 0.  0.
         24    2    3    3    0    0  0.95139716334E+02 -0.49980725017E+02  0.15133406768E+03  0.20178323835E+03  0.79150721676E+02 0.  0.
         -6    2    1    2    0  502 -0.10971292215E+03  0.66782308151E+02  0.13991959823E+04  0.14154469900E+04  0.17100872153E+03 0.  0.
        -24    2    5    5    0    0 -0.14033972541E+03  0.52116547218E+02  0.12889080271E+04  0.12999540955E+04  0.78647156322E+02 0.  0.
          5    1    3    3  501    0  0.14573205815E+02 -0.16801583134E+02  0.27550363331E+03  0.27643989128E+03  0.47000000000E+01 0. -1.
        -13    1    4    4    0    0  0.83979105172E+01 -0.12842453122E+01  0.77339420317E+02  0.77804627896E+02  0.00000000000E+00 0.  1.
         14    1    4    4    0    0  0.86741805817E+02 -0.48696479704E+02  0.73994647358E+02  0.12397861045E+03  0.00000000000E+00 0. -1.
         -5    1    5    5    0  502  0.30626803259E+02  0.14665760933E+02  0.11028795521E+03  0.11549289452E+03  0.47000000000E+01 0.  1.
         11    1    6    6    0    0 -0.58893272490E+02 -0.37094071568E+01  0.27561295541E+03  0.28185932384E+03  0.00000000000E+00 0. -1.
        -12    1    6    6    0    0 -0.81446452918E+02  0.55825954375E+02  0.10132950717E+04  0.10180947717E+04  0.00000000000E+00 0.  1.
</event>
<event>
12    1  0.8407180E-002  0.3185532E+03  0.7818608E-02  0.1076503E+00
         21   -1    0    0  503  502  0.00000000000E+00  0.00000000000E+00  0.51989674735E+03  0.51989674735E+03  0.00000000000E+00 0. -1.
         21   -1    0    0  501  503 -0.00000000000E+00 -0.00000000000E+00 -0.19886747540E+03  0.19886747540E+03  0.00000000000E+00 0. -1.
          6    2    1    2  501    0  0.20283266890E+03 -0.17254365793E+03  0.21594349668E+03  0.38484765451E+03  0.17482482079E+03 0.  0.
         24    2    3    3    0    0  0.87241327509E+02 -0.99050889822E+02  0.19037748149E+03  0.24542650726E+03  0.81046017838E+02 0.  0.
         -6    2    1    2    0  502 -0.20283266890E+03  0.17254365793E+03  0.10508577528E+03  0.33391656824E+03  0.17188615104E+03 0.  0.
        -24    2    5    5    0    0 -0.14374198154E+03  0.86313671315E+02  0.13156956920E+03  0.22597769079E+03  0.75123618694E+02 0.  0.
          5    1    3    3  501    0  0.11559134139E+03 -0.73492768109E+02  0.25566015183E+02  0.13942114725E+03  0.47000000000E+01 0. -1.
        -11    1    4    4    0    0  0.16909321569E+02  0.12781101430E+02  0.39936819634E+02  0.45213175869E+02  0.00000000000E+00 0.  1.
         12    1    4    4    0    0  0.70332005940E+02 -0.11183199125E+03  0.15044066186E+03  0.20021333139E+03  0.00000000000E+00 0. -1.
         -5    1    5    5    0  502 -0.59090687360E+02  0.86229986616E+02 -0.26483793923E+02  0.10793887745E+03  0.47000000000E+01 0.  1.
         13    1    6    6    0    0 -0.11046786263E+03  0.36833924128E+02  0.54595079472E+02  0.12860991153E+03  0.00000000000E+00 0. -1.
        -14    1    6    6    0    0 -0.33274118908E+02  0.49479747187E+02  0.76974489728E+02  0.97367779268E+02  0.00000000000E+00 0.  1.
</event>
<event>
12    1  0.8407180E-002  0.1981397E+03  0.7818608E-02  0.1151760E+00
         21   -1    0    0  503  502  0.00000000000E+00  0.00000000000E+00  0.55011039480E+03  0.55011039480E+03  0.00000000000E+00 0. -1.
         21   -1    0    0  501  503 -0.00000000000E+00 -0.00000000000E+00 -0.85570329454E+02  0.85570329454E+02  0.00000000000E+00 0.  1.
          6    2    1    2  501    0  0.83181326782E+00  0.94601753589E+02  0.36609563133E+03  0.41627559029E+03  0.17409529601E+03 0.  0.
         24    2    3    3    0    0  0.30591743429E+02  0.12818144890E+03  0.28842882669E+03  0.32645648361E+03  0.77564869741E+02 0.  0.
         -6    2    1    2    0  502 -0.83181326782E+00 -0.94601753589E+02  0.98444434016E+02  0.21940513397E+03  0.17174726352E+03 0.  0.
        -24    2    5    5    0    0  0.61611546016E+02 -0.41500330148E+02  0.37451318242E+02  0.11712520211E+03  0.82446659880E+02 0.  0.
          5    1    3    3  501    0 -0.29759930162E+02 -0.33579695313E+02  0.77666804641E+02  0.89819106674E+02  0.47000000000E+01 0. -1.
        -13    1    4    4    0    0  0.13681012806E+02  0.11501108858E+03  0.28072538468E+03  0.30367986797E+03  0.00000000000E+00 0.  1.
         14    1    4    4    0    0  0.16910730624E+02  0.13170360327E+02  0.77034420125E+01  0.22776615644E+02  0.00000000000E+00 0. -1.
         -5    1    5    5    0  502 -0.62443359284E+02 -0.53101423441E+02  0.60993115773E+02  0.10227993186E+03  0.47000000000E+01 0.  1.
         11    1    6    6    0    0 -0.14541967623E+02 -0.12218325443E+02  0.29585666051E+02  0.35157757816E+02  0.00000000000E+00 0. -1.
        -12    1    6    6    0    0  0.76153513638E+02 -0.29282004705E+02  0.78656521918E+01  0.81967444290E+02  0.00000000000E+00 0.  1.
</event>
<event>
12    1  0.8407180E-002  0.2192215E+03  0.7818608E-02  0.1134812E+00
         21   -1    0    0  503  502  0.00000000000E+00  0.00000000000E+00  0.75681096703E+02  0.75681096703E+02  0.00000000000E+00 0.  1.
         21   -1    0    0  501  503 -0.00000000000E+00 -0.00000000000E+00 -0.85626496166E+03  0.85626496166E+03  0.00000000000E+00 0.  1.
          6    2    1    2  501    0  0.11569437197E+03 -0.67579045969E+02 -0.14936997449E+03  0.26374768826E+03  0.17117049578E+03 0.  0.
         24    2    3    3    0    0  0.98846561463E+02 -0.11126413812E+03 -0.11084197380E+03  0.20293047991E+03  0.82124815830E+02 0.  0.
         -6    2    1    2    0  502 -0.11569437197E+03  0.67579045969E+02 -0.63121389047E+03  0.66819837010E+03  0.17351072339E+03 0.  0.
        -24    2    5    5    0    0 -0.12026555195E+03  0.38347961786E+02 -0.61747023502E+03  0.63523884896E+03  0.79526944685E+02 0.  0.
          5    1    3    3  501    0  0.16847810503E+02  0.43685092149E+02 -0.38528000686E+02  0.60817208351E+02  0.47000000000E+01 0. -1.
        -13    1    4    4    0    0  0.46675187760E+02 -0.92035993539E-01 -0.23689715388E+02  0.52342948314E+02  0.00000000000E+00 0.  1.
         14    1    4    4    0    0  0.52171373703E+02 -0.11117210212E+03 -0.87152258416E+02  0.15058753159E+03  0.00000000000E+00 0. -1.
         -5    1    5    5    0  502  0.45711799846E+01  0.29231084183E+02 -0.13743655446E+02  0.32959521143E+02  0.47000000000E+01 0.  1.
         11    1    6    6    0    0 -0.27729315688E+02 -0.19310575454E+02 -0.80379999709E+02  0.87193793506E+02  0.00000000000E+00 0. -1.
        -12    1    6    6    0    0 -0.92536236263E+02  0.57658537240E+02 -0.53709023531E+03  0.54804505545E+03  0.00000000000E+00 0.  1.
</event>
<event>
12    1  0.8407180E-002  0.3013658E+03  0.7818608E-02  0.1084576E+00
         21   -1    0    0  503  502  0.00000000000E+00  0.00000000000E+00  0.11461272551E+03  0.11461272551E+03  0.00000000000E+00 0. -1.
         21   -1    0    0  501  503 -0.00000000000E+00 -0.00000000000E+00 -0.94461482297E+03  0.94461482297E+03  0.00000000000E+00 0.  1.
          6    2    1    2  501    0 -0.10751440329E+03 -0.22202521212E+03 -0.20209824921E+03  0.36274741296E+03  0.17287984712E+03 0.  0.
         24    2    3    3    0    0 -0.96434884461E+02 -0.91646559463E+02 -0.16434915616E+03  0.22648137598E+03  0.81144252630E+02 0.  0.
         -6    2    1    2    0  502  0.10751440329E+03  0.22202521212E+03 -0.62790384825E+03  0.69648013552E+03  0.17310919904E+03 0.  0.
        -24    2    5    5    0    0  0.17783536962E+02  0.18066294245E+03 -0.36101098991E+03  0.41184641728E+03  0.79581302014E+02 0.  0.
          5    1    3    3  501    0 -0.11079518827E+02 -0.13037865266E+03 -0.37749093059E+02  0.13626603698E+03  0.47000000000E+01 0. -1.
        -11    1    4    4    0    0  0.12322358197E+02 -0.23694130344E+02 -0.38068420640E+02  0.46502225477E+02  0.00000000000E+00 0.  1.
         12    1    4    4    0    0 -0.10875724266E+03 -0.67952429119E+02 -0.12628073552E+03  0.17997915050E+03  0.00000000000E+00 0. -1.
         -5    1    5    5    0  502  0.89730866326E+02  0.41362269670E+02 -0.26689285834E+03  0.28463371824E+03  0.47000000000E+01 0.  1.
         13    1    6    6    0    0  0.21614025380E+02  0.17043297908E+03 -0.26893512776E+03  0.31912484923E+03  0.00000000000E+00 0. -1.
        -14    1    6    6    0    0 -0.38304884180E+01  0.10229963373E+02 -0.92075862145E+02  0.92721568051E+02  0.00000000000E+00 0.  1.
</event>
<event>
12    1  0.8407180E-002  0.2625706E+03  0.7818608E-02  0.1105834E+00
         21   -1    0    0  503  502  0.00000000000E+00  0.00000000000E+00  0.55139459490E+02  0.55139459490E+02  0.00000000000E+00 0. -1.
         21   -1    0    0  501  503 -0.00000000000E+00 -0.00000000000E+00 -0.12498398061E+04  0.12498398061E+04  0.00000000000E+00 0. -1.
          6    2    1    2  501    0  0.49833599604E+02  0.19056839719E+03 -0.64681822121E+03  0.69808101977E+03  0.17361911538E+03 0.  0.
         24    2    3    3    0    0  0.44932478050E+02  0.20985735675E+03 -0.50119187083E+03  0.55102589787E+03  0.79857441554E+02 0.  0.
         -6    2    1    2    0  502 -0.49833599604E+02 -0.19056839719E+03 -0.54788212540E+03  0.60689824582E+03  0.17132120646E+03 0.  0.
        -24    2    5    5    0    0  0.70240446065E+01 -0.66681231941E+02 -0.12080130359E+03  0.15856696230E+03  0.77812612658E+02 0.  0.
          5    1    3    3  501    0  0.49011215537E+01 -0.19288959561E+02 -0.14562635038E+03  0.14705512190E+03  0.47000000000E+01 0. -1.
        -13    1    4    4    0    0 -0.39789601407E+01  0.42294322591E+02 -0.41838749511E+02  0.59624850590E+02  0.00000000000E+00 0.  1.
         14    1    4    4    0    0  0.48911438191E+02  0.16756303416E+03 -0.45935312132E+03  0.49140104728E+03  0.00000000000E+00 0. -1.
         -5    1    5    5    0  502 -0.56857644210E+02 -0.12388716525E+03 -0.42708082181E+03  0.44833128351E+03  0.47000000000E+01 0.  1.
         13    1    6    6    0    0 -0.33657957520E+02 -0.37166813173E+02 -0.77063274170E+02  0.91940080115E+02  0.00000000000E+00 0. -1.
        -14    1    6    6    0    0  0.40682002127E+02 -0.29514418768E+02 -0.43738029419E+02  0.66626882185E+02  0.00000000000E+00 0.  1.
</event>
<event>
12    1  0.8407180E-002  0.1717747E+03  0.7818608E-02  0.1176145E+00
         21   -1    0    0  503  502  0.00000000000E+00  0.00000000000E+00  0.10600188968E+03  0.10600188968E+03  0.00000000000E+00 0. -1.
         21   -1    0    0  501  503 -0.00000000000E+00 -0.00000000000E+00 -0.29316351249E+03  0.29316351249E+03  0.00000000000E+00 0. -1.
          6    2    1    2  501    0  0.72216641537E+01  0.50972720793E+01 -0.47326979437E+02  0.17766984296E+03  0.17102220762E+03 0.  0.
         24    2    3    3    0    0 -0.19242262375E+02  0.51860752211E+02 -0.69313955069E+02  0.11942312993E+03  0.79985356877E+02 0.  0.
         -6    2    1    2    0  502 -0.72216641537E+01 -0.50972720793E+01 -0.13983464337E+03  0.22149555921E+03  0.17154713826E+03 0.  0.
        -24    2    5    5    0    0  0.17471298099E+02 -0.67749767517E+02 -0.84476279397E+02  0.13419311920E+03  0.77306365872E+02 0.  0.
          5    1    3    3  501    0  0.26463926529E+02 -0.46763480132E+02  0.21986975632E+02  0.58246713030E+02  0.47000000000E+01 0. -1.
        -13    1    4    4    0    0  0.20812497692E+02  0.72145179711E+01 -0.52800267157E+02  0.57210816649E+02  0.00000000000E+00 0.  1.
         14    1    4    4    0    0 -0.40054760068E+02  0.44646234240E+02 -0.16513687912E+02  0.62212313286E+02  0.00000000000E+00 0. -1.
         -5    1    5    5    0  502 -0.24692962252E+02  0.62652495438E+02 -0.55358363977E+02  0.87302440009E+02  0.47000000000E+01 0.  1.
         11    1    6    6    0    0  0.38965464574E+02 -0.24431877183E+02 -0.69924202573E+02  0.83693596873E+02  0.00000000000E+00 0. -1.
        -12    1    6    6    0    0 -0.21494166475E+02 -0.43317890334E+02 -0.14552076824E+02  0.50499522328E+02  0.00000000000E+00 0.  1.
</event>
<event>
12    1  0.8407180E-002  0.1725553E+03  0.7818608E-02  0.1175788E+00
         21   -1    0    0  503  502  0.00000000000E+00  0.00000000000E+00  0.23350178500E+03  0.23350178500E+03  0.00000000000E+00 0.  1.
         21   -1    0    0  501  503 -0.00000000000E+00 -0.00000000000E+00 -0.15111837827E+03  0.15111837827E+03  0.00000000000E+00 0.  1.
          6    2    1    2  501    0 -0.56425802263E+01  0.29495334065E+02  0.11958933908E+03  0.20809927020E+03  0.16763616195E+03 0.  0.
         24    2    3    3    0    0 -0.52905470811E+01  0.61006340950E+02  0.13886641170E+03  0.17086000314E+03  0.78482462055E+02 0.  0.
         -6    2    1    2    0  502  0.56425802263E+01 -0.29495334065E+02 -0.37205932349E+02  0.17652089306E+03  0.16992213171E+03 0.  0.
        -24    2    5    5    0    0 -0.60172549456E+02 -0.23530050796E+02 -0.37226773179E+02  0.11026905283E+03  0.81234428497E+02 0.  0.
          5    1    3    3  501    0 -0.35203314524E+00 -0.31511006885E+02 -0.19277072624E+02  0.37239267060E+02  0.47000000000E+01 0. -1.
        -13    1    4    4    0    0 -0.95876435420E+01  0.14734721115E+02 -0.61153595515E+01  0.18612698286E+02  0.00000000000E+00 0.  1.
         14    1    4    4    0    0  0.42970964609E+01  0.46271619835E+02  0.14498177126E+03  0.15224730486E+03  0.00000000000E+00 0. -1.
         -5    1    5    5    0  502  0.65815129682E+02 -0.59652832697E+01  0.20840830481E-01  0.66251840230E+02  0.47000000000E+01 0.  1.
         13    1    6    6    0    0 -0.37504417622E+02  0.20630189829E+02  0.74956453131E+01  0.43455388299E+02  0.00000000000E+00 0. -1.
        -14    1    6    6    0    0 -0.22668131834E+02 -0.44160240625E+02 -0.44722418492E+02  0.66813664536E+02  0.00000000000E+00 0.  1.
</event>
<event>
12    1  0.8407180E-002  0.2404225E+03  0.7818608E-02  0.1119517E+00
         21   -1    0    0  501  502  0.00000000000E+00  0.00000000000E+00  0.26642012856E+03  0.26642012856E+03  0.00000000000E+00 0. -1.
         21   -1    0    0  502  503 -0.00000000000E+00 -0.00000000000E+00 -0.38729364275E+03  0.38729364275E+03  0.00000000000E+00 0.  1.
         -6    2    1    2    0  503 -0.15838223959E+03 -0.54057620001E+02  0.15634520719E+03  0.28676253300E+03  0.17257394480E+03 0.  0.
        -24    2    3    3    0    0 -0.52094246821E+02 -0.83232765591E+02  0.10040551157E+03  0.16307071406E+03  0.82881163181E+02 0.  0.
          6    2    1    2  501    0  0.15838223959E+03  0.54057620001E+02 -0.27721872138E+03  0.36695123832E+03  0.17261469150E+03 0.  0.
         24    2    5    5    0    0  0.16616590672E+02 -0.76876957383E+01 -0.11799851389E+03  0.14495315792E+03  0.82173943305E+02 0.  0.
          5    1    5    5  501    0  0.14176564891E+03  0.61745315739E+02 -0.15922020748E+03  0.22199808040E+03  0.47000000000E+01 0. -1.
        -11    1    6    6    0    0  0.17129923643E+00  0.36778519745E+02 -0.51418536091E+02  0.63218309941E+02  0.00000000000E+00 0.  1.
         12    1    6    6    0    0  0.16445291436E+02 -0.44466215483E+02 -0.66579977804E+02  0.81734847979E+02  0.00000000000E+00 0. -1.
         -5    1    3    3    0  503 -0.10628799276E+03  0.29175145590E+02  0.55939695621E+02  0.12369181894E+03  0.47000000000E+01 0.  1.
         13    1    4    4    0    0 -0.36745794764E+02  0.62265203573E+01  0.35631913714E+02  0.51562159220E+02  0.00000000000E+00 0. -1.
        -14    1    4    4    0    0 -0.15348452058E+02 -0.89459285948E+02  0.64773597853E+02  0.11150855484E+03  0.00000000000E+00 0.  1.
</event>
<event>
12    1  0.8407180E-002  0.1882463E+03  0.7818608E-02  0.1160093E+00
         21   -1    0    0  501  502  0.00000000000E+00  0.00000000000E+00  0.12751375411E+03  0.12751375411E+03  0.00000000000E+00 0.  1.
         21   -1    0    0  502  503 -0.00000000000E+00 -0.00000000000E+00 -0.31957401749E+03  0.31957401749E+03  0.00000000000E+00 0.  1.
         -6    2    1    2    0  503  0.73857661781E+02 -0.49341336359E+01 -0.15095516177E+02  0.18885055736E+03  0.17308194165E+03 0.  0.
        -24    2    3    3    0    0 -0.14513685851E+02 -0.10161086154E+02  0.30005803270E+02  0.89386819587E+02  0.82315007971E+02 0.  0.
          6    2    1    2  501    0 -0.73857661781E+02  0.49341336359E+01 -0.17696474720E+03  0.25823721425E+03  0.17288908928E+03 0.  0.
         24    2    5    5    0    0 -0.90237694895E+02 -0.49289755869E+02 -0.12213872343E+03  0.17926558289E+03  0.81522756529E+02 0.  0.
          5    1    5    5  501    0  0.16380033115E+02  0.54223889505E+02 -0.54826023772E+02  0.78971631365E+02  0.47000000000E+01 0. -1.
        -11    1    6    6    0    0 -0.48535351158E+02  0.16160386671E+02 -0.32080603166E+02  0.60382145614E+02  0.00000000000E+00 0.  1.
         12    1    6    6    0    0 -0.41702343737E+02 -0.65450142541E+02 -0.90058120266E+02  0.11888343727E+03  0.00000000000E+00 0. -1.
         -5    1    3    3    0  503  0.88371347632E+02  0.52269525182E+01 -0.45101319447E+02  0.99463737768E+02  0.47000000000E+01 0.  1.
         13    1    4    4    0    0 -0.18222435590E+02 -0.41944441782E+01 -0.26507153769E+02  0.32438861289E+02  0.00000000000E+00 0. -1.
        -14    1    4    4    0    0  0.37087497391E+01 -0.59666419759E+01  0.56512957039E+02  0.56947958299E+02  0.00000000000E+00 0.  1.
</event>
<event>
12    1  0.8407180E-002  0.2054891E+03  0.7818608E-02  0.1145293E+00
         21   -1    0    0  503  502  0.00000000000E+00  0.00000000000E+00  0.28228908111E+03  0.28228908111E+03  0.00000000000E+00 0.  1.
         21   -1    0    0  501  503 -0.00000000000E+00 -0.00000000000E+00 -0.14926063533E+03  0.14926063533E+03  0.00000000000E+00 0.  1.
          6    2    1    2  501    0 -0.91672858800E+02 -0.61863864184E+02  0.62675900583E+02  0.21483491736E+03  0.17318984517E+03 0.  0.
         24    2    3    3    0    0 -0.11973253780E+03 -0.34497314914E+02  0.83726066786E+02  0.17009709106E+03  0.79981377736E+02 0.  0.
         -6    2    1    2    0  502  0.91672858800E+02  0.61863864184E+02  0.70352545197E+02  0.21671479908E+03  0.17258265496E+03 0.  0.
        -24    2    5    5    0    0 -0.10840823771E+02  0.51829860017E+00  0.86214669293E+01  0.82159421802E+02  0.80981780700E+02 0.  0.
          5    1    3    3  501    0  0.28059678997E+02 -0.27366549270E+02 -0.21050166203E+02  0.44737826295E+02  0.47000000000E+01 0. -1.
        -13    1    4    4    0    0 -0.33881640742E+02  0.54929673238E+01 -0.11102027780E+02  0.36074829039E+02  0.00000000000E+00 0.  1.
         14    1    4    4    0    0 -0.85850897056E+02 -0.39990282238E+02  0.94828094566E+02  0.13402226202E+03  0.00000000000E+00 0. -1.
         -5    1    5    5    0  502  0.10251368257E+03  0.61345565584E+02  0.61731078268E+02  0.13455537728E+03  0.47000000000E+01 0.  1.
         13    1    6    6    0    0 -0.33889708226E+02  0.28975477930E+02  0.22466296374E+00  0.44588576098E+02  0.00000000000E+00 0. -1.
        -14    1    6    6    0    0  0.23048884456E+02 -0.28457179330E+02  0.83968039655E+01  0.37570845704E+02  0.00000000000E+00 0.  1.
</event>
<event>
12    1  0.8407180E-002  0.1827332E+03  0.7818608E-02  0.1165919E+00
         21   -1    0    0  501  502  0.00000000000E+00  0.00000000000E+00  0.29304899192E+04  0.29304899192E+04  0.00000000000E+00 0. -1.
         21   -1    0    0  502  503 -0.00000000000E+00 -0.00000000000E+00 -0.24239027540E+02  0.24239027540E+02  0.00000000000E+00 0. -1.
         -6    2    1    2    0  503  0.37922631448E+02  0.21990516829E+02  0.37543231118E+03  0.41754142545E+03  0.17739704869E+03 0.  0.
        -24    2    3    3    0    0  0.72423603624E+02  0.55249373130E+02  0.18539231069E+03  0.22149612357E+03  0.79953438329E+02 0.  0.
          6    2    1    2  501    0 -0.37922631448E+02 -0.21990516829E+02  0.25308185805E+04  0.25371875213E+04  0.17423008370E+03 0.  0.
         24    2    5    5    0    0  0.34170171830E+02  0.30060874608E+02  0.11979025106E+04  0.12013005279E+04  0.77982541091E+02 0.  0.
          5    1    5    5  501    0 -0.72092803279E+02 -0.52051391437E+02  0.13329160699E+04  0.13358869933E+04  0.47000000000E+01 0. -1.
        -13    1    6    6    0    0  0.45387351808E+02  0.27829781504E+00  0.36806433160E+03  0.37085231744E+03  0.00000000000E+00 0.  1.
         14    1    6    6    0    0 -0.11217179978E+02  0.29782576793E+02  0.82983817898E+03  0.83044821048E+03  0.00000000000E+00 0. -1.
         -5    1    3    3    0  503 -0.34500972175E+02 -0.33258856302E+02  0.19004000049E+03  0.19604530188E+03  0.47000000000E+01 0.  1.
         11    1    4    4    0    0  0.71686042097E+02  0.15677217048E+02  0.78235249123E+02  0.10726331139E+03  0.00000000000E+00 0. -1.
        -12    1    4    4    0    0  0.73756152661E+00  0.39572156083E+02  0.10715706157E+03  0.11423281218E+03  0.00000000000E+00 0.  1.
</event>
<event>
12    1  0.8407180E-002  0.1864073E+03  0.7818608E-02  0.1162037E+00
         21   -1    0    0  501  502  0.00000000000E+00  0.00000000000E+00  0.14656652976E+03  0.14656652976E+03  0.00000000000E+00 0.  1.
         21   -1    0    0  502  503 -0.00000000000E+00 -0.00000000000E+00 -0.23706626292E+03  0.23706626292E+03  0.00000000000E+00 0.  1.
         -6    2    1    2    0  503  0.44426257746E+02  0.53453949679E+02 -0.29644415464E+02  0.18874981142E+03  0.17296439757E+03 0.  0.
        -24    2    3    3    0    0 -0.27991410034E+02  0.77455793788E+02 -0.31303631452E+02  0.11229557592E+03  0.69623702882E+02 0.  0.
          6    2    1    2  501    0 -0.44426257746E+02 -0.53453949679E+02 -0.60855317700E+02  0.19488298126E+03  0.17159542412E+03 0.  0.
         24    2    5    5    0    0 -0.67144376590E+02 -0.82129126072E+02 -0.79609161491E+02  0.15350454096E+03  0.77281723865E+02 0.  0.
          5    1    5    5  501    0  0.22718118844E+02  0.28675176393E+02  0.18753843791E+02  0.41378440303E+02  0.47000000000E+01 0. -1.
        -11    1    6    6    0    0 -0.28983711784E+02 -0.62159613920E+02 -0.85960818939E+02  0.10996879350E+03  0.00000000000E+00 0.  1.
         12    1    6    6    0    0 -0.38160664806E+02 -0.19969512152E+02  0.63516574479E+01  0.43535747454E+02  0.00000000000E+00 0. -1.
         -5    1    3    3    0  503  0.72417667780E+02 -0.24001844109E+02  0.16592159875E+01  0.76454235494E+02  0.47000000000E+01 0.  1.
         13    1    4    4    0    0 -0.86856562463E+01  0.85670845886E+02 -0.30318473858E+02  0.91291534746E+02  0.00000000000E+00 0. -1.
        -14    1    4    4    0    0 -0.19305753788E+02 -0.82150520983E+01 -0.98515759439E+00  0.21004041177E+02  0.00000000000E+00 0.  1.
</event>
<event>
12    1  0.8407180E-002  0.1826543E+03  0.7818608E-02  0.1165592E+00
         21   -1    0    0  501  502  0.00000000000E+00  0.00000000000E+00  0.14359378870E+03  0.14359378870E+03  0.00000000000E+00 0. -1.
         21   -1    0    0  502  503 -0.00000000000E+00 -0.00000000000E+00 -0.32704840560E+03  0.32704840560E+03  0.00000000000E+00 0. -1.
         -6    2    1    2    0  503 -0.62032003000E+02 -0.11437128385E+02 -0.21978922718E+03  0.28577946998E+03  0.17141710469E+03 0.  0.
        -24    2    3    3    0    0 -0.22410172455E+01  0.43068890302E+02 -0.16282815513E+03  0.18672129627E+03  0.80572221692E+02 0.  0.
          6    2    1    2  501    0  0.62032003000E+02  0.11437128385E+02  0.36334610280E+02  0.18486272431E+03  0.16992717745E+03 0.  0.
         24    2    5    5    0    0  0.70340542750E+02  0.44212812586E+02 -0.23323595516E+02  0.11612795272E+03  0.77711945950E+02 0.  0.
          5    1    5    5  501    0 -0.83085397495E+01 -0.32775684202E+02  0.59658205795E+02  0.68734771596E+02  0.47000000000E+01 0. -1.
        -13    1    6    6    0    0  0.37771705833E+02 -0.15961764665E+02 -0.24362453083E+02  0.47697052456E+02  0.00000000000E+00 0.  1.
         14    1    6    6    0    0  0.32568836917E+02  0.60174577251E+02  0.10388575677E+01  0.68430900261E+02  0.00000000000E+00 0. -1.
         -5    1    3    3    0  503 -0.59790985755E+02 -0.54506018686E+02 -0.56961072051E+02  0.99058173715E+02  0.47000000000E+01 0.  1.
         11    1    4    4    0    0 -0.29881656780E+02 -0.10031690222E+02 -0.56991017633E+02  0.65126986046E+02  0.00000000000E+00 0. -1.
        -12    1    4    4    0    0  0.27640639534E+02  0.53100580523E+02 -0.10583713749E+03  0.12159431022E+03  0.00000000000E+00 0.  1.
</event>
<event>
12    1  0.8407180E-002  0.1902022E+03  0.7818608E-02  0.1158475E+00
         21   -1    0    0  503  502  0.00000000000E+00  0.00000000000E+00  0.10933398300E+04  0.10933398300E+04  0.00000000000E+00 0.  1.
         21   -1    0    0  501  503 -0.00000000000E+00 -0.00000000000E+00 -0.33798047915E+02  0.33798047915E+02  0.00000000000E+00 0.  1.
          6    2    1    2  501    0 -0.81040794144E+02 -0.35557676845E+01  0.61852471529E+03  0.64685367798E+03  0.17107484764E+03 0.  0.
         24    2    3    3    0    0 -0.39979862954E+02 -0.64710960781E+02  0.44801685235E+03  0.46105545668E+03  0.77891824105E+02 0.  0.
         -6    2    1    2    0  502  0.81040794144E+02  0.35557676845E+01  0.44101706677E+03  0.48028419991E+03  0.17203664057E+03 0.  0.
        -24    2    5    5    0    0  0.75213025343E+02 -0.45212201398E+02  0.39473570005E+03  0.41263560345E+03  0.82162801807E+02 0.  0.
          5    1    3    3  501    0 -0.41060931190E+02  0.61155193097E+02  0.17050786294E+03  0.18579822130E+03  0.47000000000E+01 0. -1.
        -13    1    4    4    0    0  0.14285148288E+02 -0.32521597167E+02  0.78123120782E+02  0.85819238779E+02  0.00000000000E+00 0.  1.
         14    1    4    4    0    0 -0.54265011243E+02 -0.32189363614E+02  0.36989373157E+03  0.37523621790E+03  0.00000000000E+00 0. -1.
         -5    1    5    5    0  502  0.58277688014E+01  0.48767969083E+02  0.46281366718E+02  0.67648596459E+02  0.47000000000E+01 0.  1.
         11    1    6    6    0    0  0.23103667691E+02 -0.41852275420E+02  0.76967826585E+02  0.90605953159E+02  0.00000000000E+00 0. -1.
        -12    1    6    6    0    0  0.52109357652E+02 -0.33599259777E+01  0.31776787347E+03  0.32202965029E+03  0.00000000000E+00 0.  1.
</event>
<event>
12    1  0.8407180E-002  0.1931253E+03  0.7818608E-02  0.1155774E+00
         21   -1    0    0  501  502  0.00000000000E+00  0.00000000000E+00  0.36597825691E+03  0.36597825691E+03  0.00000000000E+00 0. -1.
         21   -1    0    0  502  503 -0.00000000000E+00 -0.00000000000E+00 -0.30895852695E+03  0.30895852695E+03  0.00000000000E+00 0.  1.
         -6    2    1    2    0  503  0.84159362110E+02  0.22492449433E+02 -0.24792349010E+03  0.31398284366E+03  0.17184429190E+03 0.  0.
        -24    2    3    3    0    0  0.42542206449E+02 -0.37994692233E+02 -0.21098623081E+03  0.23165949900E+03  0.76795168593E+02 0.  0.
          6    2    1    2  501    0 -0.84159362110E+02 -0.22492449433E+02  0.30494322006E+03  0.36095394020E+03  0.17236203461E+03 0.  0.
         24    2    5    5    0    0 -0.19859448581E+02  0.47429791176E+02  0.19247457030E+03  0.21366210136E+03  0.77207839988E+02 0.  0.
          5    1    5    5  501    0 -0.64299913528E+02 -0.69922240609E+02  0.11246864976E+03  0.14729183884E+03  0.47000000000E+01 0. -1.
        -13    1    6    6    0    0  0.12455131822E+02  0.19502175882E+02  0.82742196075E+01  0.24574944211E+02  0.00000000000E+00 0.  1.
         14    1    6    6    0    0 -0.32314580404E+02  0.27927615294E+02  0.18420035069E+03  0.18908715715E+03  0.00000000000E+00 0. -1.
         -5    1    3    3    0  503  0.41617155661E+02  0.60487141666E+02 -0.36937259286E+02  0.82323344659E+02  0.47000000000E+01 0.  1.
         11    1    4    4    0    0  0.37399024420E+02 -0.35755489782E+02 -0.54779491999E+02  0.75352072438E+02  0.00000000000E+00 0. -1.
        -12    1    4    4    0    0  0.51431820289E+01 -0.22392024514E+01 -0.15620673881E+03  0.15630742657E+03  0.00000000000E+00 0.  1.
</event>
<event>
12    1  0.8407180E-002  0.3726388E+03  0.7818608E-02  0.1053700E+00
         21   -1    0    0  501  502  0.00000000000E+00  0.00000000000E+00  0.24853167475E+04  0.24853167475E+04  0.00000000000E+00 0.  1.
         21   -1    0    0  502  503 -0.00000000000E+00 -0.00000000000E+00 -0.56460535852E+02  0.56460535852E+02  0.00000000000E+00 0. -1.
         -6    2    1    2    0  503  0.29429199019E+03 -0.15083301849E+03  0.13459687598E+04  0.13965677345E+04  0.17149682077E+03 0.  0.
        -24    2    3    3    0    0  0.12322358825E+03 -0.33075664948E+02  0.77024863507E+03  0.78451631137E+03  0.76842895962E+02 0.  0.
          6    2    1    2  501    0 -0.29429199019E+03  0.15083301849E+03  0.10828874518E+04  0.11452095489E+04  0.17175943237E+03 0.  0.
         24    2    5    5    0    0 -0.16261430213E+03  0.14051133331E+03  0.81346825029E+03  0.84511898444E+03  0.79427058280E+02 0.  0.
          5    1    5    5  501    0 -0.13167768807E+03  0.10321685173E+02  0.26941920151E+03  0.30009056443E+03  0.47000000000E+01 0. -1.
        -11    1    6    6    0    0 -0.61012294823E+02  0.90721413443E+02  0.50116170914E+03  0.51294827584E+03  0.00000000000E+00 0.  1.
         12    1    6    6    0    0 -0.10160200731E+03  0.49789919870E+02  0.31230654115E+03  0.33217070860E+03  0.00000000000E+00 0. -1.
         -5    1    3    3    0  503  0.17106840194E+03 -0.11775735354E+03  0.57572012475E+03  0.61205142308E+03  0.47000000000E+01 0.  1.
         11    1    4    4    0    0  0.69293740780E+02 -0.68502855477E+01  0.21397620740E+03  0.22502081295E+03  0.00000000000E+00 0. -1.
        -12    1    4    4    0    0  0.53929847474E+02 -0.26225379401E+02  0.55627242767E+03  0.55949549842E+03  0.00000000000E+00 0.  1.
</event>
<event>
12    1  0.8407180E-002  0.2037105E+03  0.7818608E-02  0.1146765E+00
         21   -1    0    0  503  502  0.00000000000E+00  0.00000000000E+00  0.16142610069E+03  0.16142610069E+03  0.00000000000E+00 0. -1.
         21   -1    0    0  501  503 -0.00000000000E+00 -0.00000000000E+00 -0.38714701350E+03  0.38714701350E+03  0.00000000000E+00 0. -1.
          6    2    1    2  501    0  0.75058730445E+02  0.78391377798E+02 -0.27218630900E+03  0.33963053297E+03  0.17171048596E+03 0.  0.
         24    2    3    3    0    0 -0.16716824904E+02  0.27368071978E+01 -0.90538873712E+02  0.12245722117E+03  0.80694120076E+02 0.  0.
         -6    2    1    2    0  502 -0.75058730445E+02 -0.78391377798E+02  0.46465396191E+02  0.20894258123E+03  0.17239184458E+03 0.  0.
        -24    2    5    5    0    0 -0.46863970684E+02 -0.72508837024E+02  0.92183552084E+02  0.15470432404E+03  0.89341241364E+02 0.  0.
          5    1    3    3  501    0  0.91775555349E+02  0.75654570600E+02 -0.18164743529E+03  0.21717331180E+03  0.47000000000E+01 0. -1.
        -13    1    4    4    0    0  0.21367001075E+02 -0.20419344138E+01  0.26939579297E+01  0.21632744634E+02  0.00000000000E+00 0.  1.
         14    1    4    4    0    0 -0.38083825979E+02  0.47787416115E+01 -0.93232831642E+02  0.10082447654E+03  0.00000000000E+00 0. -1.
         -5    1    5    5    0  502 -0.28194759761E+02 -0.58825407738E+01 -0.45718155893E+02  0.54238257183E+02  0.47000000000E+01 0.  1.
         11    1    6    6    0    0 -0.64705610979E+02 -0.19187083204E+02  0.43197090513E+02  0.80130823550E+02  0.00000000000E+00 0. -1.
        -12    1    6    6    0    0  0.17841640295E+02 -0.53321753820E+02  0.48986461571E+02  0.74573500495E+02  0.00000000000E+00 0.  1.
</event>
<event>
12    1  0.8407180E-002  0.2765620E+03  0.7818608E-02  0.1097719E+00
         21   -1    0    0  501  502  0.00000000000E+00  0.00000000000E+00  0.28510236435E+03  0.28510236435E+03  0.00000000000E+00 0. -1.
         21   -1    0    0  502  503 -0.00000000000E+00 -0.00000000000E+00 -0.41736556379E+03  0.41736556379E+03  0.00000000000E+00 0. -1.
         -6    2    1    2    0  503  0.18939558454E+03 -0.10497849274E+03 -0.27680339742E+03  0.39128846408E+03  0.17203304890E+03 0.  0.
        -24    2    3    3    0    0  0.16466580010E+03 -0.98817050168E+02 -0.13641186980E+03  0.24852503514E+03  0.79226635324E+02 0.  0.
          6    2    1    2  501    0 -0.18939558454E+03  0.10497849274E+03  0.14454019798E+03  0.31117946407E+03  0.17043948675E+03 0.  0.
         24    2    5    5    0    0 -0.54137834085E+02 -0.11880500044E+02  0.39220170758E+02  0.10365818471E+03  0.78324620024E+02 0.  0.
          5    1    5    5  501    0 -0.13525775045E+03  0.11685899279E+03  0.10532002723E+03  0.20752127936E+03  0.47000000000E+01 0. -1.
        -11    1    6    6    0    0 -0.60037777938E+02  0.59230671624E+01  0.16121248143E+00  0.60329457928E+02  0.00000000000E+00 0.  1.
         12    1    6    6    0    0  0.58999438532E+01 -0.17803567206E+02  0.39058958277E+02  0.43328726780E+02  0.00000000000E+00 0. -1.
         -5    1    3    3    0  503  0.24729784437E+02 -0.61614425758E+01 -0.14039152762E+03  0.14276342893E+03  0.47000000000E+01 0.  1.
         13    1    4    4    0    0  0.15382423691E+03 -0.70805827733E+02 -0.13799905014E+03  0.21844701633E+03  0.00000000000E+00 0. -1.
        -14    1    4    4    0    0  0.10841563187E+02 -0.28011222434E+02  0.15871803380E+01  0.30078018818E+02  0.00000000000E+00 0.  1.
</event>
<event>
12    1  0.8407180E-002  0.1943587E+03  0.7818608E-02  0.1154843E+00
         21   -1    0    0  503  502  0.00000000000E+00  0.00000000000E+00  0.65570543712E+02  0.65570543712E+02  0.00000000000E+00 0.  1.
         21   -1    0    0  501  503 -0.00000000000E+00 -0.00000000000E+00 -0.62514987820E+03  0.62514987820E+03  0.00000000000E+00 0. -1.
          6    2    1    2  501    0 -0.66419219313E+02 -0.59050095979E+02 -0.37908766021E+03  0.42547987629E+03  0.17154371010E+03 0.  0.
         24    2    3    3    0    0 -0.93551095247E+02 -0.10791302447E+01 -0.29497689007E+03  0.31968061725E+03  0.80195756914E+02 0.  0.
         -6    2    1    2    0  502  0.66419219313E+02  0.59050095979E+02 -0.18049167429E+03  0.26524054563E+03  0.17284928704E+03 0.  0.
        -24    2    5    5    0    0  0.60218925427E+02  0.98106321418E+02 -0.93846180581E+02  0.16988141408E+03  0.82470721829E+02 0.  0.
          5    1    3    3  501    0  0.27131875934E+02 -0.57970965734E+02 -0.84110770141E+02  0.10579925904E+03  0.47000000000E+01 0. -1.
        -11    1    4    4    0    0 -0.44524819302E+02 -0.50236844553E+01 -0.40193263516E+02  0.60192984404E+02  0.00000000000E+00 0.  1.
         12    1    4    4    0    0 -0.49026275944E+02  0.39445542105E+01 -0.25478362655E+03  0.25948763284E+03  0.00000000000E+00 0. -1.
         -5    1    5    5    0  502  0.62002938861E+01 -0.39056225440E+02 -0.86645493705E+02  0.95359131547E+02  0.47000000000E+01 0.  1.
         13    1    6    6    0    0 -0.17132465567E+02  0.18855596030E+02 -0.12152883560E+01  0.25505524967E+02  0.00000000000E+00 0. -1.
        -14    1    6    6    0    0  0.77351390994E+02  0.79250725389E+02 -0.92630892225E+02  0.14437588911E+03  0.00000000000E+00 0.  1.
</event>
<event>
12    1  0.8407180E-002  0.3074457E+03  0.7818608E-02  0.1081692E+00
         21   -1    0    0  503  502  0.00000000000E+00  0.00000000000E+00  0.34895986648E+03  0.34895986648E+03  0.00000000000E+00 0. -1.
         21   -1    0    0  501  503 -0.00000000000E+00 -0.00000000000E+00 -0.27003735132E+03  0.27003735132E+03  0.00000000000E+00 0. -1.
          6    2    1    2  501    0 -0.85512574447E+02 -0.23905479877E+03  0.40601783905E+02  0.30917252077E+03  0.17169608482E+03 0.  0.
         24    2    3    3    0    0 -0.22409676494E+02 -0.12011724289E+03  0.83144672134E+02  0.16789228412E+03  0.79651973761E+02 0.  0.
         -6    2    1    2    0  502  0.85512574447E+02  0.23905479877E+03  0.38320731257E+02  0.30982469704E+03  0.17338762137E+03 0.  0.
        -24    2    5    5    0    0  0.23580745611E+02  0.27853864100E+02  0.10711478209E+02  0.87955936093E+02  0.79307134734E+02 0.  0.
          5    1    3    3  501    0 -0.63102897953E+02 -0.11893755588E+03 -0.42542888229E+02  0.14128023665E+03  0.47000000000E+01 0. -1.
        -13    1    4    4    0    0  0.14810313127E+02 -0.91652823788E+02  0.31217472853E+02  0.97949558930E+02  0.00000000000E+00 0.  1.
         14    1    4    4    0    0 -0.37219989621E+02 -0.28464419097E+02  0.51927199281E+02  0.69942725191E+02  0.00000000000E+00 0. -1.
         -5    1    5    5    0  502  0.61931828836E+02  0.21120093467E+03  0.27609253048E+02  0.22186876094E+03  0.47000000000E+01 0.  1.
         11    1    6    6    0    0  0.39500544396E+02  0.30330224594E+02 -0.19687068456E+02  0.53551808521E+02  0.00000000000E+00 0. -1.
        -12    1    6    6    0    0 -0.15919798785E+02 -0.24763604942E+01  0.30398546665E+02  0.34404127572E+02  0.00000000000E+00 0.  1.
</event>
<event>
12    1  0.8407180E-002  0.1981220E+03  0.7818608E-02  0.1151334E+00
         21   -1    0    0  503  502  0.00000000000E+00  0.00000000000E+00  0.67961922844E+03  0.67961922844E+03  0.00000000000E+00 0. -1.
         21   -1    0    0  501  503 -0.00000000000E+00 -0.00000000000E+00 -0.78599225463E+02  0.78599225463E+02  0.00000000000E+00 0. -1.
          6    2    1    2  501    0  0.67689748742E+02  0.71208121885E+02  0.10528346216E+03  0.22435890341E+03  0.17204595731E+03 0.  0.
         24    2    3    3    0    0 -0.25864550829E+02  0.56333772926E+02  0.64275364186E+02  0.12102736261E+03  0.81693519304E+02 0.  0.
         -6    2    1    2    0  502 -0.67689748742E+02 -0.71208121885E+02  0.49573654082E+03  0.53385955050E+03  0.17204302673E+03 0.  0.
        -24    2    5    5    0    0 -0.15095997145E+02 -0.74000766979E+02  0.44765582635E+03  0.46239104920E+03  0.87782349436E+02 0.  0.
          5    1    3    3  501    0  0.93554299571E+02  0.14874348959E+02  0.41008097975E+02  0.10333154080E+03  0.47000000000E+01 0. -1.
        -11    1    4    4    0    0  0.21899231525E+02 -0.72023745786E+01  0.15106369321E+02  0.27561802100E+02  0.00000000000E+00 0.  1.
         12    1    4    4    0    0 -0.47763782354E+02  0.63536147505E+02  0.49168994865E+02  0.93465560505E+02  0.00000000000E+00 0. -1.
         -5    1    5    5    0  502 -0.52593751597E+02  0.27926450938E+01  0.48080714469E+02  0.71468501296E+02  0.47000000000E+01 0.  1.
         13    1    6    6    0    0  0.32612925064E+02 -0.97145653006E+01  0.17257078509E+03  0.17589386438E+03  0.00000000000E+00 0. -1.
        -14    1    6    6    0    0 -0.47708922209E+02 -0.64286201678E+02  0.27508504126E+03  0.28649718482E+03  0.00000000000E+00 0.  1.
</event>
<event>
12    1  0.8407180E-002  0.1946676E+03  0.7818608E-02  0.1155202E+00
         21   -1    0    0  501  502  0.00000000000E+00  0.00000000000E+00  0.10193017759E+03  0.10193017759E+03  0.00000000000E+00 0. -1.
         21   -1    0    0  502  503 -0.00000000000E+00 -0.00000000000E+00 -0.54034410487E+03  0.54034410487E+03  0.00000000000E+00 0. -1.
         -6    2    1    2    0  503 -0.85946893416E+02 -0.35702309916E+01 -0.40103343519E+03  0.44405022972E+03  0.17015632618E+03 0.  0.
        -24    2    3    3    0    0 -0.40801265707E+02  0.50729307423E+02 -0.31796970795E+03  0.33492534550E+03  0.82656191357E+02 0.  0.
          6    2    1    2  501    0  0.85946893416E+02  0.35702309916E+01 -0.37380492092E+02  0.19822405274E+03  0.17463063551E+03 0.  0.
         24    2    5    5    0    0  0.88135495791E+02 -0.47701943350E+02 -0.60148272072E+02  0.14188501080E+03  0.80437557384E+02 0.  0.
          5    1    5    5  501    0 -0.21886023752E+01  0.51272174341E+02  0.22767779980E+02  0.56339041945E+02  0.47000000000E+01 0. -1.
        -13    1    6    6    0    0  0.44459046256E+02  0.17766387432E+02 -0.34852019534E+02  0.59219207880E+02  0.00000000000E+00 0.  1.
         14    1    6    6    0    0  0.43676449535E+02 -0.65468330782E+02 -0.25296252538E+02  0.82665802916E+02  0.00000000000E+00 0. -1.
         -5    1    3    3    0  503 -0.45145627709E+02 -0.54299538415E+02 -0.83063727237E+02  0.10912488422E+03  0.47000000000E+01 0.  1.
         13    1    4    4    0    0 -0.19748535306E+02 -0.13817439421E+02 -0.17502231821E+03  0.17667410153E+03  0.00000000000E+00 0. -1.
        -14    1    4    4    0    0 -0.21052730401E+02  0.64546746844E+02 -0.14294738974E+03  0.15825124397E+03  0.00000000000E+00 0.  1.
</event>
<event>
12    1  0.8407180E-002  0.1948928E+03  0.7818608E-02  0.1154309E+00
         21   -1    0    0  503  502  0.00000000000E+00  0.00000000000E+00  0.14675977859E+04  0.14675977859E+04  0.00000000000E+00 0. -1.
         21   -1    0    0  501  503 -0.00000000000E+00 -0.00000000000E+00 -0.27250333973E+02  0.27250333973E+02  0.00000000000E+00 0. -1.
          6    2    1    2  501    0 -0.64307052158E+02 -0.65561805480E+02  0.54731448667E+03  0.58097880209E+03  0.17189960403E+03 0.  0.
         24    2    3    3    0    0 -0.17514523040E+02  0.27188103661E+02  0.20817675107E+03  0.22625555766E+03  0.82511006482E+02 0.  0.
         -6    2    1    2    0  502  0.64307052158E+02  0.65561805480E+02  0.89303296522E+03  0.91386931774E+03  0.17092543886E+03 0.  0.
        -24    2    5    5    0    0 -0.18989401956E+02  0.72319248635E+02  0.46639162275E+03  0.47909479295E+03  0.80124925902E+02 0.  0.
          5    1    3    3  501    0 -0.46792529118E+02 -0.92749909140E+02  0.33913773560E+03  0.35472324442E+03  0.47000000000E+01 0. -1.
        -13    1    4    4    0    0 -0.90581161361E+01 -0.93998068016E+01  0.17690864960E+03  0.17738961677E+03  0.00000000000E+00 0.  1.
         14    1    4    4    0    0 -0.84564069039E+01  0.36587910462E+02  0.31268101469E+02  0.48865940891E+02  0.00000000000E+00 0. -1.
         -5    1    5    5    0  502  0.83296454114E+02 -0.67574431557E+01  0.42664134246E+03  0.43477452479E+03  0.47000000000E+01 0.  1.
         11    1    6    6    0    0  0.73202932878E+01  0.20075546478E+02  0.32997316959E+03  0.33066434176E+03  0.00000000000E+00 0. -1.
        -12    1    6    6    0    0 -0.26309695243E+02  0.52243702157E+02  0.13641845316E+03  0.14843045119E+03  0.00000000000E+00 0.  1.
</event>
<event>
12    1  0.8407180E-002  0.1744659E+03  0.7818608E-02  0.1173392E+00
         21   -1    0    0  503  502  0.00000000000E+00  0.00000000000E+00  0.43350154974E+03  0.43350154974E+03  0.00000000000E+00 0. -1.
         21   -1    0    0  501  503 -0.00000000000E+00 -0.00000000000E+00 -0.85885972732E+02  0.85885972732E+02  0.00000000000E+00 0. -1.
          6    2    1    2  501    0  0.21081549016E+02 -0.95851656242E+01  0.62383300190E+02  0.18528362502E+03  0.17292205889E+03 0.  0.
         24    2    3    3    0    0  0.22083720772E+01  0.69418644618E+02  0.38590604607E+02  0.10051345808E+03  0.61562126044E+02 0.  0.
         -6    2    1    2    0  502 -0.21081549016E+02  0.95851656242E+01  0.28523227681E+03  0.33410389745E+03  0.17242869669E+03 0.  0.
        -24    2    5    5    0    0 -0.31154058752E+01  0.26431554986E+02  0.29541559010E+03  0.30704150651E+03  0.79345970218E+02 0.  0.
          5    1    3    3  501    0  0.18873176939E+02 -0.79003810242E+02  0.23792695583E+02  0.84770166943E+02  0.47000000000E+01 0. -1.
        -11    1    4    4    0    0  0.16847425336E+02  0.60669656166E+02  0.49651185010E+02  0.80186551819E+02  0.00000000000E+00 0.  1.
         12    1    4    4    0    0 -0.14639053258E+02  0.87489884519E+01 -0.11060580403E+02  0.20326906259E+02  0.00000000000E+00 0. -1.
         -5    1    5    5    0  502 -0.17966143141E+02 -0.16846389362E+02 -0.10183313288E+02  0.27062390940E+02  0.47000000000E+01 0.  1.
         13    1    6    6    0    0  0.77712090837E+01  0.53481127339E+02  0.20720306353E+03  0.21413484585E+03  0.00000000000E+00 0. -1.
        -14    1    6    6    0    0 -0.10886614959E+02 -0.27049572352E+02  0.88212526576E+02  0.92906660658E+02  0.00000000000E+00 0.  1.
</event>
<event>
12    1  0.8407180E-002  0.1763938E+03  0.7818608E-02  0.1171493E+00
         21   -1    0    0  501  502  0.00000000000E+00  0.00000000000E+00  0.91999274664E+03  0.91999274664E+03  0.00000000000E+00 0.  1.
         21   -1    0    0  502  503 -0.00000000000E+00 -0.00000000000E+00 -0.94899604217E+02  0.94899604217E+02  0.00000000000E+00 0.  1.
         -6    2    1    2    0  503 -0.35485180121E+02 -0.32028508657E+01  0.53079712040E+01  0.17647369433E+03  0.17275802144E+03 0.  0.
        -24    2    3    3    0    0 -0.85033970413E+02 -0.25928310222E+02 -0.84956891817E+01  0.12004533123E+03  0.80222511932E+02 0.  0.
          6    2    1    2  501    0  0.35485180121E+02  0.32028508657E+01  0.81978517122E+03  0.83841865653E+03  0.17212977776E+03 0.  0.
         24    2    5    5    0    0  0.69902115371E+02  0.65621791514E+01  0.77482244374E+03  0.78150163463E+03  0.73929815923E+02 0.  0.
          5    1    5    5  501    0 -0.34416935250E+02 -0.33593282857E+01  0.44962727483E+02  0.56917021894E+02  0.47000000000E+01 0. -1.
        -11    1    6    6    0    0 -0.34478125577E+00  0.13003112287E+02  0.39314863777E+03  0.39336376445E+03  0.00000000000E+00 0.  1.
         12    1    6    6    0    0  0.70246896627E+02 -0.64409331352E+01  0.38167380597E+03  0.38813787018E+03  0.00000000000E+00 0. -1.
         -5    1    3    3    0  503  0.49548790292E+02  0.22725459356E+02  0.13803660386E+02  0.56428363102E+02  0.47000000000E+01 0.  1.
         11    1    4    4    0    0 -0.84110608654E+02 -0.26545356660E+02  0.20888765884E+02  0.90639897333E+02  0.00000000000E+00 0. -1.
        -12    1    4    4    0    0 -0.92336175878E+00  0.61704643852E+00 -0.29384455066E+02  0.29405433899E+02  0.00000000000E+00 0.  1.
</event>
<event>
12    1  0.8407180E-002  0.2756986E+03  0.7818608E-02  0.1098139E+00
         21   -1    0    0  501  502  0.00000000000E+00  0.00000000000E+00  0.18039128705E+04  0.18039128705E+04  0.00000000000E+00 0.  1.
         21   -1    0    0  502  503 -0.00000000000E+00 -0.00000000000E+00 -0.60433540926E+02  0.60433540926E+02  0.00000000000E+00 0.  1.
         -6    2    1    2    0  503 -0.21514174228E+03 -0.14431149959E+02  0.35824103621E+03  0.45204685829E+03  0.17180074128E+03 0.  0.
        -24    2    3    3    0    0 -0.23766710115E+03 -0.16794435057E+02  0.31434010946E+03  0.40242470317E+03  0.79801211103E+02 0.  0.
          6    2    1    2  501    0  0.21514174228E+03  0.14431149959E+02  0.13852382933E+04  0.14122995531E+04  0.17091129576E+03 0.  0.
         24    2    5    5    0    0  0.20784117551E+03  0.34546218752E+02  0.94277731694E+03  0.96929648325E+03  0.79468280718E+02 0.  0.
          5    1    5    5  501    0  0.73005667753E+01 -0.20115068793E+02  0.44246097638E+03  0.44300306984E+03  0.47000000000E+01 0. -1.
        -13    1    6    6    0    0  0.96112993264E+02  0.17309112147E+02  0.61178274511E+03  0.61952840133E+03  0.00000000000E+00 0.  1.
         14    1    6    6    0    0  0.11172818224E+03  0.17237106604E+02  0.33099457183E+03  0.34976808192E+03  0.00000000000E+00 0. -1.
         -5    1    3    3    0  503  0.22525358870E+02  0.23632850983E+01  0.43900926748E+02  0.49622155113E+02  0.47000000000E+01 0.  1.
         11    1    4    4    0    0 -0.11463636475E+02  0.45867212329E+01 -0.24392875732E+01  0.12585829204E+02  0.00000000000E+00 0. -1.
        -12    1    4    4    0    0 -0.22620346468E+03 -0.21381156290E+02  0.31677939703E+03  0.38983887397E+03  0.00000000000E+00 0.  1.
</event>
<event>
12    1  0.8407180E-002  0.2123476E+03  0.7818608E-02  0.1139747E+00
         21   -1    0    0  503  502  0.00000000000E+00  0.00000000000E+00  0.12609948528E+03  0.12609948528E+03  0.00000000000E+00 0. -1.
         21   -1    0    0  501  503 -0.00000000000E+00 -0.00000000000E+00 -0.37146217637E+03  0.37146217637E+03  0.00000000000E+00 0. -1.
          6    2    1    2  501    0 -0.26642894793E+02  0.12069272871E+03 -0.17112817933E+03  0.27261222648E+03  0.17249925699E+03 0.  0.
         24    2    3    3    0    0 -0.41629581232E+02  0.12365315078E+03 -0.19379023328E+03  0.24488095246E+03  0.73409145444E+02 0.  0.
         -6    2    1    2    0  502  0.26642894793E+02 -0.12069272871E+03 -0.74234511767E+02  0.22494943517E+03  0.17266993670E+03 0.  0.
        -24    2    5    5    0    0  0.34485225398E+02 -0.15163347653E+03 -0.64811652658E+02  0.19133824212E+03  0.90707389999E+02 0.  0.
          5    1    3    3  501    0  0.14986686439E+02 -0.29604220648E+01  0.22662053954E+02  0.27731274017E+02  0.47000000000E+01 0. -1.
        -11    1    4    4    0    0  0.53722297705E+01 -0.76979561723E+01 -0.19431501475E+02  0.21580144381E+02  0.00000000000E+00 0.  1.
         12    1    4    4    0    0 -0.47001811003E+02  0.13135110695E+03 -0.17435873180E+03  0.22330080808E+03  0.00000000000E+00 0. -1.
         -5    1    5    5    0  502 -0.78423306051E+01  0.30940747820E+02 -0.94228591088E+01  0.33611193057E+02  0.47000000000E+01 0.  1.
         13    1    6    6    0    0  0.15700000452E+02 -0.86790190890E+02  0.12072883337E+02  0.89021243312E+02  0.00000000000E+00 0. -1.
        -14    1    6    6    0    0  0.18785224946E+02 -0.64843285642E+02 -0.76884535996E+02  0.10231699880E+03  0.00000000000E+00 0.  1.
</event>
<event>
12    1  0.8407180E-002  0.1926919E+03  0.7818608E-02  0.1156410E+00
         21   -1    0    0  503  502  0.00000000000E+00  0.00000000000E+00  0.46964959015E+03  0.46964959015E+03  0.00000000000E+00 0. -1.
         21   -1    0    0  501  503 -0.00000000000E+00 -0.00000000000E+00 -0.19819507987E+03  0.19819507987E+03  0.00000000000E+00 0. -1.
          6    2    1    2  501    0  0.22988344523E+02 -0.82072280946E+02 -0.12409655931E+03  0.22785509131E+03  0.17103702325E+03 0.  0.
         24    2    3    3    0    0 -0.52818471328E+01 -0.73367606037E+02 -0.93572513877E+01  0.10927105409E+03  0.80261457651E+02 0.  0.
         -6    2    1    2    0  502 -0.22988344523E+02  0.82072280946E+02  0.39555106959E+03  0.43998957871E+03  0.17281741067E+03 0.  0.
        -24    2    5    5    0    0 -0.14235938132E+02  0.71495322196E+02  0.40737240604E+03  0.42127299063E+03  0.78768092508E+02 0.  0.
          5    1    3    3  501    0  0.28270191655E+02 -0.87046749088E+01 -0.11473930792E+03  0.11858403722E+03  0.47000000000E+01 0. -1.
        -13    1    4    4    0    0  0.25599080913E+02 -0.73200501882E+02 -0.22389473677E+01  0.77579889821E+02  0.00000000000E+00 0.  1.
         14    1    4    4    0    0 -0.30880928046E+02 -0.16710415474E+00 -0.71183040200E+01  0.31691164271E+02  0.00000000000E+00 0. -1.
         -5    1    5    5    0  502 -0.87524063908E+01  0.10576958749E+02 -0.11821336447E+02  0.18716588081E+02  0.47000000000E+01 0.  1.
         11    1    6    6    0    0 -0.92996064227E+01  0.81910069769E+02  0.24510118773E+03  0.25859298992E+03  0.00000000000E+00 0. -1.
        -12    1    6    6    0    0 -0.49363317091E+01 -0.10414747573E+02  0.16227121831E+03  0.16268000070E+03  0.00000000000E+00 0.  1.
</event>
<event>
12    1  0.8407180E-002  0.3042183E+03  0.7818608E-02  0.1083231E+00
         21   -1    0    0  501  502  0.00000000000E+00  0.00000000000E+00  0.74810932121E+03  0.74810932121E+03  0.00000000000E+00 0. -1.
         21   -1    0    0  502  503 -0.00000000000E+00 -0.00000000000E+00 -0.14117324988E+03  0.14117324988E+03  0.00000000000E+00 0. -1.
         -6    2    1    2    0  503 -0.20960693400E+03 -0.13551684229E+03  0.14618160315E+03  0.33751714077E+03  0.17392204543E+03 0.  0.
        -24    2    3    3    0    0 -0.18742545605E+03 -0.14688358228E+03  0.16916732446E+03  0.30328770715E+03  0.81625739343E+02 0.  0.
          6    2    1    2  501    0  0.20960693400E+03  0.13551684229E+03  0.46075446818E+03  0.55176543033E+03  0.17277305587E+03 0.  0.
         24    2    5    5    0    0  0.74897122472E+02  0.67309686884E+02  0.10717965484E+03  0.16727071256E+03  0.79698431377E+02 0.  0.
          5    1    5    5  501    0  0.13470981152E+03  0.68207155407E+02  0.35357481333E+03  0.38449471777E+03  0.47000000000E+01 0. -1.
        -11    1    6    6    0    0  0.30418471474E+02  0.72234499535E+02  0.89978330771E+02  0.11932814562E+03  0.00000000000E+00 0.  1.
         12    1    6    6    0    0  0.44478650998E+02 -0.49248126511E+01  0.17201324073E+02  0.47942566932E+02  0.00000000000E+00 0. -1.
         -5    1    3    3    0  503 -0.22181477941E+02  0.11366739989E+02 -0.22985721308E+02  0.34229433616E+02  0.47000000000E+01 0.  1.
         11    1    4    4    0    0 -0.10625615039E+03 -0.63069102834E+02  0.41525961392E+02  0.13035523272E+03  0.00000000000E+00 0. -1.
        -12    1    4    4    0    0 -0.81169305663E+02 -0.83814479446E+02  0.12764136307E+03  0.17293247443E+03  0.00000000000E+00 0.  1.
</event>
<event>
12    1  0.8407180E-002  0.1914396E+03  0.7818608E-02  0.1157269E+00
         21   -1    0    0  503  502  0.00000000000E+00  0.00000000000E+00  0.19000685595E+04  0.19000685595E+04  0.00000000000E+00 0.  1.
         21   -1    0    0  501  503 -0.00000000000E+00 -0.00000000000E+00 -0.20431446476E+03  0.20431446476E+03  0.00000000000E+00 0.  1.
          6    2    1    2  501    0  0.13320790815E+02  0.80796959221E+02 -0.15344566567E+03  0.24534610150E+03  0.17304203281E+03 0.  0.
         24    2    3    3    0    0 -0.23591530418E+02  0.11434462275E+03 -0.10978422720E+03  0.17889027861E+03  0.79485232455E+02 0.  0.
         -6    2    1    2    0  502 -0.13320790815E+02 -0.80796959221E+02  0.18491997604E+04  0.18590369228E+04  0.17254835314E+03 0.  0.
        -24    2    5    5    0    0  0.13867308059E+02  0.11408336537E+02  0.53582615954E+03  0.54214159102E+03  0.80531851388E+02 0.  0.
          5    1    3    3  501    0  0.36912321232E+02 -0.33547663529E+02 -0.43661438474E+02  0.66455822895E+02  0.47000000000E+01 0. -1.
        -13    1    4    4    0    0 -0.21052237511E+02  0.51888466865E+01 -0.49794151495E+02  0.54310020781E+02  0.00000000000E+00 0.  1.
         14    1    4    4    0    0 -0.25392929065E+01  0.10915577606E+03 -0.59990075706E+02  0.12458025782E+03  0.00000000000E+00 0. -1.
         -5    1    5    5    0  502 -0.27188098874E+02 -0.92205295758E+02  0.13133736009E+04  0.13168953318E+04  0.47000000000E+01 0.  1.
         11    1    6    6    0    0  0.87279490997E+01  0.26540440090E+02  0.51563486181E+03  0.51639121097E+03  0.00000000000E+00 0. -1.
        -12    1    6    6    0    0  0.51393589597E+01 -0.15132103553E+02  0.20191297733E+02  0.25750380048E+02  0.00000000000E+00 0.  1.
</event>
<event>
12    1  0.8407180E-002  0.2409807E+03  0.7818608E-02  0.1119520E+00
         21   -1    0    0  501  502  0.00000000000E+00  0.00000000000E+00  0.46680154255E+02  0.46680154255E+02  0.00000000000E+00 0.  1.
         21   -1    0    0  502  503 -0.00000000000E+00 -0.00000000000E+00 -0.12609694817E+04  0.12609694817E+04  0.00000000000E+00 0.  1.
         -6    2    1    2    0  503  0.16239007026E+03  0.30471099494E+02 -0.70853114320E+03  0.74839032094E+03  0.17542140339E+03 0.  0.
        -24    2    3    3    0    0  0.12228832259E+03 -0.30007994502E+02 -0.59561351457E+03  0.61408338950E+03  0.80548351619E+02 0.  0.
          6    2    1    2  501    0 -0.16239007026E+03 -0.30471099494E+02 -0.50575818427E+03  0.55925931504E+03  0.17228063640E+03 0.  0.
         24    2    5    5    0    0 -0.11592245941E+03  0.49539997477E+02 -0.26585107319E+03  0.30208519806E+03  0.68457620649E+02 0.  0.
          5    1    5    5  501    0 -0.46467610852E+02 -0.80011096970E+02 -0.23990711108E+03  0.25717411698E+03  0.47000000000E+01 0. -1.
        -11    1    6    6    0    0 -0.67467533937E+02 -0.74624700411E+01 -0.11102915986E+03  0.13013466461E+03  0.00000000000E+00 0.  1.
         12    1    6    6    0    0 -0.48454925475E+02  0.57002467518E+02 -0.15482191333E+03  0.17195053345E+03  0.00000000000E+00 0. -1.
         -5    1    3    3    0  503  0.40101747671E+02  0.60479093995E+02 -0.11291762863E+03  0.13430693144E+03  0.47000000000E+01 0.  1.
         13    1    4    4    0    0 -0.32470515946E+01 -0.21995279646E+02 -0.12426543574E+03  0.12623879828E+03  0.00000000000E+00 0. -1.
        -14    1    4    4    0    0  0.12553537419E+03 -0.80127148556E+01 -0.47134807883E+03  0.48784459122E+03  0.00000000000E+00 0.  1.
</event>
<event>
12    1  0.8407180E-002  0.1994331E+03  0.7818608E-02  0.1150269E+00
         21   -1    0    0  503  502  0.00000000000E+00  0.00000000000E+00  0.41883736649E+03  0.41883736649E+03  0.00000000000E+00 0. -1.
         21   -1    0    0  501  503 -0.00000000000E+00 -0.00000000000E+00 -0.10582251593E+03  0.10582251593E+03  0.00000000000E+00 0.  1.
          6    2    1    2  501    0 -0.54828195704E+02  0.84864580807E+02  0.71946049800E+02  0.21178972842E+03  0.17166981931E+03 0.  0.
         24    2    3    3    0    0 -0.89704131340E+02  0.24515756926E+02  0.69843250030E+02  0.14189821822E+03  0.81296809551E+02 0.  0.
         -6    2    1    2    0  502  0.54828195704E+02 -0.84864580807E+02  0.24106880076E+03  0.31287015400E+03  0.17194603352E+03 0.  0.
        -24    2    5    5    0    0 -0.22700187981E+02 -0.30833304878E+02  0.17834373644E+03  0.19935120074E+03  0.80426498644E+02 0.  0.
          5    1    3    3  501    0  0.34875935636E+02  0.60348823881E+02  0.21027997698E+01  0.69891510194E+02  0.47000000000E+01 0. -1.
        -11    1    4    4    0    0 -0.58111431152E+02  0.46812092446E+02  0.17197002227E+02  0.76577067816E+02  0.00000000000E+00 0.  1.
         12    1    4    4    0    0 -0.31592700187E+02 -0.22296335520E+02  0.52646247803E+02  0.65321150407E+02  0.00000000000E+00 0. -1.
         -5    1    5    5    0  502  0.77528383685E+02 -0.54031275929E+02  0.62725064320E+02  0.11351895326E+03  0.47000000000E+01 0.  1.
         11    1    6    6    0    0 -0.37986387808E+02 -0.22781070723E+02  0.39230066597E+02  0.59168749921E+02  0.00000000000E+00 0. -1.
        -12    1    6    6    0    0  0.15286199826E+02 -0.80522341548E+01  0.13911366984E+03  0.14018245082E+03  0.00000000000E+00 0.  1.
</event>
<event>
12    1  0.8407180E-002  0.1847995E+03  0.7818608E-02  0.1164449E+00
         21   -1    0    0  501  502  0.00000000000E+00  0.00000000000E+00  0.55891787415E+03  0.55891787415E+03  0.00000000000E+00 0.  1.
         21   -1    0    0  502  503 -0.00000000000E+00 -0.00000000000E+00 -0.77260816776E+02  0.77260816776E+02  0.00000000000E+00 0.  1.
         -6    2    1    2    0  503  0.67068570340E+02 -0.13305208018E+02  0.90602793356E+02  0.20581473215E+03  0.17168464147E+03 0.  0.
        -24    2    3    3    0    0  0.11027737001E+03 -0.25143299551E+02  0.72057179030E+02  0.15709953338E+03  0.81821406054E+02 0.  0.
          6    2    1    2  501    0 -0.67068570340E+02  0.13305208018E+02  0.39105426402E+03  0.43036395878E+03  0.16617604497E+03 0.  0.
         24    2    5    5    0    0 -0.92923739516E+02 -0.31733229826E+01  0.37992212528E+03  0.39740874265E+03  0.70341993969E+02 0.  0.
          5    1    5    5  501    0  0.25855169176E+02  0.16478531001E+02  0.11132138738E+02  0.32955216126E+02  0.47000000000E+01 0. -1.
        -11    1    6    6    0    0 -0.11003049564E+02 -0.27444684644E+02  0.71547740217E+02  0.77416774314E+02  0.00000000000E+00 0.  1.
         12    1    6    6    0    0 -0.81920689952E+02  0.24271361661E+02  0.30837438506E+03  0.31999196834E+03  0.00000000000E+00 0. -1.
         -5    1    3    3    0  503 -0.43208799673E+02  0.11838091533E+02  0.18545614326E+02  0.48715198769E+02  0.47000000000E+01 0.  1.
         13    1    4    4    0    0 -0.13077448244E+02  0.19063591125E+01  0.51407184696E+01  0.14180297741E+02  0.00000000000E+00 0. -1.
        -14    1    4    4    0    0  0.12335481826E+03 -0.27049658664E+02  0.66916460560E+02  0.14291923564E+03  0.00000000000E+00 0.  1.
</event>
<event>
12    1  0.8407180E-002  0.1910714E+03  0.7818608E-02  0.1157760E+00
         21   -1    0    0  501  502  0.00000000000E+00  0.00000000000E+00  0.42958339267E+02  0.42958339267E+02  0.00000000000E+00 0. -1.
         21   -1    0    0  502  503 -0.00000000000E+00 -0.00000000000E+00 -0.10231298714E+04  0.10231298714E+04  0.00000000000E+00 0. -1.
         -6    2    1    2    0  503 -0.59805380187E+02 -0.57383030864E+02 -0.71146306684E+03  0.73637239701E+03  0.17086578318E+03 0.  0.
        -24    2    3    3    0    0  0.22864402219E+02  0.72225711191E+01 -0.37797315741E+03  0.38673574786E+03  0.78268030065E+02 0.  0.
          6    2    1    2  501    0  0.59805380187E+02  0.57383030864E+02 -0.26870846528E+03  0.32971581365E+03  0.17215917846E+03 0.  0.
         24    2    5    5    0    0 -0.87960794695E+00  0.23037752138E+02 -0.23982618696E+03  0.25409477189E+03  0.80722000822E+02 0.  0.
          5    1    5    5  501    0  0.60684988134E+02  0.34345278725E+02 -0.28882278316E+02  0.75621041756E+02  0.47000000000E+01 0. -1.
        -13    1    6    6    0    0 -0.15300561245E+02 -0.25866451599E+02 -0.58932619416E+02  0.66153111219E+02  0.00000000000E+00 0.  1.
         14    1    6    6    0    0  0.14420953298E+02  0.48904203737E+02 -0.18089356754E+03  0.18794166067E+03  0.00000000000E+00 0. -1.
         -5    1    3    3    0  503 -0.82669782406E+02 -0.64605601983E+02 -0.33348990943E+03  0.34963664914E+03  0.47000000000E+01 0.  1.
         11    1    4    4    0    0 -0.97625897487E+01 -0.77118587177E+01 -0.30658093723E+03  0.30683326416E+03  0.00000000000E+00 0. -1.
        -12    1    4    4    0    0  0.32626991968E+02  0.14934429837E+02 -0.71392220184E+02  0.79902483705E+02  0.00000000000E+00 0.  1.
</event>
<event>
12    1  0.8407180E-002  0.1837674E+03  0.7818608E-02  0.1166072E+00
         21   -1    0    0  501  502  0.00000000000E+00  0.00000000000E+00  0.11890061455E+04  0.11890061455E+04  0.00000000000E+00 0.  1.
         21   -1    0    0  502  503 -0.00000000000E+00 -0.00000000000E+00 -0.53606843459E+02  0.53606843459E+02  0.00000000000E+00 0.  1.
         -6    2    1    2    0  503 -0.36258034144E+02  0.52694028926E+02  0.12562836790E+03  0.21625642497E+03  0.16399100218E+03 0.  0.
        -24    2    3    3    0    0 -0.37455192466E+02  0.84547526482E+02  0.13616722505E+03  0.18235604143E+03  0.78492273434E+02 0.  0.
          6    2    1    2  501    0  0.36258034144E+02 -0.52694028926E+02  0.10097709341E+04  0.10263565640E+04  0.17227638051E+03 0.  0.
         24    2    5    5    0    0  0.61441434277E+02  0.22593122808E+02  0.60112463430E+03  0.61004388434E+03  0.80729274857E+02 0.  0.
          5    1    5    5  501    0 -0.25183400133E+02 -0.75287151734E+02  0.40864629983E+03  0.41631267963E+03  0.47000000000E+01 0. -1.
        -13    1    6    6    0    0  0.99600382973E+01  0.19392773801E+02  0.44671654456E+03  0.44724820091E+03  0.00000000000E+00 0.  1.
         14    1    6    6    0    0  0.51481395980E+02  0.32003490063E+01  0.15440808974E+03  0.16279568343E+03  0.00000000000E+00 0. -1.
         -5    1    3    3    0  503  0.11971583226E+01 -0.31853497556E+02 -0.10538857151E+02  0.33900383547E+02  0.47000000000E+01 0.  1.
         13    1    4    4    0    0  0.23109530484E+02  0.36663558747E+02  0.58896296389E+02  0.73123461813E+02  0.00000000000E+00 0. -1.
        -14    1    4    4    0    0 -0.60564722951E+02  0.47883967734E+02  0.77270928665E+02  0.10923257961E+03  0.00000000000E+00 0.  1.
</event>
<event>
12    1  0.8407180E-002  0.1926321E+03  0.7818608E-02  0.1156198E+00
         21   -1    0    0  501  502  0.00000000000E+00  0.00000000000E+00  0.10089703805E+04  0.10089703805E+04  0.00000000000E+00 0.  1.
         21   -1    0    0  502  503 -0.00000000000E+00 -0.00000000000E+00 -0.57957474386E+02  0.57957474386E+02  0.00000000000E+00 0.  1.
         -6    2    1    2    0  503 -0.70276297387E+02  0.48356548808E+02  0.15274635852E+03  0.24584259118E+03  0.17271368159E+03 0.  0.
        -24    2    3    3    0    0 -0.77293252441E+02  0.35399755979E+02  0.17999006051E+03  0.21451488081E+03  0.79955128723E+02 0.  0.
          6    2    1    2  501    0  0.70276297387E+02 -0.48356548808E+02  0.79826654759E+03  0.82108526370E+03  0.17226263521E+03 0.  0.
         24    2    5    5    0    0 -0.10530125638E+02 -0.48133479654E+02  0.59736365044E+03  0.60448934536E+03  0.78334681820E+02 0.  0.
          5    1    5    5  501    0  0.80806423026E+02 -0.22306915470E+00  0.20090289715E+03  0.21659591835E+03  0.47000000000E+01 0. -1.
        -13    1    6    6    0    0 -0.44461089072E+02 -0.28047944434E+02  0.37320480808E+03  0.37688898153E+03  0.00000000000E+00 0.  1.
         14    1    6    6    0    0  0.33930963434E+02 -0.20085535219E+02  0.22415884236E+03  0.22760036382E+03  0.00000000000E+00 0. -1.
         -5    1    3    3    0  503  0.70169550541E+01  0.12956792830E+02 -0.27243701990E+02  0.31327710366E+02  0.47000000000E+01 0.  1.
         11    1    4    4    0    0  0.14433579167E+02  0.14363555238E+02  0.50407574868E+02  0.54365094783E+02  0.00000000000E+00 0. -1.
        -12    1    4    4    0    0 -0.91726831609E+02  0.21036200741E+02  0.12958248564E+03  0.16014978603E+03  0.00000000000E+00 0.  1.
</event>
<event>
12    1  0.8407180E-002  0.2300999E+03  0.7818608E-02  0.1126678E+00
         21   -1    0    0  501  502  0.00000000000E+00  0.00000000000E+00  0.40954786104E+03  0.40954786104E+03  0.00000000000E+00 0.  1.
         21   -1    0    0  502  503 -0.00000000000E+00 -0.00000000000E+00 -0.12902206384E+03  0.12902206384E+03  0.00000000000E+00 0.  1.
         -6    2    1    2    0  503  0.14473356431E+03 -0.49971826945E+02  0.14754951019E+03  0.27334374160E+03  0.17175842043E+03 0.  0.
        -24    2    3    3    0    0  0.74051379706E+02 -0.89425262708E+01  0.50134412390E+01  0.10897222434E+03  0.79285783541E+02 0.  0.
          6    2    1    2  501    0 -0.14473356431E+03  0.49971826945E+02  0.13297628700E+03  0.26522618328E+03  0.17093053345E+03 0.  0.
         24    2    5    5    0    0 -0.13524158937E+03  0.50352785659E+02  0.37774301057E+02  0.16943604367E+03  0.80349141604E+02 0.  0.
          5    1    5    5  501    0 -0.94919749444E+01 -0.38095871346E+00  0.95201985943E+02  0.95790139604E+02  0.47000000000E+01 0. -1.
        -11    1    6    6    0    0 -0.69791814605E+02  0.18558235563E+02  0.59420723889E+02  0.93520735244E+02  0.00000000000E+00 0.  1.
         12    1    6    6    0    0 -0.65449774765E+02  0.31794550095E+02 -0.21646422832E+02  0.75915308430E+02  0.00000000000E+00 0. -1.
         -5    1    3    3    0  503  0.70682184609E+02 -0.41029300674E+02  0.14253606896E+03  0.16437151727E+03  0.47000000000E+01 0.  1.
         13    1    4    4    0    0  0.18312121267E+02  0.23069230292E+02  0.28067309506E+02  0.40685341764E+02  0.00000000000E+00 0. -1.
        -14    1    4    4    0    0  0.55739258439E+02 -0.32011756563E+02 -0.23053868267E+02  0.68286882574E+02  0.00000000000E+00 0.  1.
</event>
<event>
12    1  0.8407180E-002  0.1810960E+03  0.7818608E-02  0.1167058E+00
         21   -1    0    0  503  502  0.00000000000E+00  0.00000000000E+00  0.21180314577E+03  0.21180314577E+03  0.00000000000E+00 0. -1.
         21   -1    0    0  501  503 -0.00000000000E+00 -0.00000000000E+00 -0.26169635943E+03  0.26169635943E+03  0.00000000000E+00 0. -1.
          6    2    1    2  501    0  0.50341962849E+02  0.21252893569E+02 -0.17705986866E+03  0.25327051633E+03  0.17265502786E+03 0.  0.
         24    2    3    3    0    0  0.47930939742E+02 -0.30554486289E+02 -0.37798147102E+02  0.10459054212E+03  0.79243485287E+02 0.  0.
         -6    2    1    2    0  502 -0.50341962849E+02 -0.21252893569E+02  0.12716665499E+03  0.22022898886E+03  0.17129930147E+03 0.  0.
        -24    2    5    5    0    0 -0.13652459166E+02 -0.77822567332E+02  0.72225369617E+02  0.13312627645E+03  0.79141391440E+02 0.  0.
          5    1    3    3  501    0  0.24110231067E+01  0.51807379858E+02 -0.13926172155E+03  0.14867997421E+03  0.47000000000E+01 0. -1.
        -13    1    4    4    0    0  0.31306504986E+02  0.10113525778E+01  0.19642662446E+02  0.36972344752E+02  0.00000000000E+00 0.  1.
         14    1    4    4    0    0  0.16624434756E+02 -0.31565838867E+02 -0.57440809548E+02  0.67618197372E+02  0.00000000000E+00 0. -1.
         -5    1    5    5    0  502 -0.36689503683E+02  0.56569673763E+02  0.54941285377E+02  0.87102712409E+02  0.47000000000E+01 0.  1.
         13    1    6    6    0    0 -0.15511863015E+02  0.13351497053E+02  0.10457424992E+02  0.22983431102E+02  0.00000000000E+00 0. -1.
        -14    1    6    6    0    0  0.18594038496E+01 -0.91174064385E+02  0.61767944625E+02  0.11014284535E+03  0.00000000000E+00 0.  1.
</event>
<event>
12    1  0.8407180E-002  0.2159629E+03  0.7818608E-02  0.1137092E+00
         21   -1    0    0  501  502  0.00000000000E+00  0.00000000000E+00  0.35199509739E+03  0.35199509739E+03  0.00000000000E+00 0. -1.
         21   -1    0    0  502  503 -0.00000000000E+00 -0.00000000000E+00 -0.13202101113E+03  0.13202101113E+03  0.00000000000E+00 0. -1.
         -6    2    1    2    0  503 -0.17524306401E+02  0.12846805081E+03  0.11406401595E+03  0.24348147726E+03  0.17164349285E+03 0.  0.
        -24    2    3    3    0    0 -0.55842795065E+02  0.12890805446E+03  0.12641748589E+03  0.20294509365E+03  0.73956920100E+02 0.  0.
          6    2    1    2  501    0  0.17524306401E+02 -0.12846805081E+03  0.10591007030E+03  0.24053463127E+03  0.17271023263E+03 0.  0.
         24    2    5    5    0    0  0.40612037283E+02 -0.15691321813E+03  0.90017454191E+02  0.20032473065E+03  0.75866725608E+02 0.  0.
          5    1    5    5  501    0 -0.23087730882E+02  0.28445167320E+02  0.15892616110E+02  0.40209900621E+02  0.47000000000E+01 0. -1.
        -11    1    6    6    0    0  0.24539897578E+02 -0.13665022460E+02  0.37621971210E+02  0.46950528535E+02  0.00000000000E+00 0.  1.
         12    1    6    6    0    0  0.16072139706E+02 -0.14324819567E+03  0.52395482981E+02  0.15337420211E+03  0.00000000000E+00 0. -1.
         -5    1    3    3    0  503  0.38318488664E+02 -0.44000365377E+00 -0.12353469935E+02  0.40536383609E+02  0.47000000000E+01 0.  1.
         11    1    4    4    0    0 -0.23377047001E+02  0.32566483549E+01  0.28943078243E+01  0.23779594252E+02  0.00000000000E+00 0. -1.
        -12    1    4    4    0    0 -0.32465748064E+02  0.12565140611E+03  0.12352317806E+03  0.17916549939E+03  0.00000000000E+00 0.  1.
</event>
<event>
12    1  0.8407180E-002  0.2940994E+03  0.7818608E-02  0.1088360E+00
         21   -1    0    0  503  502  0.00000000000E+00  0.00000000000E+00  0.14708280830E+04  0.14708280830E+04  0.00000000000E+00 0. -1.
         21   -1    0    0  501  503 -0.00000000000E+00 -0.00000000000E+00 -0.14439750579E+03  0.14439750579E+03  0.00000000000E+00 0. -1.
          6    2    1    2  501    0  0.38431434816E+02 -0.23483519251E+03  0.40217642845E+02  0.29581732269E+03  0.17107275291E+03 0.  0.
         24    2    3    3    0    0  0.19428488648E+02 -0.22252616884E+03  0.79368277324E+02  0.25034770419E+03  0.80494021883E+02 0.  0.
         -6    2    1    2    0  502 -0.38431434816E+02  0.23483519251E+03  0.12862129343E+04  0.13194082661E+04  0.17282915635E+03 0.  0.
        -24    2    5    5    0    0  0.64887899238E+00  0.20872945485E+03  0.79333825945E+03  0.82427564180E+03  0.80475669580E+02 0.  0.
          5    1    3    3  501    0  0.19002946169E+02 -0.12309023670E+02 -0.39150634479E+02  0.45469618504E+02  0.47000000000E+01 0. -1.
        -11    1    4    4    0    0  0.13067372938E+02  0.14449923167E+01  0.69675502312E+01  0.14879213505E+02  0.00000000000E+00 0.  1.
         12    1    4    4    0    0  0.63611157101E+01 -0.22397116115E+03  0.72400727093E+02  0.23546849069E+03  0.00000000000E+00 0. -1.
         -5    1    5    5    0  502 -0.39080313809E+02  0.26105737655E+02  0.49287467487E+03  0.49513262425E+03  0.47000000000E+01 0.  1.
         11    1    6    6    0    0  0.16605937012E+02  0.11466032887E+03  0.56584288050E+03  0.57758195399E+03  0.00000000000E+00 0. -1.
        -12    1    6    6    0    0 -0.15957058019E+02  0.94069125980E+02  0.22749537895E+03  0.24669368781E+03  0.00000000000E+00 0.  1.
</event>
<event>
12    1  0.8407180E-002  0.1882826E+03  0.7818608E-02  0.1160027E+00
         21   -1    0    0  503  502  0.00000000000E+00  0.00000000000E+00  0.95079596465E+02  0.95079596465E+02  0.00000000000E+00 0. -1.
         21   -1    0    0  501  503 -0.00000000000E+00 -0.00000000000E+00 -0.37630811044E+03  0.37630811044E+03  0.00000000000E+00 0. -1.
          6    2    1    2  501    0  0.64045102706E+02  0.44108427794E+02 -0.16340915148E+03  0.24928025351E+03  0.17143735130E+03 0.  0.
         24    2    3    3    0    0  0.54987987885E+02 -0.70159178668E+01 -0.17190796857E+03  0.19645933019E+03  0.77272354988E+02 0.  0.
         -6    2    1    2    0  502 -0.64045102706E+02 -0.44108427794E+02 -0.11781936249E+03  0.22210745339E+03  0.17147300106E+03 0.  0.
        -24    2    5    5    0    0 -0.78136740521E+02 -0.86299309074E+02 -0.10291265155E+03  0.17495933836E+03  0.80416635507E+02 0.  0.
          5    1    3    3  501    0  0.90571148214E+01  0.51124345661E+02  0.84988170934E+01  0.52820923318E+02  0.47000000000E+01 0. -1.
        -11    1    4    4    0    0  0.54643237028E+02 -0.22911853310E+02 -0.63342847289E+02  0.86736109422E+02  0.00000000000E+00 0.  1.
         12    1    4    4    0    0  0.34475085745E+00  0.15895935443E+02 -0.10856512128E+03  0.10972322077E+03  0.00000000000E+00 0. -1.
         -5    1    5    5    0  502  0.14091637815E+02  0.42190881280E+02 -0.14906710943E+02  0.47148115027E+02  0.47000000000E+01 0.  1.
         11    1    6    6    0    0 -0.79473502946E+02 -0.47333442014E+02 -0.99447064814E+02  0.13581682924E+03  0.00000000000E+00 0. -1.
        -12    1    6    6    0    0  0.13367624251E+01 -0.38965867060E+02 -0.34655867344E+01  0.39142509129E+02  0.00000000000E+00 0.  1.
</event>
<event>
12    1  0.8407180E-002  0.1793469E+03  0.7818608E-02  0.1168756E+00
         21   -1    0    0  501  502  0.00000000000E+00  0.00000000000E+00  0.27382272155E+03  0.27382272155E+03  0.00000000000E+00 0.  1.
         21   -1    0    0  502  503 -0.00000000000E+00 -0.00000000000E+00 -0.13233048010E+03  0.13233048010E+03  0.00000000000E+00 0.  1.
         -6    2    1    2    0  503  0.44953568618E+02 -0.21443410556E+02  0.14050656260E+03  0.22680363735E+03  0.17093025651E+03 0.  0.
        -24    2    3    3    0    0  0.89117963902E+02  0.10836305629E+02  0.11676401736E+03  0.16698497519E+03  0.78681059847E+02 0.  0.
          6    2    1    2  501    0 -0.44953568618E+02  0.21443410556E+02  0.98567884750E+00  0.17934956431E+03  0.17229234303E+03 0.  0.
         24    2    5    5    0    0 -0.54305354352E+02 -0.53861314190E+01 -0.58531831240E+02  0.11323069994E+03  0.80107017274E+02 0.  0.
          5    1    5    5  501    0  0.93517857344E+01  0.26829541975E+02  0.59517510087E+02  0.66118864373E+02  0.47000000000E+01 0. -1.
        -11    1    6    6    0    0 -0.15766799215E+01  0.94295905420E+01 -0.57666109777E+02  0.58453257515E+02  0.00000000000E+00 0.  1.
         12    1    6    6    0    0 -0.52728674431E+02 -0.14815721961E+02 -0.86572146297E+00  0.54777442420E+02  0.00000000000E+00 0. -1.
         -5    1    3    3    0  503 -0.44164395285E+02 -0.32279716185E+02  0.23742545247E+02  0.59818662161E+02  0.47000000000E+01 0.  1.
         13    1    4    4    0    0  0.34465106152E+02 -0.91308416778E+00 -0.32102582699E+01  0.34626334240E+02  0.00000000000E+00 0. -1.
        -14    1    4    4    0    0  0.54652857751E+02  0.11749389797E+02  0.11997427563E+03  0.13235864095E+03  0.00000000000E+00 0.  1.
</event>
<event>
12    1  0.8407180E-002  0.2071309E+03  0.7818608E-02  0.1144227E+00
         21   -1    0    0  501  502  0.00000000000E+00  0.00000000000E+00  0.63359994928E+03  0.63359994928E+03  0.00000000000E+00 0.  1.
         21   -1    0    0  502  503 -0.00000000000E+00 -0.00000000000E+00 -0.13424500740E+03  0.13424500740E+03  0.00000000000E+00 0. -1.
         -6    2    1    2    0  503 -0.10263918784E+03 -0.46636391679E+02 -0.21249890358E+02  0.20821806980E+03  0.17376262786E+03 0.  0.
        -24    2    3    3    0    0  0.12226112624E+02 -0.11540969492E+02  0.14988881214E+02  0.82674991636E+02  0.79547569889E+02 0.  0.
          6    2    1    2  501    0  0.10263918784E+03  0.46636391679E+02  0.52060483224E+03  0.55962688689E+03  0.17158993348E+03 0.  0.
         24    2    5    5    0    0  0.65557843813E+02 -0.40325489314E+02  0.31178936517E+03  0.33035982840E+03  0.77466328262E+02 0.  0.
          5    1    5    5  501    0  0.37081344025E+02  0.86961880993E+02  0.20881546707E+03  0.22926705849E+03  0.47000000000E+01 0. -1.
        -13    1    6    6    0    0  0.38633044090E+02 -0.32928533832E+01  0.25244760292E+03  0.25540780567E+03  0.00000000000E+00 0.  1.
         14    1    6    6    0    0  0.26924799723E+02 -0.37032635931E+02  0.59341762254E+02  0.74952022731E+02  0.00000000000E+00 0. -1.
         -5    1    3    3    0  503 -0.11486530046E+03 -0.35095422188E+02 -0.36238771572E+02  0.12554307816E+03  0.47000000000E+01 0.  1.
         11    1    4    4    0    0  0.46021602093E+02 -0.87144664225E+01  0.39301502353E+01  0.47003998394E+02  0.00000000000E+00 0. -1.
        -12    1    4    4    0    0 -0.33795489468E+02 -0.28265030692E+01  0.11058730979E+02  0.35670993242E+02  0.00000000000E+00 0.  1.
</event>
<event>
12    1  0.8407180E-002  0.2195639E+03  0.7818608E-02  0.1134479E+00
         21   -1    0    0  501  502  0.00000000000E+00  0.00000000000E+00  0.44272174365E+03  0.44272174365E+03  0.00000000000E+00 0. -1.
         21   -1    0    0  502  503 -0.00000000000E+00 -0.00000000000E+00 -0.14292721111E+03  0.14292721111E+03  0.00000000000E+00 0.  1.
         -6    2    1    2    0  503 -0.13359557450E+03 -0.17457163778E+02  0.58840800229E+01  0.21964269846E+03  0.17336597849E+03 0.  0.
        -24    2    3    3    0    0 -0.45696846740E+02  0.16724694544E+02 -0.55456638580E+02  0.10704003625E+03  0.77551359676E+02 0.  0.
          6    2    1    2  501    0  0.13359557450E+03  0.17457163778E+02  0.29391045252E+03  0.36600625630E+03  0.17153628029E+03 0.  0.
         24    2    5    5    0    0  0.84462504536E+01  0.35282538004E+02  0.90572129784E+02  0.12653045216E+03  0.80563316682E+02 0.  0.
          5    1    5    5  501    0  0.12514932404E+03 -0.17825374226E+02  0.20333832274E+03  0.23947580414E+03  0.47000000000E+01 0. -1.
        -11    1    6    6    0    0  0.39110367847E+02  0.19577421796E+02  0.20196940996E+02  0.48174814405E+02  0.00000000000E+00 0.  1.
         12    1    6    6    0    0 -0.30664117394E+02  0.15705116208E+02  0.70375188788E+02  0.78355637752E+02  0.00000000000E+00 0. -1.
         -5    1    3    3    0  503 -0.87898727756E+02 -0.34181858322E+02  0.61340718603E+02  0.11260266222E+03  0.47000000000E+01 0.  1.
         11    1    4    4    0    0  0.19408174104E+02  0.38442453411E+01  0.11393990337E+01  0.19818013888E+02  0.00000000000E+00 0. -1.
        -12    1    4    4    0    0 -0.65105020844E+02  0.12880449203E+02 -0.56596037614E+02  0.87222022359E+02  0.00000000000E+00 0.  1.
</event>
<event>
12    1  0.8407180E-002  0.2438897E+03  0.7818608E-02  0.1118205E+00
         21   -1    0    0  501  502  0.00000000000E+00  0.00000000000E+00  0.65796166768E+03  0.65796166768E+03  0.00000000000E+00 0.  1.
         21   -1    0    0  502  503 -0.00000000000E+00 -0.00000000000E+00 -0.88777032616E+02  0.88777032616E+02  0.00000000000E+00 0.  1.
         -6    2    1    2    0  503  0.16561669743E+03 -0.48688945408E+02  0.25864418871E+03  0.35549823637E+03  0.17228660956E+03 0.  0.
        -24    2    3    3    0    0  0.69125427675E+02  0.35011898863E+02  0.80345627948E+02  0.13611532172E+03  0.77896104282E+02 0.  0.
          6    2    1    2  501    0 -0.16561669743E+03  0.48688945408E+02  0.31054044635E+03  0.39124046393E+03  0.16381156224E+03 0.  0.
         24    2    5    5    0    0 -0.48675341212E+02  0.22413081300E+02  0.22414847838E+03  0.24341839535E+03  0.78347557599E+02 0.  0.
          5    1    5    5  501    0 -0.11694135621E+03  0.26275864108E+02  0.86391967978E+02  0.14782206858E+03  0.47000000000E+01 0. -1.
        -11    1    6    6    0    0  0.62644457473E+01  0.26175427035E+02  0.24781458348E+02  0.36585747755E+02  0.00000000000E+00 0.  1.
         12    1    6    6    0    0 -0.54939786959E+02 -0.37623457354E+01  0.19936702003E+03  0.20683264760E+03  0.00000000000E+00 0. -1.
         -5    1    3    3    0  503  0.96491269752E+02 -0.83700844271E+02  0.17829856077E+03  0.21938291465E+03  0.47000000000E+01 0.  1.
         11    1    4    4    0    0  0.57609639811E+02  0.49535503674E+02  0.87824488488E+02  0.11612828037E+03  0.00000000000E+00 0. -1.
        -12    1    4    4    0    0  0.11515787864E+02 -0.14523604810E+02 -0.74788605401E+01  0.19987041347E+02  0.00000000000E+00 0.  1.
</event>
<event>
12    1  0.8407180E-002  0.2523282E+03  0.7818608E-02  0.1111892E+00
         21   -1    0    0  503  502  0.00000000000E+00  0.00000000000E+00  0.14989558595E+03  0.14989558595E+03  0.00000000000E+00 0. -1.
         21   -1    0    0  501  503 -0.00000000000E+00 -0.00000000000E+00 -0.61185218252E+03  0.61185218252E+03  0.00000000000E+00 0.  1.
          6    2    1    2  501    0 -0.36752721849E+02  0.18002089062E+03 -0.19960659997E+02  0.25279793861E+03  0.17248213297E+03 0.  0.
         24    2    3    3    0    0  0.10494975085E+02  0.17389988028E+03 -0.47134506486E+02  0.19774960016E+03  0.80820355094E+02 0.  0.
         -6    2    1    2    0  502  0.36752721849E+02 -0.18002089062E+03 -0.44199593658E+03  0.50894982986E+03  0.17294865636E+03 0.  0.
        -24    2    5    5    0    0  0.16806612575E+01 -0.81479715884E+02 -0.10171970599E+03  0.15292958373E+03  0.79992438827E+02 0.  0.
          5    1    3    3  501    0 -0.47247696934E+02  0.61210103379E+01  0.27173846489E+02  0.55048338450E+02  0.47000000000E+01 0. -1.
        -13    1    4    4    0    0 -0.27018685062E+02  0.12854116662E+03 -0.19738774056E+02  0.13282492259E+03  0.00000000000E+00 0.  1.
         14    1    4    4    0    0  0.37513660146E+02  0.45358713657E+02 -0.27395732430E+02  0.64924677570E+02  0.00000000000E+00 0. -1.
         -5    1    5    5    0  502  0.35072060591E+02 -0.98541174734E+02 -0.34027623058E+03  0.35602024613E+03  0.47000000000E+01 0.  1.
         11    1    6    6    0    0 -0.17850165305E+02  0.71349164886E+01 -0.41120218874E+01  0.19658182997E+02  0.00000000000E+00 0. -1.
        -12    1    6    6    0    0  0.19530826563E+02 -0.88614632372E+02 -0.97607684107E+02  0.13327140073E+03  0.00000000000E+00 0.  1.
</event>
<event>
12    1  0.8407180E-002  0.3431138E+03  0.7818608E-02  0.1065626E+00
         21   -1    0    0  501  502  0.00000000000E+00  0.00000000000E+00  0.26600216193E+03  0.26600216193E+03  0.00000000000E+00 0. -1.
         21   -1    0    0  502  503 -0.00000000000E+00 -0.00000000000E+00 -0.62225843661E+03  0.62225843661E+03  0.00000000000E+00 0.  1.
         -6    2    1    2    0  503 -0.68425182843E+02  0.28925919515E+03 -0.41772504119E+03  0.53968417574E+03  0.16855833378E+03 0.  0.
        -24    2    3    3    0    0 -0.33617481789E+02  0.29349046759E+03 -0.37027503439E+03  0.48049741317E+03  0.80668291899E+02 0.  0.
          6    2    1    2  501    0  0.68425182843E+02 -0.28925919515E+03  0.61468766515E+02  0.34857642280E+03  0.17138910598E+03 0.  0.
         24    2    5    5    0    0  0.12987447961E+02 -0.12735475611E+03  0.86793489273E+02  0.17551625576E+03  0.82975529825E+02 0.  0.
          5    1    5    5  501    0  0.55437734882E+02 -0.16190443904E+03 -0.25324722758E+02  0.17306016703E+03  0.47000000000E+01 0. -1.
        -13    1    6    6    0    0 -0.17396783457E+02 -0.10517252311E+03  0.36432376419E+02  0.11265534050E+03  0.00000000000E+00 0.  1.
         14    1    6    6    0    0  0.30384231418E+02 -0.22182232995E+02  0.50361112854E+02  0.62860915261E+02  0.00000000000E+00 0. -1.
         -5    1    3    3    0  503 -0.34807701054E+02 -0.42312724424E+01 -0.47450006797E+02  0.59186762576E+02  0.47000000000E+01 0.  1.
         13    1    4    4    0    0 -0.13602604193E+02  0.56250354268E+02 -0.12972530630E+03  0.14204854202E+03  0.00000000000E+00 0. -1.
        -14    1    4    4    0    0 -0.20014877595E+02  0.23724011332E+03 -0.24054972810E+03  0.33844887115E+03  0.00000000000E+00 0.  1.
</event>
<event>
12    1  0.8407180E-002  0.1946866E+03  0.7818608E-02  0.1159146E+00
         21   -1    0    0  503  502  0.00000000000E+00  0.00000000000E+00  0.35359798048E+02  0.35359798048E+02  0.00000000000E+00 0. -1.
         21   -1    0    0  501  503 -0.00000000000E+00 -0.00000000000E+00 -0.16522620459E+04  0.16522620459E+04  0.00000000000E+00 0. -1.
          6    2    1    2  501    0  0.11474466127E+02 -0.60528000137E+01 -0.13274945822E+04  0.13388243622E+04  0.17332197597E+03 0.  0.
         24    2    3    3    0    0 -0.53787175909E+02 -0.16467222458E+02 -0.99362613561E+03  0.99844549721E+03  0.80226453462E+02 0.  0.
         -6    2    1    2    0  502 -0.11474466127E+02  0.60528000137E+01 -0.28940766567E+03  0.34879748174E+03  0.19425392290E+03 0.  0.
        -24    2    5    5    0    0  0.43431978119E+02 -0.58137499821E+02 -0.18231224672E+03  0.21231806581E+03  0.81085758043E+02 0.  0.
          5    1    3    3  501    0  0.65261642036E+02  0.10414422444E+02 -0.33386844656E+03  0.34037886498E+03  0.47000000000E+01 0. -1.
        -13    1    4    4    0    0 -0.58543600417E+02  0.14143938178E+02 -0.46076150644E+03  0.46468114869E+03  0.00000000000E+00 0.  1.
         14    1    4    4    0    0  0.47564245079E+01 -0.30611160636E+02 -0.53286462917E+03  0.53376434852E+03  0.00000000000E+00 0. -1.
         -5    1    5    5    0  502 -0.54906444246E+02  0.64190299835E+02 -0.10709541895E+03  0.13647941593E+03  0.47000000000E+01 0.  1.
         11    1    6    6    0    0 -0.18675572444E+02 -0.19592770050E+02 -0.18071651884E+02  0.32545940548E+02  0.00000000000E+00 0. -1.
        -12    1    6    6    0    0  0.62107550562E+02 -0.38544729771E+02 -0.16424059483E+03  0.17977212526E+03  0.00000000000E+00 0.  1.
</event>
<event>
12    1  0.8407180E-002  0.3892198E+03  0.7818608E-02  0.1047698E+00
         21   -1    0    0  503  502  0.00000000000E+00  0.00000000000E+00  0.26446161389E+03  0.26446161389E+03  0.00000000000E+00 0.  1.
         21   -1    0    0  501  503 -0.00000000000E+00 -0.00000000000E+00 -0.94396376023E+03  0.94396376023E+03  0.00000000000E+00 0.  1.
          6    2    1    2  501    0  0.18501961110E+02 -0.34753298011E+03 -0.71996465438E+03  0.81843823996E+03  0.17427149580E+03 0.  0.
         24    2    3    3    0    0 -0.44498424718E+02 -0.28761218693E+03 -0.57360391347E+03  0.64813525540E+03  0.79730670877E+02 0.  0.
         -6    2    1    2    0  502 -0.18501961110E+02  0.34753298011E+03  0.40462508043E+02  0.38998713415E+03  0.17126370140E+03 0.  0.
        -24    2    5    5    0    0 -0.69896641067E+02  0.22301368355E+03 -0.47434630306E+01  0.24781773461E+03  0.82282960963E+02 0.  0.
          5    1    3    3  501    0  0.63000385828E+02 -0.59920793185E+02 -0.14636074091E+03  0.17030298456E+03  0.47000000000E+01 0. -1.
        -13    1    4    4    0    0 -0.27522877767E+02 -0.95208476518E+02 -0.27688953918E+03  0.29409178790E+03  0.00000000000E+00 0.  1.
         14    1    4    4    0    0 -0.16975546951E+02 -0.19240371041E+03 -0.29671437428E+03  0.35404346750E+03  0.00000000000E+00 0. -1.
         -5    1    5    5    0  502  0.51394679956E+02  0.12451929657E+03  0.45205971073E+02  0.14216939954E+03  0.47000000000E+01 0.  1.
         11    1    6    6    0    0 -0.12753622102E+02  0.10438804947E+02  0.20444193208E+02  0.26260018305E+02  0.00000000000E+00 0. -1.
        -12    1    6    6    0    0 -0.57143018965E+02  0.21257487860E+03 -0.25187656239E+02  0.22155771631E+03  0.00000000000E+00 0.  1.
</event>
<event>
12    1  0.8407180E-002  0.2479888E+03  0.7818608E-02  0.1115322E+00
         21   -1    0    0  501  502  0.00000000000E+00  0.00000000000E+00  0.27044246912E+03  0.27044246912E+03  0.00000000000E+00 0. -1.
         21   -1    0    0  502  503 -0.00000000000E+00 -0.00000000000E+00 -0.83375818983E+03  0.83375818983E+03  0.00000000000E+00 0.  1.
         -6    2    1    2    0  503 -0.16915937342E+03 -0.46986123944E+01 -0.75480759071E+03  0.79450168756E+03  0.18127730681E+03 0.  0.
        -24    2    3    3    0    0 -0.15957751111E+03 -0.54265895455E+02 -0.47645903713E+03  0.51157283623E+03  0.79270317527E+02 0.  0.
          6    2    1    2  501    0  0.16915937342E+03  0.46986123944E+01  0.19149187001E+03  0.30969897139E+03  0.17494955281E+03 0.  0.
         24    2    5    5    0    0  0.48587439709E+02 -0.17754939615E+02  0.17339098958E+02  0.96642568386E+02  0.79769445864E+02 0.  0.
          5    1    5    5  501    0  0.12057193371E+03  0.22453552010E+02  0.17415277105E+03  0.21305640301E+03  0.47000000000E+01 0. -1.
        -11    1    6    6    0    0  0.48757684785E+02 -0.45661538357E+02  0.16072518912E+02  0.68706722923E+02  0.00000000000E+00 0.  1.
         12    1    6    6    0    0 -0.17024507610E+00  0.27906598741E+02  0.12665800455E+01  0.27935845463E+02  0.00000000000E+00 0. -1.
         -5    1    3    3    0  503 -0.95818623075E+01  0.49567283060E+02 -0.27834855358E+03  0.28292885133E+03  0.47000000000E+01 0.  1.
         13    1    4    4    0    0 -0.77531931431E+02 -0.65191203688E+02 -0.22268611505E+03  0.24464300371E+03  0.00000000000E+00 0. -1.
        -14    1    4    4    0    0 -0.82045579679E+02  0.10925308233E+02 -0.25377292208E+03  0.26692983252E+03  0.00000000000E+00 0.  1.
</event>
<event>
12    1  0.8407180E-002  0.1796239E+03  0.7818608E-02  0.1168249E+00
         21   -1    0    0  503  502  0.00000000000E+00  0.00000000000E+00  0.15420102860E+04  0.15420102860E+04  0.00000000000E+00 0.  1.
         21   -1    0    0  501  503 -0.00000000000E+00 -0.00000000000E+00 -0.30429592341E+02  0.30429592341E+02  0.00000000000E+00 0.  1.
          6    2    1    2  501    0  0.46924641026E-01  0.48769794756E+02  0.11956379636E+04  0.12090054773E+04  0.17252712541E+03 0.  0.
         24    2    3    3    0    0 -0.31591907288E+01  0.39341997002E+02  0.11946707203E+04  0.11979516044E+04  0.79323030450E+02 0.  0.
         -6    2    1    2    0  502 -0.46924641026E-01 -0.48769794756E+02  0.31594273009E+03  0.36343440109E+03  0.17287643020E+03 0.  0.
        -24    2    5    5    0    0 -0.20739342226E+02  0.35690649254E+02  0.18483298361E+03  0.20603809120E+03  0.81145057968E+02 0.  0.
          5    1    3    3  501    0  0.32061153699E+01  0.94277977536E+01  0.96724323611E+00  0.11053872884E+02  0.47000000000E+01 0. -1.
        -11    1    4    4    0    0  0.26342917588E+02  0.50571423322E+02  0.75965541053E+03  0.76179246577E+03  0.00000000000E+00 0.  1.
         12    1    4    4    0    0 -0.29502108317E+02 -0.11229426320E+02  0.43501530981E+03  0.43615913860E+03  0.00000000000E+00 0. -1.
         -5    1    5    5    0  502  0.20692417585E+02 -0.84460444010E+02  0.13110974647E+03  0.15739630989E+03  0.47000000000E+01 0.  1.
         13    1    6    6    0    0  0.31290954891E+02  0.13422697526E+02  0.60312960738E+02  0.69259987726E+02  0.00000000000E+00 0. -1.
        -14    1    6    6    0    0 -0.52030297116E+02  0.22267951728E+02  0.12452002288E+03  0.13677810347E+03  0.00000000000E+00 0.  1.
</event>
<event>
12    1  0.8407180E-002  0.2812783E+03  0.7818608E-02  0.1095082E+00
         21   -1    0    0  503  502  0.00000000000E+00  0.00000000000E+00  0.10205778273E+03  0.10205778273E+03  0.00000000000E+00 0. -1.
         21   -1    0    0  501  503 -0.00000000000E+00 -0.00000000000E+00 -0.97499421184E+03  0.97499421184E+03  0.00000000000E+00 0.  1.
          6    2    1    2  501    0  0.12301386573E+03 -0.18562949818E+03 -0.19200313639E+03  0.34056231810E+03  0.17183354260E+03 0.  0.
         24    2    3    3    0    0  0.30793427551E+02 -0.13269021269E+03 -0.56059955341E+02  0.16790712518E+03  0.80592532955E+02 0.  0.
         -6    2    1    2    0  502 -0.12301386573E+03  0.18562949818E+03 -0.68093329272E+03  0.73648967648E+03  0.17075178673E+03 0.  0.
        -24    2    5    5    0    0 -0.10161997278E+03  0.17729507105E+03 -0.41401271439E+03  0.46854220688E+03  0.79781644902E+02 0.  0.
          5    1    3    3  501    0  0.92220438183E+02 -0.52939285491E+02 -0.13594318105E+03  0.17265519292E+03  0.47000000000E+01 0. -1.
        -13    1    4    4    0    0  0.41108691663E+02 -0.86032914394E+02 -0.69822076621E+02  0.11818083293E+03  0.00000000000E+00 0.  1.
         14    1    4    4    0    0 -0.10315264112E+02 -0.46657298298E+02  0.13762121280E+02  0.49726292244E+02  0.00000000000E+00 0. -1.
         -5    1    5    5    0  502 -0.21393892954E+02  0.83344271334E+01 -0.26692057832E+03  0.26794746960E+03  0.47000000000E+01 0.  1.
         11    1    6    6    0    0 -0.10436310609E+03  0.15429598726E+03 -0.40056516117E+03  0.44175938920E+03  0.00000000000E+00 0. -1.
        -12    1    6    6    0    0  0.27431333112E+01  0.22999083789E+02 -0.13447553220E+02  0.26782817684E+02  0.00000000000E+00 0.  1.
</event>
<event>
12    1  0.8407180E-002  0.2764451E+03  0.7818608E-02  0.1097671E+00
         21   -1    0    0  501  502  0.00000000000E+00  0.00000000000E+00  0.38963347498E+03  0.38963347498E+03  0.00000000000E+00 0. -1.
         21   -1    0    0  502  503 -0.00000000000E+00 -0.00000000000E+00 -0.20692677558E+03  0.20692677558E+03  0.00000000000E+00 0. -1.
         -6    2    1    2    0  503 -0.17568824472E+03  0.12646418739E+03  0.22819640838E+02  0.27720812458E+03  0.17165097815E+03 0.  0.
        -24    2    3    3    0    0 -0.15123915734E+03  0.16033501949E+03  0.21646871020E+02  0.23515510411E+03  0.79048939123E+02 0.  0.
          6    2    1    2  501    0  0.17568824472E+03 -0.12646418739E+03  0.15988705857E+03  0.31935212598E+03  0.17193707816E+03 0.  0.
         24    2    5    5    0    0  0.11360126297E+03 -0.53234035507E+02  0.21841757734E+02  0.15113784737E+03  0.81403175863E+02 0.  0.
          5    1    5    5  501    0  0.62086981749E+02 -0.73230151880E+02  0.13804530084E+03  0.16821427861E+03  0.47000000000E+01 0. -1.
        -13    1    6    6    0    0 -0.55044844782E+01 -0.26298180168E+02  0.90724542443E+01  0.28358474139E+02  0.00000000000E+00 0.  1.
         14    1    6    6    0    0  0.11910574745E+03 -0.26935855339E+02  0.12769303490E+02  0.12277937323E+03  0.00000000000E+00 0. -1.
         -5    1    3    3    0  503 -0.24449087381E+02 -0.33870832106E+02  0.11727698183E+01  0.42053020466E+02  0.47000000000E+01 0.  1.
         11    1    4    4    0    0 -0.12898713858E+03  0.82315088665E+02  0.13063914201E+02  0.15357122646E+03  0.00000000000E+00 0. -1.
        -12    1    4    4    0    0 -0.22252018755E+02  0.78019930827E+02  0.85829568192E+01  0.81583877652E+02  0.00000000000E+00 0.  1.
</event>
<event>
12    1  0.8407180E-002  0.1850569E+03  0.7818608E-02  0.1165601E+00
         21   -1    0    0  501  502  0.00000000000E+00  0.00000000000E+00  0.50892212687E+03  0.50892212687E+03  0.00000000000E+00 0. -1.
         21   -1    0    0  502  503 -0.00000000000E+00 -0.00000000000E+00 -0.66869421050E+02  0.66869421050E+02  0.00000000000E+00 0. -1.
         -6    2    1    2    0  503 -0.96267430123E+01  0.21342654411E+02  0.14936191871E+03  0.22950558247E+03  0.17267207807E+03 0.  0.
        -24    2    3    3    0    0  0.26101251534E+02  0.47580761541E+02  0.15658097047E+03  0.18434882695E+03  0.80756953175E+02 0.  0.
          6    2    1    2  501    0  0.96267430123E+01 -0.21342654411E+02  0.29269078711E+03  0.34628596545E+03  0.18356985029E+03 0.  0.
         24    2    5    5    0    0 -0.61896092141E+02  0.18525199200E+02  0.17779155168E+03  0.20511625906E+03  0.79300281565E+02 0.  0.
          5    1    5    5  501    0  0.71522835154E+02 -0.39867853611E+02  0.11489923543E+03  0.14116970639E+03  0.47000000000E+01 0. -1.
        -13    1    6    6    0    0  0.11539792194E+02  0.19173165606E+02  0.78434357441E+02  0.81564241616E+02  0.00000000000E+00 0.  1.
         14    1    6    6    0    0 -0.73435884335E+02 -0.64796640622E+00  0.99357194235E+02  0.12355201745E+03  0.00000000000E+00 0. -1.
         -5    1    3    3    0  503 -0.35727994547E+02 -0.26238107130E+02 -0.72190517570E+01  0.45156755512E+02  0.47000000000E+01 0.  1.
         11    1    4    4    0    0  0.46048501309E+02  0.11930959623E+02  0.44827560747E+02  0.65363005384E+02  0.00000000000E+00 0. -1.
        -12    1    4    4    0    0 -0.19947249775E+02  0.35649801918E+02  0.11175340972E+03  0.11898582157E+03  0.00000000000E+00 0.  1.
</event>
<event>
12    1  0.8407180E-002  0.1780503E+03  0.7818608E-02  0.1171046E+00
         21   -1    0    0  503  502  0.00000000000E+00  0.00000000000E+00  0.11028357430E+03  0.11028357430E+03  0.00000000000E+00 0.  1.
         21   -1    0    0  501  503 -0.00000000000E+00 -0.00000000000E+00 -0.39925007126E+03  0.39925007126E+03  0.00000000000E+00 0.  1.
          6    2    1    2  501    0  0.16136282372E+02 -0.38779702463E+02 -0.28283618129E+03  0.33137782816E+03  0.16748347566E+03 0.  0.
         24    2    3    3    0    0  0.33502189806E+01 -0.78389893148E+02 -0.26615988966E+03  0.28629302667E+03  0.70472767361E+02 0.  0.
         -6    2    1    2    0  502 -0.16136282372E+02  0.38779702463E+02 -0.61303156704E+01  0.17815581739E+03  0.17302505474E+03 0.  0.
        -24    2    5    5    0    0  0.86446342970E+01  0.87785564493E+02  0.14292809491E+02  0.11937773997E+03  0.79156334939E+02 0.  0.
          5    1    3    3  501    0  0.12786063391E+02  0.39610190686E+02 -0.16676291630E+02  0.45084801494E+02  0.47000000000E+01 0. -1.
        -11    1    4    4    0    0  0.25791238183E+02 -0.57042798512E+01 -0.10199002116E+03  0.10535507198E+03  0.00000000000E+00 0.  1.
         12    1    4    4    0    0 -0.22441019202E+02 -0.72685613297E+02 -0.16416986850E+03  0.18093795469E+03  0.00000000000E+00 0. -1.
         -5    1    5    5    0  502 -0.24780916669E+02 -0.49005862031E+02 -0.20423125161E+02  0.58778077424E+02  0.47000000000E+01 0.  1.
         13    1    6    6    0    0 -0.46242843036E+01  0.49131435712E+02 -0.31074369576E+02  0.58317222371E+02  0.00000000000E+00 0. -1.
        -14    1    6    6    0    0  0.13268918601E+02  0.38654128781E+02  0.45367179067E+02  0.61060517596E+02  0.00000000000E+00 0.  1.
</event>
<event>
12    1  0.8407180E-002  0.2654533E+03  0.7818608E-02  0.1104327E+00
         21   -1    0    0  501  502  0.00000000000E+00  0.00000000000E+00  0.14150010201E+03  0.14150010201E+03  0.00000000000E+00 0. -1.
         21   -1    0    0  502  503 -0.00000000000E+00 -0.00000000000E+00 -0.69248493983E+03  0.69248493983E+03  0.00000000000E+00 0. -1.
         -6    2    1    2    0  503 -0.19052713797E+03 -0.56326653872E+02 -0.50052787668E+03  0.56656296774E+03  0.17604589981E+03 0.  0.
        -24    2    3    3    0    0 -0.12120829894E+03 -0.86722285942E+02 -0.43684504800E+03  0.46753474670E+03  0.74450901938E+02 0.  0.
          6    2    1    2  501    0  0.19052713797E+03  0.56326653872E+02 -0.50456961141E+02  0.26742207411E+03  0.17174218629E+03 0.  0.
         24    2    5    5    0    0  0.13958317404E+03 -0.28960779908E+02 -0.25115101807E+02  0.16478906940E+03  0.78755823942E+02 0.  0.
          5    1    5    5  501    0  0.50943963923E+02  0.85287433780E+02 -0.25341859334E+02  0.10263300471E+03  0.47000000000E+01 0. -1.
        -11    1    6    6    0    0  0.12377544294E+03 -0.10435762044E+02 -0.46248436564E+02  0.13254502363E+03  0.00000000000E+00 0.  1.
         12    1    6    6    0    0  0.15807731107E+02 -0.18525017864E+02  0.21133334757E+02  0.32244045769E+02  0.00000000000E+00 0. -1.
         -5    1    3    3    0  503 -0.69318839025E+02  0.30395632070E+02 -0.63682828680E+02  0.99028221035E+02  0.47000000000E+01 0.  1.
         11    1    4    4    0    0 -0.48441519847E+02  0.39888551285E+01 -0.10012890475E+03  0.11130269258E+03  0.00000000000E+00 0. -1.
        -12    1    4    4    0    0 -0.72766779094E+02 -0.90711141070E+02 -0.33671614325E+03  0.35623205412E+03  0.00000000000E+00 0.  1.
</event>
<event>
12    1  0.8407180E-002  0.1986093E+03  0.7818608E-02  0.1151560E+00
         21   -1    0    0  503  502  0.00000000000E+00  0.00000000000E+00  0.30499647981E+03  0.30499647981E+03  0.00000000000E+00 0. -1.
         21   -1    0    0  501  503 -0.00000000000E+00 -0.00000000000E+00 -0.13968355237E+03  0.13968355237E+03  0.00000000000E+00 0. -1.
          6    2    1    2  501    0 -0.16966477485E+02  0.96955690832E+02  0.14804301108E+03  0.24532127089E+03  0.16904888488E+03 0.  0.
         24    2    3    3    0    0  0.30130382226E+02  0.44391209034E+02  0.14633035266E+03  0.17456703328E+03  0.78629877422E+02 0.  0.
         -6    2    1    2    0  502  0.16966477485E+02 -0.96955690832E+02  0.17269916364E+02  0.19935876128E+03  0.17250332851E+03 0.  0.
        -24    2    5    5    0    0  0.64062522426E+02 -0.31867602651E+02 -0.22518655002E+02  0.10958283420E+03  0.79885898945E+02 0.  0.
          5    1    3    3  501    0 -0.47096859711E+02  0.52564481798E+02  0.17126584121E+01  0.70754237613E+02  0.47000000000E+01 0. -1.
        -13    1    4    4    0    0  0.30609080717E+02  0.23354144296E+02  0.14615395553E+02  0.41181812312E+02  0.00000000000E+00 0.  1.
         14    1    4    4    0    0 -0.47869849102E+00  0.21037064738E+02  0.13171495711E+03  0.13338522096E+03  0.00000000000E+00 0. -1.
         -5    1    5    5    0  502 -0.47096044941E+02 -0.65088088181E+02  0.39788571366E+02  0.89775927082E+02  0.47000000000E+01 0.  1.
         11    1    6    6    0    0  0.41560605862E+02 -0.20777833345E+02  0.27237862369E+02  0.53860035876E+02  0.00000000000E+00 0. -1.
        -12    1    6    6    0    0  0.22501916564E+02 -0.11089769306E+02 -0.49756517371E+02  0.55722798326E+02  0.00000000000E+00 0.  1.
</event>
<event>
12    1  0.8407180E-002  0.1871397E+03  0.7818608E-02  0.1161732E+00
         21   -1    0    0  503  502  0.00000000000E+00  0.00000000000E+00  0.81830517258E+03  0.81830517258E+03  0.00000000000E+00 0. -1.
         21   -1    0    0  501  503 -0.00000000000E+00 -0.00000000000E+00 -0.43686996387E+02  0.43686996387E+02  0.00000000000E+00 0. -1.
          6    2    1    2  501    0 -0.43761828861E+01  0.73452051812E+02  0.46542940657E+03  0.50057969215E+03  0.16894123476E+03 0.  0.
         24    2    3    3    0    0  0.48908332008E+02  0.64129156969E+02  0.39823249055E+03  0.41418714955E+03  0.80357355624E+02 0.  0.
         -6    2    1    2    0  502  0.43761828861E+01 -0.73452051812E+02  0.30918876963E+03  0.36141247682E+03  0.17206663896E+03 0.  0.
        -24    2    5    5    0    0  0.42646079959E+02 -0.24100164576E+02  0.77244776853E+02  0.12116198342E+03  0.79460459385E+02 0.  0.
          5    1    3    3  501    0 -0.53284514895E+02  0.93228948429E+01  0.67196916012E+02  0.86392542602E+02  0.47000000000E+01 0. -1.
        -11    1    4    4    0    0 -0.15948541059E+02 -0.59416030744E+01  0.40470763347E+02  0.43903773128E+02  0.00000000000E+00 0.  1.
         12    1    4    4    0    0  0.64856873068E+02  0.70070760044E+02  0.35776172721E+03  0.37028337642E+03  0.00000000000E+00 0. -1.
         -5    1    5    5    0  502 -0.38269897073E+02 -0.49351887236E+02  0.23194399278E+03  0.24025049341E+03  0.47000000000E+01 0.  1.
         11    1    6    6    0    0 -0.11516248576E+02 -0.33618070039E+02  0.45263435539E+02  0.57546304931E+02  0.00000000000E+00 0. -1.
        -12    1    6    6    0    0  0.54162328536E+02  0.95179054630E+01  0.31981341313E+02  0.63615678484E+02  0.00000000000E+00 0.  1.
</event>
<event>
12    1  0.8407180E-002  0.2407959E+03  0.7818608E-02  0.1119973E+00
         21   -1    0    0  501  502  0.00000000000E+00  0.00000000000E+00  0.15026955966E+03  0.15026955966E+03  0.00000000000E+00 0.  1.
         21   -1    0    0  502  503 -0.00000000000E+00 -0.00000000000E+00 -0.58762576236E+03  0.58762576236E+03  0.00000000000E+00 0. -1.
         -6    2    1    2    0  503 -0.27861856210E+02 -0.16255446438E+03 -0.43720502102E+03  0.49709938929E+03  0.16958577623E+03 0.  0.
        -24    2    3    3    0    0 -0.35686774899E+02 -0.72643922610E+02 -0.36272018172E+03  0.37998740800E+03  0.79207415197E+02 0.  0.
          6    2    1    2  501    0  0.27861856210E+02  0.16255446438E+03 -0.15118167790E+00  0.24079593273E+03  0.17544919903E+03 0.  0.
         24    2    5    5    0    0  0.88480469825E+01  0.59668595266E+01 -0.22245023204E+02  0.81449044562E+02  0.77622254893E+02 0.  0.
          5    1    5    5  501    0  0.19013809228E+02  0.15658760485E+03  0.22093841526E+02  0.15934688816E+03  0.47000000000E+01 0. -1.
        -11    1    6    6    0    0  0.22958999104E+02  0.21357519329E+02  0.17966565495E+02  0.36139407126E+02  0.00000000000E+00 0.  1.
         12    1    6    6    0    0 -0.14110952121E+02 -0.15390659802E+02 -0.40211588698E+02  0.45309637436E+02  0.00000000000E+00 0. -1.
         -5    1    3    3    0  503  0.78249186883E+01 -0.89910541768E+02 -0.74484839307E+02  0.11711198128E+03  0.47000000000E+01 0.  1.
         13    1    4    4    0    0 -0.30028073865E+02 -0.68131458707E+01 -0.39503101909E+02  0.50085918551E+02  0.00000000000E+00 0. -1.
        -14    1    4    4    0    0 -0.56587010334E+01 -0.65830776739E+02 -0.32321707981E+03  0.32990148945E+03  0.00000000000E+00 0.  1.
</event>
<event>
12    1  0.8407180E-002  0.1823720E+03  0.7818608E-02  0.1167975E+00
         21   -1    0    0  503  502  0.00000000000E+00  0.00000000000E+00  0.44327338018E+03  0.44327338018E+03  0.00000000000E+00 0.  1.
         21   -1    0    0  501  503 -0.00000000000E+00 -0.00000000000E+00 -0.17438561672E+03  0.17438561672E+03  0.00000000000E+00 0. -1.
          6    2    1    2  501    0 -0.70994038804E+02  0.36709587190E+02 -0.10179055487E+03  0.20885612619E+03  0.16392625491E+03 0.  0.
         24    2    3    3    0    0 -0.79891254658E+02  0.68113753000E+02 -0.11392481210E+03  0.17371765328E+03  0.78593029777E+02 0.  0.
         -6    2    1    2    0  502  0.70994038804E+02 -0.36709587190E+02  0.37067831832E+03  0.40880287071E+03  0.15274038133E+03 0.  0.
        -24    2    5    5    0    0 -0.39635283384E+01 -0.48445813909E+02  0.22945577867E+03  0.24842122714E+03  0.81856247687E+02 0.  0.
          5    1    3    3  501    0  0.88972158540E+01 -0.31404165810E+02  0.12134257230E+02  0.35138472914E+02  0.47000000000E+01 0. -1.
        -11    1    4    4    0    0 -0.18307216544E+02  0.26762151685E+01  0.96959614553E+01  0.20888465089E+02  0.00000000000E+00 0.  1.
         12    1    4    4    0    0 -0.61584038114E+02  0.65437537832E+02 -0.12362077355E+03  0.15282918819E+03  0.00000000000E+00 0. -1.
         -5    1    5    5    0  502  0.74957567142E+02  0.11736226719E+02  0.14122253965E+03  0.16038164357E+03  0.47000000000E+01 0.  1.
         11    1    6    6    0    0  0.54288628515E+01 -0.92586528692E+01 -0.40442045927E+01  0.11469559521E+02  0.00000000000E+00 0. -1.
        -12    1    6    6    0    0 -0.93923911899E+01 -0.39187161040E+02  0.23349998327E+03  0.23695166762E+03  0.00000000000E+00 0.  1.
</event>
<event>
12    1  0.8407180E-002  0.2412989E+03  0.7818608E-02  0.1118995E+00
         21   -1    0    0  501  502  0.00000000000E+00  0.00000000000E+00  0.35065512873E+03  0.35065512873E+03  0.00000000000E+00 0. -1.
         21   -1    0    0  502  503 -0.00000000000E+00 -0.00000000000E+00 -0.34191126382E+03  0.34191126382E+03  0.00000000000E+00 0. -1.
         -6    2    1    2    0  503  0.12654715955E+03  0.11120044721E+03 -0.24416865731E+03  0.34300968109E+03  0.17221377720E+03 0.  0.
        -24    2    3    3    0    0  0.62518125984E+01  0.20023926995E+02 -0.12792546050E+03  0.15243502605E+03  0.80196451976E+02 0.  0.
          6    2    1    2  501    0 -0.12654715955E+03 -0.11120044721E+03  0.25291252222E+03  0.34955671146E+03  0.17275829236E+03 0.  0.
         24    2    5    5    0    0 -0.22589386611E+01 -0.97096737532E+02  0.13354289339E+03  0.17658944645E+03  0.62587929977E+02 0.  0.
          5    1    5    5  501    0 -0.12428822089E+03 -0.14103709682E+02  0.11936962883E+03  0.17296726501E+03  0.47000000000E+01 0. -1.
        -11    1    6    6    0    0  0.10033388863E+02 -0.46902374914E+02  0.20242591092E+02  0.52060197452E+02  0.00000000000E+00 0.  1.
         12    1    6    6    0    0 -0.12292327524E+02 -0.50194362618E+02  0.11330030230E+03  0.12452924900E+03  0.00000000000E+00 0. -1.
         -5    1    3    3    0  503  0.12029534695E+03  0.91176520220E+02 -0.11624319681E+03  0.19057465503E+03  0.47000000000E+01 0.  1.
         11    1    4    4    0    0 -0.19589463658E+02  0.37298911373E+02 -0.10691547240E+03  0.11491681389E+03  0.00000000000E+00 0. -1.
        -12    1    4    4    0    0  0.25841276256E+02 -0.17274984378E+02 -0.21009988103E+02  0.37518212163E+02  0.00000000000E+00 0.  1.
</event>
<event>
12    1  0.8407180E-002  0.2196813E+03  0.7818608E-02  0.1135033E+00
         21   -1    0    0  503  502  0.00000000000E+00  0.00000000000E+00  0.22115551444E+03  0.22115551444E+03  0.00000000000E+00 0. -1.
         21   -1    0    0  501  503 -0.00000000000E+00 -0.00000000000E+00 -0.21393295795E+03  0.21393295795E+03  0.00000000000E+00 0. -1.
          6    2    1    2  501    0 -0.51962400510E+02  0.12252971980E+03 -0.67621919103E+01  0.21496248753E+03  0.16866985654E+03 0.  0.
         24    2    3    3    0    0  0.22029489188E+02  0.38013787098E+02  0.32214789033E+02  0.95970732918E+02  0.79007863792E+02 0.  0.
         -6    2    1    2    0  502  0.51962400510E+02 -0.12252971980E+03  0.13984748396E+02  0.22012598487E+03  0.17477486297E+03 0.  0.
        -24    2    5    5    0    0  0.47549184426E+02 -0.12413845029E+03 -0.45025753907E+02  0.16074253707E+03  0.78355375886E+02 0.  0.
          5    1    3    3  501    0 -0.73991889697E+02  0.84515932702E+02 -0.38976980944E+02  0.11899175461E+03  0.47000000000E+01 0. -1.
        -11    1    4    4    0    0  0.34264326094E+02  0.39205550684E+02 -0.91073461318E+01  0.52858897082E+02  0.00000000000E+00 0.  1.
         12    1    4    4    0    0 -0.12234836907E+02 -0.11917635864E+01  0.41322135165E+02  0.43111835836E+02  0.00000000000E+00 0. -1.
         -5    1    5    5    0  502  0.44132160837E+01  0.16087304862E+01  0.59010502304E+02  0.59383447796E+02  0.47000000000E+01 0.  1.
         11    1    6    6    0    0  0.55335523634E+02 -0.77513248156E+02  0.31964395900E+00  0.95238784052E+02  0.00000000000E+00 0. -1.
        -12    1    6    6    0    0 -0.77863392077E+01 -0.46625202130E+02 -0.45345397866E+02  0.65503753019E+02  0.00000000000E+00 0.  1.
</event>
<event>
12    1  0.8407180E-002  0.1767701E+03  0.7818608E-02  0.1172470E+00
         21   -1    0    0  503  502  0.00000000000E+00  0.00000000000E+00  0.13455400736E+03  0.13455400736E+03  0.00000000000E+00 0.  1.
         21   -1    0    0  501  503 -0.00000000000E+00 -0.00000000000E+00 -0.13195789042E+04  0.13195789042E+04  0.00000000000E+00 0.  1.
          6    2    1    2  501    0  0.66146304432E+01  0.40002353280E+02 -0.12565723405E+04  0.12689451217E+04  0.17205735462E+03 0.  0.
         24    2    3    3    0    0  0.72320421447E+02  0.16796823406E+02 -0.82122224067E+03  0.82802840956E+03  0.75582417505E+02 0.  0.
         -6    2    1    2    0  502 -0.66146304432E+01 -0.40002353280E+02  0.71547443653E+02  0.18518778991E+03  0.16592630664E+03 0.  0.
        -24    2    5    5    0    0  0.38680225679E+01  0.40024134684E+02  0.42987653975E+02  0.99444706364E+02  0.80152468919E+02 0.  0.
          5    1    3    3  501    0 -0.65705791004E+02  0.23205529874E+02 -0.43535009983E+03  0.44091671210E+03  0.47000000000E+01 0. -1.
        -11    1    4    4    0    0  0.52484488153E+02  0.72765236013E+01 -0.77528791989E+03  0.77709647278E+03  0.00000000000E+00 0.  1.
         12    1    4    4    0    0  0.19835933294E+02  0.95202998043E+01 -0.45934320779E+02  0.50931936773E+02  0.00000000000E+00 0. -1.
         -5    1    5    5    0  502 -0.10482653011E+02 -0.80026487964E+02  0.28559789678E+02  0.85743083549E+02  0.47000000000E+01 0.  1.
         13    1    6    6    0    0 -0.38074891925E+02  0.20763847390E+02  0.23710645842E+02  0.49427011641E+02  0.00000000000E+00 0. -1.
        -14    1    6    6    0    0  0.41942914493E+02  0.19260287294E+02  0.19277008133E+02  0.50017694723E+02  0.00000000000E+00 0.  1.
</event>
<event>
12    1  0.8407180E-002  0.2561985E+03  0.7818608E-02  0.1109812E+00
         21   -1    0    0  501  502  0.00000000000E+00  0.00000000000E+00  0.12528005308E+03  0.12528005308E+03  0.00000000000E+00 0.  1.
         21   -1    0    0  502  503 -0.00000000000E+00 -0.00000000000E+00 -0.55844021958E+03  0.55844021958E+03  0.00000000000E+00 0. -1.
         -6    2    1    2    0  503  0.12347868339E+03  0.14245374774E+03 -0.30822881035E+03  0.40080252687E+03  0.17348662923E+03 0.  0.
        -24    2    3    3    0    0  0.29250586087E+02  0.11817422337E+03 -0.24168618188E+03  0.28282608419E+03  0.82204863191E+02 0.  0.
          6    2    1    2  501    0 -0.12347868339E+03 -0.14245374774E+03 -0.12493135615E+03  0.28291774579E+03  0.16998397465E+03 0.  0.
         24    2    5    5    0    0 -0.12801798851E+02 -0.96084775498E+02 -0.26801240501E+02  0.12783369131E+03  0.78911190616E+02 0.  0.
          5    1    5    5  501    0 -0.11067688454E+03 -0.46368972238E+02 -0.98130115650E+02  0.15508405448E+03  0.47000000000E+01 0. -1.
        -11    1    6    6    0    0  0.14286751943E+02  0.74050620909E+01  0.38634725913E+01  0.16549098045E+02  0.00000000000E+00 0.  1.
         12    1    6    6    0    0 -0.27088550794E+02 -0.10348983759E+03 -0.30664713092E+02  0.11128459326E+03  0.00000000000E+00 0. -1.
         -5    1    3    3    0  503  0.94228097298E+02  0.24279524371E+02 -0.66542628471E+02  0.11797644268E+03  0.47000000000E+01 0.  1.
         11    1    4    4    0    0  0.35031239976E+02  0.81354759587E+02 -0.88654480213E+02  0.12532119351E+03  0.00000000000E+00 0. -1.
        -12    1    4    4    0    0 -0.57806538882E+01  0.36819463778E+02 -0.15303170166E+03  0.15750489068E+03  0.00000000000E+00 0.  1.
</event>
<event>
12    1  0.8407180E-002  0.1866765E+03  0.7818608E-02  0.1161536E+00
         21   -1    0    0  503  502  0.00000000000E+00  0.00000000000E+00  0.47925099336E+02  0.47925099336E+02  0.00000000000E+00 0. -1.
         21   -1    0    0  501  503 -0.00000000000E+00 -0.00000000000E+00 -0.85346446656E+03  0.85346446656E+03  0.00000000000E+00 0. -1.
          6    2    1    2  501    0 -0.51017028496E+02 -0.50285513427E+02 -0.57682274185E+03  0.60627764240E+03  0.17238542310E+03 0.  0.
         24    2    3    3    0    0  0.21035094858E+02 -0.25418248617E+02 -0.15574317459E+03  0.17832906920E+03  0.80353953925E+02 0.  0.
         -6    2    1    2    0  502  0.51017028496E+02  0.50285513427E+02 -0.22871662537E+03  0.29511192350E+03  0.17218705704E+03 0.  0.
        -24    2    5    5    0    0  0.91161400882E+02  0.50636721732E+02 -0.21644283472E+03  0.25286941033E+03  0.78873058643E+02 0.  0.
          5    1    3    3  501    0 -0.72052123354E+02 -0.24867264810E+02 -0.42107956726E+03  0.42794857320E+03  0.47000000000E+01 0. -1.
        -13    1    4    4    0    0  0.25033147044E+02  0.21619912765E+02 -0.32576425972E+02  0.46425236757E+02  0.00000000000E+00 0.  1.
         14    1    4    4    0    0 -0.39980521863E+01 -0.47038161381E+02 -0.12316674862E+03  0.13190383244E+03  0.00000000000E+00 0. -1.
         -5    1    5    5    0  502 -0.40144372387E+02 -0.35120830590E+00 -0.12273790648E+02  0.42242513165E+02  0.47000000000E+01 0.  1.
         13    1    6    6    0    0  0.30247424913E+02  0.61556234322E+02 -0.10552231659E+03  0.12585323196E+03  0.00000000000E+00 0. -1.
        -14    1    6    6    0    0  0.60913975969E+02 -0.10919512590E+02 -0.11092051814E+03  0.12701617837E+03  0.00000000000E+00 0.  1.
</event>
<event>
12    1  0.8407180E-002  0.1803017E+03  0.7818608E-02  0.1167611E+00
         21   -1    0    0  501  502  0.00000000000E+00  0.00000000000E+00  0.59763953227E+03  0.59763953227E+03  0.00000000000E+00 0.  1.
         21   -1    0    0  502  503 -0.00000000000E+00 -0.00000000000E+00 -0.58691332694E+02  0.58691332694E+02  0.00000000000E+00 0.  1.
         -6    2    1    2    0  503  0.49504412873E+02 -0.16285744849E+02  0.17969529233E+03  0.25455665406E+03  0.17260585059E+03 0.  0.
        -24    2    3    3    0    0 -0.10150598783E+02 -0.64937605786E+02  0.10647158109E+03  0.14821039941E+03  0.79436752288E+02 0.  0.
          6    2    1    2  501    0 -0.49504412873E+02  0.16285744849E+02  0.35925290725E+03  0.40177421091E+03  0.17217419321E+03 0.  0.
         24    2    5    5    0    0  0.41986464706E+02  0.23397962218E+02  0.24382015370E+03  0.25423447081E+03  0.53633673620E+02 0.  0.
          5    1    5    5  501    0 -0.91490877579E+02 -0.71122173687E+01  0.11543275355E+03  0.14753974010E+03  0.47000000000E+01 0. -1.
        -13    1    6    6    0    0  0.17885886308E+02  0.37069634496E+02  0.18022629803E+03  0.18486638751E+03  0.00000000000E+00 0.  1.
         14    1    6    6    0    0  0.24100578398E+02 -0.13671672279E+02  0.63593855672E+02  0.69368083303E+02  0.00000000000E+00 0. -1.
         -5    1    3    3    0  503  0.59655011656E+02  0.48651860937E+02  0.73223711243E+02  0.10634625464E+03  0.47000000000E+01 0.  1.
         11    1    4    4    0    0 -0.27852857296E+02 -0.80541944598E+01  0.75901002866E+02  0.81250316578E+02  0.00000000000E+00 0. -1.
        -12    1    4    4    0    0  0.17702258514E+02 -0.56883411326E+02  0.30570578223E+02  0.66960082837E+02  0.00000000000E+00 0.  1.
</event>
<event>
12    1  0.8407180E-002  0.2035119E+03  0.7818608E-02  0.1147237E+00
         21   -1    0    0  501  502  0.00000000000E+00  0.00000000000E+00  0.14174064576E+02  0.14174064576E+02  0.00000000000E+00 0.  1.
         21   -1    0    0  502  503 -0.00000000000E+00 -0.00000000000E+00 -0.29228071349E+04  0.29228071349E+04  0.00000000000E+00 0.  1.
         -6    2    1    2    0  503 -0.14948255793E+02  0.10627349635E+03 -0.15965856859E+04  0.16092442441E+04  0.17048072716E+03 0.  0.
        -24    2    3    3    0    0 -0.30966606072E+01  0.83733657822E+02 -0.52793952058E+03  0.54028436585E+03  0.78524797566E+02 0.  0.
          6    2    1    2  501    0  0.14948255793E+02 -0.10627349635E+03 -0.13120473845E+04  0.13277369554E+04  0.17291494253E+03 0.  0.
         24    2    5    5    0    0 -0.60153617139E+01 -0.89433883017E+02 -0.12813311745E+04  0.12866441167E+04  0.74892592414E+02 0.  0.
          5    1    5    5  501    0  0.20963617506E+02 -0.16839613338E+02 -0.30716209953E+02  0.41092838673E+02  0.47000000000E+01 0. -1.
        -13    1    6    6    0    0 -0.20353832846E+01 -0.77511415141E+02 -0.57537456717E+03  0.58057562368E+03  0.00000000000E+00 0.  1.
         14    1    6    6    0    0 -0.39799784293E+01 -0.11922467876E+02 -0.70595660733E+03  0.70606849307E+03  0.00000000000E+00 0. -1.
         -5    1    3    3    0  503 -0.11851595185E+02  0.22539838532E+02 -0.10686461653E+04  0.10689598782E+04  0.47000000000E+01 0.  1.
         11    1    4    4    0    0 -0.52400376721E+01  0.96715268325E+01 -0.49325057447E+01  0.12055125010E+02  0.00000000000E+00 0. -1.
        -12    1    4    4    0    0  0.21433770649E+01  0.74062130990E+02 -0.52300701484E+03  0.52822924084E+03  0.00000000000E+00 0.  1.
</event>
<event>
12    1  0.8407180E-002  0.2127277E+03  0.7818608E-02  0.1140578E+00
         21   -1    0    0  503  502  0.00000000000E+00  0.00000000000E+00  0.23789622313E+03  0.23789622313E+03  0.00000000000E+00 0. -1.
         21   -1    0    0  501  503 -0.00000000000E+00 -0.00000000000E+00 -0.19332581853E+03  0.19332581853E+03  0.00000000000E+00 0.  1.
          6    2    1    2  501    0 -0.54968807394E+02 -0.10476451319E+03  0.66635458756E+02  0.21735308797E+03  0.16972008566E+03 0.  0.
         24    2    3    3    0    0  0.14428966112E+02 -0.48740241168E+02  0.84065351317E+02  0.12635494965E+03  0.79465614180E+02 0.  0.
         -6    2    1    2    0  502  0.54968807394E+02  0.10476451319E+03 -0.22065054159E+02  0.21386895368E+03  0.17679335316E+03 0.  0.
        -24    2    5    5    0    0  0.10340510782E+03  0.98615589280E+02 -0.13345448669E+02  0.16404921879E+03  0.79475747334E+02 0.  0.
          5    1    3    3  501    0 -0.69397773506E+02 -0.56024272024E+02 -0.17429892561E+02  0.90998138323E+02  0.47000000000E+01 0. -1.
        -13    1    4    4    0    0  0.82010512741E+01  0.21905623336E+02  0.19680124021E+02  0.30568298239E+02  0.00000000000E+00 0.  1.
         14    1    4    4    0    0  0.62279148380E+01 -0.70645864504E+02  0.64385227296E+02  0.95786651412E+02  0.00000000000E+00 0. -1.
         -5    1    5    5    0  502 -0.48436300427E+02  0.61489239126E+01 -0.87196054895E+01  0.49819734887E+02  0.47000000000E+01 0.  1.
         13    1    6    6    0    0 -0.27245032161E+01  0.25384267062E+02  0.18139124015E+02  0.31317914236E+02  0.00000000000E+00 0. -1.
        -14    1    6    6    0    0  0.10612961104E+03  0.73231322217E+02 -0.31484572684E+02  0.13273130456E+03  0.00000000000E+00 0.  1.
</event>
<event>
12    1  0.8407180E-002  0.2219442E+03  0.7818608E-02  0.1133308E+00
         21   -1    0    0  503  502  0.00000000000E+00  0.00000000000E+00  0.17242704941E+03  0.17242704941E+03  0.00000000000E+00 0. -1.
         21   -1    0    0  501  503 -0.00000000000E+00 -0.00000000000E+00 -0.59161918347E+03  0.59161918347E+03  0.00000000000E+00 0. -1.
          6    2    1    2  501    0  0.13145133404E+03 -0.52471724669E+02 -0.48801093643E+03  0.53610997837E+03  0.17095759627E+03 0.  0.
         24    2    3    3    0    0  0.49221298722E+02 -0.41841777070E+02 -0.11683877209E+03  0.15576061255E+03  0.80228418928E+02 0.  0.
         -6    2    1    2    0  502 -0.13145133404E+03  0.52471724669E+02  0.68818802369E+02  0.22793625450E+03  0.16488230180E+03 0.  0.
        -24    2    5    5    0    0 -0.15522869104E+03  0.54074443604E+02  0.35362754403E+02  0.18659222761E+03  0.80908238350E+02 0.  0.
          5    1    3    3  501    0  0.82230035317E+02 -0.10629947599E+02 -0.37117216435E+03  0.38034936582E+03  0.47000000000E+01 0. -1.
        -13    1    4    4    0    0  0.59101574341E+02 -0.37373059365E+02 -0.45104880992E+02  0.83211729613E+02  0.00000000000E+00 0.  1.
         14    1    4    4    0    0 -0.98802756185E+01 -0.44687177056E+01 -0.71733891094E+02  0.72548882939E+02  0.00000000000E+00 0. -1.
         -5    1    5    5    0  502  0.23777357003E+02 -0.16027189353E+01  0.33456047966E+02  0.41344026891E+02  0.47000000000E+01 0.  1.
         13    1    6    6    0    0 -0.29846485125E+02 -0.13363004568E+02  0.29599732362E+02  0.44108125343E+02  0.00000000000E+00 0. -1.
        -14    1    6    6    0    0 -0.12538220592E+03  0.67437448172E+02  0.57630220410E+01  0.14248410227E+03  0.00000000000E+00 0.  1.
</event>
<event>
12    1  0.8407180E-002  0.2276121E+03  0.7818608E-02  0.1128698E+00
         21   -1    0    0  503  502  0.00000000000E+00  0.00000000000E+00  0.17590141451E+03  0.17590141451E+03  0.00000000000E+00 0. -1.
         21   -1    0    0  501  503 -0.00000000000E+00 -0.00000000000E+00 -0.30871766011E+03  0.30871766011E+03  0.00000000000E+00 0.  1.
          6    2    1    2  501    0  0.37647946526E+02 -0.13970253636E+03 -0.12327318503E+03  0.25885044664E+03  0.17570745299E+03 0.  0.
         24    2    3    3    0    0  0.35994081799E+02 -0.19659897374E+02 -0.10639346218E+03  0.13752449935E+03  0.76885197780E+02 0.  0.
         -6    2    1    2    0  502 -0.37647946526E+02  0.13970253636E+03 -0.95430605658E+01  0.22576862799E+03  0.17304981027E+03 0.  0.
        -24    2    5    5    0    0  0.24590037300E+02  0.97721044934E+02 -0.56335649475E+02  0.13718167280E+03  0.74101507354E+02 0.  0.
          5    1    3    3  501    0  0.16538647272E+01 -0.12004263898E+03 -0.16879722858E+02  0.12132594729E+03  0.47000000000E+01 0. -1.
        -13    1    4    4    0    0  0.37202211449E+02  0.22782560305E+02 -0.43224180099E+02  0.61411557023E+02  0.00000000000E+00 0.  1.
         14    1    4    4    0    0 -0.12081296501E+01 -0.42442457680E+02 -0.63169282078E+02  0.76112942325E+02  0.00000000000E+00 0. -1.
         -5    1    5    5    0  502 -0.62237983826E+02  0.41981491425E+02  0.46792588910E+02  0.88586955190E+02  0.47000000000E+01 0.  1.
         11    1    6    6    0    0  0.50398830788E+00  0.42043094755E+02  0.13984068623E+02  0.44310608166E+02  0.00000000000E+00 0. -1.
        -12    1    6    6    0    0  0.24086048992E+02  0.55677950179E+02 -0.70319718098E+02  0.92871064630E+02  0.00000000000E+00 0.  1.
</event>
<event>
12    1  0.8407180E-002  0.2514892E+03  0.7818608E-02  0.1114001E+00
         21   -1    0    0  501  502  0.00000000000E+00  0.00000000000E+00  0.35414298899E+02  0.35414298899E+02  0.00000000000E+00 0.  1.
         21   -1    0    0  502  503 -0.00000000000E+00 -0.00000000000E+00 -0.17826343219E+04  0.17826343219E+04  0.00000000000E+00 0. -1.
         -6    2    1    2    0  503  0.22377769545E+02 -0.18207021001E+03 -0.10341952680E+04  0.10619724742E+04  0.15676529437E+03 0.  0.
        -24    2    3    3    0    0  0.20501087864E+02 -0.90472552130E+02 -0.32282702704E+03  0.34471344344E+03  0.77488653415E+02 0.  0.
          6    2    1    2  501    0 -0.22377769545E+02  0.18207021001E+03 -0.71302475495E+03  0.75607614661E+03  0.17203636932E+03 0.  0.
         24    2    5    5    0    0 -0.13654062638E+02  0.19157667490E+03 -0.71271385316E+03  0.74234069624E+03  0.78870888247E+02 0.  0.
          5    1    5    5  501    0 -0.87237069066E+01 -0.95064648943E+01 -0.31090178227E+00  0.13735450371E+02  0.47000000000E+01 0. -1.
        -13    1    6    6    0    0 -0.54809204023E+01  0.66215300611E+02 -0.12726688394E+03  0.14356659177E+03  0.00000000000E+00 0.  1.
         14    1    6    6    0    0 -0.81731422359E+01  0.12536137429E+03 -0.58544696922E+03  0.59877410448E+03  0.00000000000E+00 0. -1.
         -5    1    3    3    0  503  0.18766816810E+01 -0.91597657875E+02 -0.71136824101E+03  0.71725903074E+03  0.47000000000E+01 0.  1.
         11    1    4    4    0    0  0.37954074665E+01  0.13972569539E+02 -0.28693360687E+02  0.32139489182E+02  0.00000000000E+00 0. -1.
        -12    1    4    4    0    0  0.16705680397E+02 -0.10444512167E+03 -0.29413366635E+03  0.31257395426E+03  0.00000000000E+00 0.  1.
</event>
<event>
12    1  0.8407180E-002  0.2224340E+03  0.7818608E-02  0.1132159E+00
         21   -1    0    0  503  502  0.00000000000E+00  0.00000000000E+00  0.21939677630E+03  0.21939677630E+03  0.00000000000E+00 0.  1.
         21   -1    0    0  501  503 -0.00000000000E+00 -0.00000000000E+00 -0.24316817823E+03  0.24316817823E+03  0.00000000000E+00 0. -1.
          6    2    1    2  501    0 -0.12339480399E+03  0.68654922729E+02 -0.74965589565E+02  0.23472694261E+03  0.17186367243E+03 0.  0.
         24    2    3    3    0    0 -0.19634226236E+02 -0.16638501936E+02  0.28156276509E+02  0.65323769530E+02  0.53029014438E+02 0.  0.
         -6    2    1    2    0  502  0.12339480399E+03 -0.68654922729E+02  0.51194187628E+02  0.22783801192E+03  0.17131707084E+03 0.  0.
        -24    2    5    5    0    0  0.88167051447E+02 -0.10831910686E+03  0.64628523126E+02  0.17291248577E+03  0.78837959531E+02 0.  0.
          5    1    3    3  501    0 -0.10376057775E+03  0.85293424664E+02 -0.10312186607E+03  0.16940317308E+03  0.47000000000E+01 0. -1.
        -11    1    4    4    0    0 -0.35286046926E+02 -0.16434891072E+02  0.30558064918E+02  0.49487433594E+02  0.00000000000E+00 0.  1.
         12    1    4    4    0    0  0.15651820690E+02 -0.20361086375E+00 -0.24017884090E+01  0.15836335936E+02  0.00000000000E+00 0. -1.
         -5    1    5    5    0  502  0.35227752543E+02  0.39664184134E+02 -0.13434335498E+02  0.54925526147E+02  0.47000000000E+01 0.  1.
         13    1    6    6    0    0  0.21398396670E+01  0.12133889034E+02  0.39462087961E+01  0.12937648192E+02  0.00000000000E+00 0. -1.
        -14    1    6    6    0    0  0.86027211780E+02 -0.12045299590E+03  0.60682314330E+02  0.15997483758E+03  0.00000000000E+00 0.  1.
</event>
<event>
12    1  0.8407180E-002  0.2103510E+03  0.7818608E-02  0.1141609E+00
         21   -1    0    0  501  502  0.00000000000E+00  0.00000000000E+00  0.84242616537E+03  0.84242616537E+03  0.00000000000E+00 0.  1.
         21   -1    0    0  502  503 -0.00000000000E+00 -0.00000000000E+00 -0.47325178266E+03  0.47325178266E+03  0.00000000000E+00 0.  1.
         -6    2    1    2    0  503  0.55915634017E+02  0.10459830770E+03 -0.43589091771E+03  0.48399217872E+03  0.17372441628E+03 0.  0.
        -24    2    3    3    0    0 -0.46595013320E+01 -0.86816962133E+01 -0.14135165908E+03  0.16262452138E+03  0.79808274172E+02 0.  0.
          6    2    1    2  501    0 -0.55915634017E+02 -0.10459830770E+03  0.80506530042E+03  0.83168576931E+03  0.17176646014E+03 0.  0.
         24    2    5    5    0    0 -0.85767736275E+02 -0.12444772251E+03  0.62079414879E+03  0.64390106652E+03  0.79874076356E+02 0.  0.
          5    1    5    5  501    0  0.29852102258E+02  0.19849414812E+02  0.18427115163E+03  0.18778470279E+03  0.47000000000E+01 0. -1.
        -13    1    6    6    0    0  0.11795240604E+02 -0.29389850696E+02  0.17198567248E+03  0.17487699266E+03  0.00000000000E+00 0.  1.
         14    1    6    6    0    0 -0.97562976880E+02 -0.95057871812E+02  0.44880847631E+03  0.46902407386E+03  0.00000000000E+00 0. -1.
         -5    1    3    3    0  503  0.60575135349E+02  0.11328000391E+03 -0.29453925863E+03  0.32136765734E+03  0.47000000000E+01 0.  1.
         13    1    4    4    0    0 -0.19496277154E+02 -0.30375108543E+01  0.64626647390E+00  0.19742060567E+02  0.00000000000E+00 0. -1.
        -14    1    4    4    0    0  0.14836775822E+02 -0.56441853590E+01 -0.14199792556E+03  0.14288246081E+03  0.00000000000E+00 0.  1.
</event>
<event>
12    1  0.8407180E-002  0.2060883E+03  0.7818608E-02  0.1144813E+00
         21   -1    0    0  503  502  0.00000000000E+00  0.00000000000E+00  0.19933548502E+03  0.19933548502E+03  0.00000000000E+00 0. -1.
         21   -1    0    0  501  503 -0.00000000000E+00 -0.00000000000E+00 -0.24738672467E+03  0.24738672467E+03  0.00000000000E+00 0.  1.
          6    2    1    2  501    0  0.11382842553E+03 -0.16352905502E+02 -0.10792474449E+03  0.23263731192E+03  0.17102058486E+03 0.  0.
         24    2    3    3    0    0  0.47179695374E+02  0.24654631243E+02 -0.11972136124E+03  0.15335981531E+03  0.79701029595E+02 0.  0.
         -6    2    1    2    0  502 -0.11382842553E+03  0.16352905502E+02  0.59873504837E+02  0.21408489777E+03  0.17036190564E+03 0.  0.
        -24    2    5    5    0    0 -0.49716167226E+02 -0.28276394537E+02  0.87126723782E+02  0.13121763023E+03  0.79722949732E+02 0.  0.
          5    1    3    3  501    0  0.66648730158E+02 -0.41007536745E+02  0.11796616746E+02  0.79277496607E+02  0.47000000000E+01 0. -1.
        -11    1    4    4    0    0  0.40375991707E+02 -0.11340023075E+02 -0.10642367426E+03  0.11438887740E+03  0.00000000000E+00 0.  1.
         12    1    4    4    0    0  0.68037036672E+01  0.35994654317E+02 -0.13297686983E+02  0.38970937917E+02  0.00000000000E+00 0. -1.
         -5    1    5    5    0  502 -0.64112258307E+02  0.44629300039E+02 -0.27253218944E+02  0.82867267543E+02  0.47000000000E+01 0.  1.
         13    1    6    6    0    0 -0.12641674790E+02  0.26887702839E+02  0.39607826481E+02  0.49513032870E+02  0.00000000000E+00 0. -1.
        -14    1    6    6    0    0 -0.37074492436E+02 -0.55164097376E+02  0.47518897301E+02  0.81704597358E+02  0.00000000000E+00 0.  1.
</event>
<event>
12    1  0.8407180E-002  0.2534324E+03  0.7818608E-02  0.1111240E+00
         21   -1    0    0  501  502  0.00000000000E+00  0.00000000000E+00  0.35290254379E+04  0.35290254379E+04  0.00000000000E+00 0.  1.
         21   -1    0    0  502  503 -0.00000000000E+00 -0.00000000000E+00 -0.40140391003E+02  0.40140391003E+02  0.00000000000E+00 0. -1.
         -6    2    1    2    0  503 -0.18491813448E+03 -0.21067219934E+02  0.42303383092E+03  0.49285770865E+03  0.17120909628E+03 0.  0.
        -24    2    3    3    0    0 -0.16732122960E+03  0.33567610944E+02  0.36640762536E+03  0.41209117496E+03  0.80258396327E+02 0.  0.
          6    2    1    2  501    0  0.18491813448E+03  0.21067219934E+02  0.30658512160E+04  0.30763081203E+04  0.17201577853E+03 0.  0.
         24    2    5    5    0    0  0.17737451705E+03 -0.31693230100E+02  0.25704263053E+04  0.25780024878E+04  0.80865665437E+02 0.  0.
          5    1    5    5  501    0  0.75436174307E+01  0.52760450034E+02  0.49542491062E+03  0.49830563244E+03  0.47000000000E+01 0. -1.
        -13    1    6    6    0    0  0.30032085136E+02 -0.37525009460E+02  0.80209423591E+03  0.80353295872E+03  0.00000000000E+00 0.  1.
         14    1    6    6    0    0  0.14734243191E+03  0.58317793608E+01  0.17683320694E+04  0.17744695291E+04  0.00000000000E+00 0. -1.
         -5    1    3    3    0  503 -0.17596904876E+02 -0.54634830879E+02  0.56626205566E+02  0.80766533683E+02  0.47000000000E+01 0.  1.
         13    1    4    4    0    0 -0.60194589528E+02  0.16314339195E+02  0.58059120296E+02  0.85208026156E+02  0.00000000000E+00 0. -1.
        -14    1    4    4    0    0 -0.10712664008E+03  0.17253271750E+02  0.30834850506E+03  0.32688314881E+03  0.00000000000E+00 0.  1.
</event>
<event>
12    1  0.8407180E-002  0.1752817E+03  0.7818608E-02  0.1172899E+00
         21   -1    0    0  503  502  0.00000000000E+00  0.00000000000E+00  0.21601355543E+02  0.21601355543E+02  0.00000000000E+00 0.  1.
         21   -1    0    0  501  503 -0.00000000000E+00 -0.00000000000E+00 -0.18893892775E+04  0.18893892775E+04  0.00000000000E+00 0.  1.
          6    2    1    2  501    0  0.28767662545E+01  0.20708984877E+02 -0.14198264740E+04  0.14306050797E+04  0.17403028476E+03 0.  0.
         24    2    3    3    0    0 -0.40181675919E+02 -0.22598266256E+02 -0.48947681224E+03  0.49824134674E+03  0.80818569414E+02 0.  0.
         -6    2    1    2    0  502 -0.28767662545E+01 -0.20708984877E+02 -0.44796144795E+03  0.48038555332E+03  0.17223148128E+03 0.  0.
        -24    2    5    5    0    0  0.89485184380E+01  0.52406946410E+02 -0.34398452954E+03  0.35263945229E+03  0.56592073042E+02 0.  0.
          5    1    3    3  501    0  0.43058442173E+02  0.43307251133E+02 -0.93034966175E+03  0.93236373297E+03  0.47000000000E+01 0. -1.
        -13    1    4    4    0    0  0.24610574126E+02 -0.76573934297E+00 -0.12264515446E+03  0.12509236839E+03  0.00000000000E+00 0.  1.
         14    1    4    4    0    0 -0.64792250045E+02 -0.21832526913E+02 -0.36683165778E+03  0.37314897835E+03  0.00000000000E+00 0. -1.
         -5    1    5    5    0  502 -0.11825284692E+02 -0.73115931287E+02 -0.10397691841E+03  0.12774610103E+03  0.47000000000E+01 0.  1.
         11    1    6    6    0    0 -0.16795742966E+02  0.44456413843E+02 -0.16754652213E+03  0.17415598408E+03  0.00000000000E+00 0. -1.
        -12    1    6    6    0    0  0.25744261404E+02  0.79505325668E+01 -0.17643800741E+03  0.17848346821E+03  0.00000000000E+00 0.  1.
</event>
<event>
12    1  0.8407180E-002  0.2339607E+03  0.7818608E-02  0.1124069E+00
         21   -1    0    0  503  502  0.00000000000E+00  0.00000000000E+00  0.31192703211E+03  0.31192703211E+03  0.00000000000E+00 0. -1.
         21   -1    0    0  501  503 -0.00000000000E+00 -0.00000000000E+00 -0.30590891044E+03  0.30590891044E+03  0.00000000000E+00 0. -1.
          6    2    1    2  501    0  0.98548765165E+02 -0.12323377078E+03 -0.19933229351E+03  0.30653799873E+03  0.17127101346E+03 0.  0.
         24    2    3    3    0    0 -0.10144043878E+02 -0.44906400428E+02 -0.65612982464E+02  0.11719110060E+03  0.85493883795E+02 0.  0.
         -6    2    1    2    0  502 -0.98548765165E+02  0.12323377078E+03  0.20535041518E+03  0.31129794382E+03  0.17274025424E+03 0.  0.
        -24    2    5    5    0    0  0.98714095407E+01  0.20353091785E+02  0.55099561449E+02  0.99314978840E+02  0.79472072318E+02 0.  0.
          5    1    3    3  501    0  0.10869280904E+03 -0.78327370351E+02 -0.13371931105E+03  0.18934689813E+03  0.47000000000E+01 0. -1.
        -13    1    4    4    0    0  0.25160113374E+02 -0.43508431419E+02 -0.99090689239E+01  0.51226990507E+02  0.00000000000E+00 0.  1.
         14    1    4    4    0    0 -0.35304157251E+02 -0.13979690092E+01 -0.55703913540E+02  0.65964110092E+02  0.00000000000E+00 0. -1.
         -5    1    5    5    0  502 -0.10842017471E+03  0.10288067899E+03  0.15025085373E+03  0.21198296498E+03  0.47000000000E+01 0.  1.
         11    1    6    6    0    0  0.11452324607E+02  0.44507934407E+02  0.59009615259E+02  0.74794696718E+02  0.00000000000E+00 0. -1.
        -12    1    6    6    0    0 -0.15809150659E+01 -0.24154842622E+02 -0.39100538101E+01  0.24520282122E+02  0.00000000000E+00 0.  1.
</event>
<event>
12    1  0.8407180E-002  0.1951215E+03  0.7818608E-02  0.1154402E+00
         21   -1    0    0  501  502  0.00000000000E+00  0.00000000000E+00  0.39610046047E+02  0.39610046047E+02  0.00000000000E+00 0.  1.
         21   -1    0    0  502  503 -0.00000000000E+00 -0.00000000000E+00 -0.97280755668E+03  0.97280755668E+03  0.00000000000E+00 0. -1.
         -6    2    1    2    0  503  0.16772742377E+02  0.83668103505E+02 -0.38720617458E+03  0.43260820343E+03  0.17303051640E+03 0.  0.
        -24    2    3    3    0    0  0.69772452811E+02  0.59701208933E+02 -0.32666953737E+03  0.34852398501E+03  0.79520764348E+02 0.  0.
          6    2    1    2  501    0 -0.16772742377E+02 -0.83668103505E+02 -0.54599133605E+03  0.57980939930E+03  0.17547285842E+03 0.  0.
         24    2    5    5    0    0  0.54353541593E+02 -0.70399012419E+02 -0.38664348536E+03  0.40474128521E+03  0.80074932115E+02 0.  0.
          5    1    5    5  501    0 -0.71126283969E+02 -0.13269091086E+02 -0.15934785069E+03  0.17506811409E+03  0.47000000000E+01 0. -1.
        -13    1    6    6    0    0 -0.16054770238E+02 -0.29624365001E+01 -0.22670371427E+02  0.27937025934E+02  0.00000000000E+00 0.  1.
         14    1    6    6    0    0  0.70408311830E+02 -0.67436575919E+02 -0.36397311393E+03  0.37680425928E+03  0.00000000000E+00 0. -1.
         -5    1    3    3    0  503 -0.52999710435E+02  0.23966894572E+02 -0.60536637209E+02  0.84084218413E+02  0.47000000000E+01 0.  1.
         11    1    4    4    0    0  0.23499987145E+02 -0.16241400878E+02 -0.12321480805E+03  0.12648288984E+03  0.00000000000E+00 0. -1.
        -12    1    4    4    0    0  0.46272465666E+02  0.75942609811E+02 -0.20345472932E+03  0.22204109517E+03  0.00000000000E+00 0.  1.
</event>
<event>
12    1  0.8407180E-002  0.1762444E+03  0.7818608E-02  0.1172738E+00
         21   -1    0    0  503  502  0.00000000000E+00  0.00000000000E+00  0.10961278491E+03  0.10961278491E+03  0.00000000000E+00 0.  1.
         21   -1    0    0  501  503 -0.00000000000E+00 -0.00000000000E+00 -0.58387612779E+03  0.58387612779E+03  0.00000000000E+00 0. -1.
          6    2    1    2  501    0  0.28387104412E+02 -0.27529528810E+02 -0.48752910546E+03  0.51674592252E+03  0.16666738470E+03 0.  0.
         24    2    3    3    0    0  0.45933798768E+02 -0.50860736039E+02 -0.18418196993E+03  0.21196106997E+03  0.79421463063E+02 0.  0.
         -6    2    1    2    0  502 -0.28387104412E+02  0.27529528810E+02  0.13265762583E+02  0.17674299018E+03  0.17175098680E+03 0.  0.
        -24    2    5    5    0    0 -0.57005431622E+02 -0.35028158307E+02 -0.11650259101E+02  0.10342606849E+03  0.78004051157E+02 0.  0.
          5    1    3    3  501    0 -0.17546694356E+02  0.23331207229E+02 -0.30334713552E+03  0.30478485255E+03  0.47000000000E+01 0. -1.
        -11    1    4    4    0    0  0.20386922769E+02  0.17933742785E+02 -0.26035849104E+02  0.37617963646E+02  0.00000000000E+00 0.  1.
         12    1    4    4    0    0  0.25546875999E+02 -0.68794478824E+02 -0.15814612083E+03  0.17434310633E+03  0.00000000000E+00 0. -1.
         -5    1    5    5    0  502  0.28618327210E+02  0.62557687117E+02  0.24916021685E+02  0.73316921692E+02  0.47000000000E+01 0.  1.
         11    1    6    6    0    0 -0.80853500363E+01  0.18192632784E+02 -0.22815691183E+02  0.30280365536E+02  0.00000000000E+00 0. -1.
        -12    1    6    6    0    0 -0.48920081586E+02 -0.53220791091E+02  0.11165432082E+02  0.73145702952E+02  0.00000000000E+00 0.  1.
</event>
<event>
12    1  0.8407180E-002  0.1977755E+03  0.7818608E-02  0.1151962E+00
         21   -1    0    0  503  502  0.00000000000E+00  0.00000000000E+00  0.17196577011E+03  0.17196577011E+03  0.00000000000E+00 0.  1.
         21   -1    0    0  501  503 -0.00000000000E+00 -0.00000000000E+00 -0.33997283976E+03  0.33997283976E+03  0.00000000000E+00 0.  1.
          6    2    1    2  501    0 -0.30855888183E+02  0.86298864501E+02  0.64189896187E+02  0.20793150516E+03  0.17525863236E+03 0.  0.
         24    2    3    3    0    0  0.24701158629E+02  0.39304590081E+02  0.91629191836E+02  0.13002096528E+03  0.79715397364E+02 0.  0.
         -6    2    1    2    0  502  0.30855888183E+02 -0.86298864501E+02 -0.23219696585E+03  0.30400710471E+03  0.17350881510E+03 0.  0.
        -24    2    5    5    0    0 -0.39690392261E+02 -0.92431839202E+01 -0.97272083495E+02  0.13329925641E+03  0.81523431262E+02 0.  0.
          5    1    3    3  501    0 -0.55557046812E+02  0.46994274420E+02 -0.27439295649E+02  0.77910539880E+02  0.47000000000E+01 0. -1.
        -13    1    4    4    0    0  0.15691021709E+02  0.63488167284E+02  0.74052973416E+02  0.98796753080E+02  0.00000000000E+00 0.  1.
         14    1    4    4    0    0  0.90101369197E+01 -0.24183577203E+02  0.17576218420E+02  0.31224212201E+02  0.00000000000E+00 0. -1.
         -5    1    5    5    0  502  0.70546280444E+02 -0.77055680581E+02 -0.13492488235E+03  0.17070784830E+03  0.47000000000E+01 0.  1.
         13    1    6    6    0    0  0.41621766503E+01  0.20630702836E+02  0.15808718129E+01  0.21105657290E+02  0.00000000000E+00 0. -1.
        -14    1    6    6    0    0 -0.43852568911E+02 -0.29873886756E+02 -0.98852955308E+02  0.11219359912E+03  0.00000000000E+00 0.  1.
</event>
<event>
12    1  0.8407180E-002  0.2481856E+03  0.7818608E-02  0.1114706E+00
         21   -1    0    0  501  502  0.00000000000E+00  0.00000000000E+00  0.24847574536E+03  0.24847574536E+03  0.00000000000E+00 0.  1.
         21   -1    0    0  502  503 -0.00000000000E+00 -0.00000000000E+00 -0.42487448367E+03  0.42487448367E+03  0.00000000000E+00 0. -1.
         -6    2    1    2    0  503  0.86671694548E+02 -0.15643453928E+03 -0.30660250994E+03  0.39446319885E+03  0.17208244660E+03 0.  0.
        -24    2    3    3    0    0  0.11419040586E+02 -0.39232824498E+02 -0.50939669860E+02  0.10328493442E+03  0.80020739232E+02 0.  0.
          6    2    1    2  501    0 -0.86671694548E+02  0.15643453928E+03  0.13020377163E+03  0.27888703018E+03  0.16982698767E+03 0.  0.
         24    2    5    5    0    0 -0.15048105986E+02  0.14871949079E+03  0.11827768341E+03  0.20571748739E+03  0.77370160861E+02 0.  0.
          5    1    5    5  501    0 -0.71623588563E+02  0.77150484910E+01  0.11926088218E+02  0.73169542789E+02  0.47000000000E+01 0. -1.
        -11    1    6    6    0    0 -0.42150698256E+02  0.11039718335E+03  0.10179648565E+03  0.15597033034E+03  0.00000000000E+00 0.  1.
         12    1    6    6    0    0  0.27102592270E+02  0.38322307441E+02  0.16481197756E+02  0.49747157053E+02  0.00000000000E+00 0. -1.
         -5    1    3    3    0  503  0.75252653962E+02 -0.11720171478E+03 -0.25566284008E+03  0.29117826442E+03  0.47000000000E+01 0.  1.
         11    1    4    4    0    0  0.24972641905E+01 -0.78905545473E+01 -0.66612408771E+02  0.67124587014E+02  0.00000000000E+00 0. -1.
        -12    1    4    4    0    0  0.89217763958E+01 -0.31342269950E+02  0.15672738911E+02  0.36160347408E+02  0.00000000000E+00 0.  1.
</event>
<event>
12    1  0.8407180E-002  0.2051687E+03  0.7818608E-02  0.1146167E+00
         21   -1    0    0  503  502  0.00000000000E+00  0.00000000000E+00  0.22864633410E+03  0.22864633410E+03  0.00000000000E+00 0.  1.
         21   -1    0    0  501  503 -0.00000000000E+00 -0.00000000000E+00 -0.34919485501E+03  0.34919485501E+03  0.00000000000E+00 0.  1.
          6    2    1    2  501    0 -0.87649069080E+02 -0.62432700806E+02 -0.26052652389E+03  0.32947043469E+03  0.17057695110E+03 0.  0.
         24    2    3    3    0    0  0.12423793550E+02  0.47554881868E+00 -0.12847616952E+03  0.15218137187E+03  0.80613069772E+02 0.  0.
         -6    2    1    2    0  502  0.87649069080E+02  0.62432700806E+02  0.13997800299E+03  0.24837075442E+03  0.17468253745E+03 0.  0.
        -24    2    5    5    0    0  0.82705623489E+02  0.25748264587E+02  0.15492031178E+02  0.11841294322E+03  0.79236537060E+02 0.  0.
          5    1    3    3  501    0 -0.10007286263E+03 -0.62908249624E+02 -0.13205035437E+03  0.17728906282E+03  0.47000000000E+01 0. -1.
        -13    1    4    4    0    0  0.24560176552E+02 -0.52403372448E+01 -0.13496352485E+03  0.13728006572E+03  0.00000000000E+00 0.  1.
         14    1    4    4    0    0 -0.12136383001E+02  0.57158860635E+01  0.64873553251E+01  0.14901306149E+02  0.00000000000E+00 0. -1.
         -5    1    5    5    0  502  0.49434455901E+01  0.36684436218E+02  0.12448597181E+03  0.12995781120E+03  0.47000000000E+01 0.  1.
         13    1    6    6    0    0  0.69575843858E+02  0.34137636051E+02 -0.19667043054E+02  0.79956043087E+02  0.00000000000E+00 0. -1.
        -14    1    6    6    0    0  0.13129779632E+02 -0.83893714635E+01  0.35159074232E+02  0.38456900130E+02  0.00000000000E+00 0.  1.
</event>
<event>
12    1  0.8407180E-002  0.1841927E+03  0.7818608E-02  0.1163821E+00
         21   -1    0    0  503  502  0.00000000000E+00  0.00000000000E+00  0.68937950736E+03  0.68937950736E+03  0.00000000000E+00 0. -1.
         21   -1    0    0  501  503 -0.00000000000E+00 -0.00000000000E+00 -0.10355396826E+03  0.10355396826E+03  0.00000000000E+00 0. -1.
          6    2    1    2  501    0  0.32117543725E+02 -0.58738011468E+02  0.56924777948E+01  0.18428066431E+03  0.17159623635E+03 0.  0.
         24    2    3    3    0    0  0.74521312420E+02 -0.36577559278E+02 -0.33169208740E+02  0.12246249610E+03  0.83699000562E+02 0.  0.
         -6    2    1    2    0  502 -0.32117543725E+02  0.58738011468E+02  0.58013306130E+03  0.60865281130E+03  0.17152896340E+03 0.  0.
        -24    2    5    5    0    0 -0.78057247659E+02  0.73121436558E+02  0.40872204565E+03  0.43054844414E+03  0.82937167524E+02 0.  0.
          5    1    3    3  501    0 -0.42403768695E+02 -0.22160452190E+02  0.38861686535E+02  0.61818168213E+02  0.47000000000E+01 0. -1.
        -13    1    4    4    0    0 -0.14274279148E+02  0.98608940274E+01 -0.82179155877E+01  0.19197041773E+02  0.00000000000E+00 0.  1.
         14    1    4    4    0    0  0.88795591568E+02 -0.46438453305E+02 -0.24951293153E+02  0.10326545433E+03  0.00000000000E+00 0. -1.
         -5    1    5    5    0  502  0.45939703935E+02 -0.14383425090E+02  0.17141101565E+03  0.17810436716E+03  0.47000000000E+01 0.  1.
         13    1    6    6    0    0  0.11132593188E+02 -0.62324863630E+01  0.75867524736E+02  0.76932826719E+02  0.00000000000E+00 0. -1.
        -14    1    6    6    0    0 -0.89189840847E+02  0.79353922921E+02  0.33285452091E+03  0.35361561742E+03  0.00000000000E+00 0.  1.
</event>
<event>
12    1  0.8407180E-002  0.1881397E+03  0.7818608E-02  0.1160237E+00
         21   -1    0    0  501  502  0.00000000000E+00  0.00000000000E+00  0.53180240504E+03  0.53180240504E+03  0.00000000000E+00 0.  1.
         21   -1    0    0  502  503 -0.00000000000E+00 -0.00000000000E+00 -0.90830545050E+02  0.90830545050E+02  0.00000000000E+00 0.  1.
         -6    2    1    2    0  503 -0.78325814938E+02 -0.14994049454E+02  0.58953232413E+02  0.19679872011E+03  0.16998381634E+03 0.  0.
        -24    2    3    3    0    0 -0.12836432761E+02 -0.52355956683E+02 -0.71775362937E+01  0.96398820408E+02  0.79594568550E+02 0.  0.
          6    2    1    2  501    0  0.78325814938E+02  0.14994049454E+02  0.38201862757E+03  0.42583422998E+03  0.17040189202E+03 0.  0.
         24    2    5    5    0    0  0.47688871523E+02  0.59000965089E+02  0.33972191629E+03  0.35737743550E+03  0.80946331882E+02 0.  0.
          5    1    5    5  501    0  0.30636943415E+02 -0.44006915635E+02  0.42296711282E+02  0.68456794482E+02  0.47000000000E+01 0. -1.
        -13    1    6    6    0    0  0.32245665653E+02 -0.77434782642E+01  0.18804370626E+03  0.19094548927E+03  0.00000000000E+00 0.  1.
         14    1    6    6    0    0  0.15443205869E+02  0.66744443354E+02  0.15167821003E+03  0.16643194622E+03  0.00000000000E+00 0. -1.
         -5    1    3    3    0  503 -0.65489382177E+02  0.37361907229E+02  0.66130768706E+02  0.10039989970E+03  0.47000000000E+01 0.  1.
         13    1    4    4    0    0 -0.27477078406E+02 -0.26605265049E+02  0.30181601950E+02  0.48721238308E+02  0.00000000000E+00 0. -1.
        -14    1    4    4    0    0  0.14640645645E+02 -0.25750691634E+02 -0.37359138244E+02  0.47677582100E+02  0.00000000000E+00 0.  1.
</event>
<event>
12    1  0.8407180E-002  0.1870011E+03  0.7818608E-02  0.1162988E+00
         21   -1    0    0  501  502  0.00000000000E+00  0.00000000000E+00  0.44376133875E+03  0.44376133875E+03  0.00000000000E+00 0.  1.
         21   -1    0    0  502  503 -0.00000000000E+00 -0.00000000000E+00 -0.78328770032E+02  0.78328770032E+02  0.00000000000E+00 0.  1.
         -6    2    1    2    0  503 -0.34520673201E+00 -0.55913635886E+02  0.13788073460E+03  0.23233706009E+03  0.17844595448E+03 0.  0.
        -24    2    3    3    0    0 -0.53143993378E+02 -0.20166026835E+02  0.22807826856E+02  0.10069562466E+03  0.79927837389E+02 0.  0.
          6    2    1    2  501    0  0.34520673201E+00  0.55913635886E+02  0.22755183412E+03  0.28975304869E+03  0.17044218425E+03 0.  0.
         24    2    5    5    0    0 -0.10498985784E+02  0.10095373134E+03  0.12107789633E+03  0.17354205034E+03  0.71799036785E+02 0.  0.
          5    1    5    5  501    0  0.10844192516E+02 -0.45040095455E+02  0.10647393779E+03  0.11621099835E+03  0.47000000000E+01 0. -1.
        -13    1    6    6    0    0  0.28197329519E+02  0.26943849346E+02  0.25405413908E+02  0.46545627780E+02  0.00000000000E+00 0.  1.
         14    1    6    6    0    0 -0.38696315303E+02  0.74009881995E+02  0.95672482422E+02  0.12699642256E+03  0.00000000000E+00 0. -1.
         -5    1    3    3    0  503  0.52798786646E+02 -0.35747609051E+02  0.11507290774E+03  0.13164143542E+03  0.47000000000E+01 0.  1.
         13    1    4    4    0    0  0.31770599087E+01  0.16149058224E+02 -0.16251223100E+02  0.23129808547E+02  0.00000000000E+00 0. -1.
        -14    1    4    4    0    0 -0.56321053286E+02 -0.36315085059E+02  0.39059049956E+02  0.77565816115E+02  0.00000000000E+00 0.  1.
</event>
<event>
12    1  0.8407180E-002  0.1832588E+03  0.7818608E-02  0.1164919E+00
         21   -1    0    0  503  502  0.00000000000E+00  0.00000000000E+00  0.94814792284E+02  0.94814792284E+02  0.00000000000E+00 0.  1.
         21   -1    0    0  501  503 -0.00000000000E+00 -0.00000000000E+00 -0.38786664447E+03  0.38786664447E+03  0.00000000000E+00 0.  1.
          6    2    1    2  501    0 -0.13053996658E+02  0.59086304271E+02 -0.21924070446E+03  0.28511656023E+03  0.17194001350E+03 0.  0.
         24    2    3    3    0    0 -0.87789721847E+01  0.99951213927E+01 -0.26133863209E+02  0.85766209820E+02  0.80597091364E+02 0.  0.
         -6    2    1    2    0  502  0.13053996658E+02 -0.59086304271E+02 -0.73811147728E+02  0.19756487653E+03  0.17298033624E+03 0.  0.
        -24    2    5    5    0    0  0.16614994387E+02 -0.31691292279E+02  0.27823181260E+02  0.92138152135E+02  0.80217913327E+02 0.  0.
          5    1    3    3  501    0 -0.42750244728E+01  0.49091182879E+02 -0.19310684125E+03  0.19935035041E+03  0.47000000000E+01 0. -1.
        -11    1    4    4    0    0 -0.11194233620E+02  0.45073312165E+02 -0.12946742780E+02  0.48213405651E+02  0.00000000000E+00 0.  1.
         12    1    4    4    0    0  0.24152614354E+01 -0.35078190773E+02 -0.13187120430E+02  0.37552804168E+02  0.00000000000E+00 0. -1.
         -5    1    5    5    0  502 -0.35609977297E+01 -0.27395011993E+02 -0.10163432899E+03  0.10542672439E+03  0.47000000000E+01 0.  1.
         13    1    6    6    0    0  0.26064115173E+02  0.18848122123E+02 -0.28125728182E+01  0.32287774361E+02  0.00000000000E+00 0. -1.
        -14    1    6    6    0    0 -0.94491207858E+01 -0.50539414402E+02  0.30635754078E+02  0.59850377774E+02  0.00000000000E+00 0.  1.
</event>
<event>
12    1  0.8407180E-002  0.2974453E+03  0.7818608E-02  0.1086666E+00
         21   -1    0    0  501  502  0.00000000000E+00  0.00000000000E+00  0.16188178705E+04  0.16188178705E+04  0.00000000000E+00 0. -1.
         21   -1    0    0  502  503 -0.00000000000E+00 -0.00000000000E+00 -0.58464644447E+02  0.58464644447E+02  0.00000000000E+00 0. -1.
         -6    2    1    2    0  503  0.10648207688E+03  0.21640818569E+03  0.55900476100E+03  0.63269052478E+03  0.17216283513E+03 0.  0.
        -24    2    3    3    0    0  0.13982514844E+03  0.20467548188E+03  0.49929626193E+03  0.56314477279E+03  0.79950940700E+02 0.  0.
          6    2    1    2  501    0 -0.10648207688E+03 -0.21640818569E+03  0.10013484650E+04  0.10445919901E+04  0.17407682765E+03 0.  0.
         24    2    5    5    0    0 -0.44338573194E+02 -0.73766610576E+02  0.24753914554E+03  0.27487839786E+03  0.82916121020E+02 0.  0.
          5    1    5    5  501    0 -0.62143503683E+02 -0.14264157511E+03  0.75380931949E+03  0.76971359229E+03  0.47000000000E+01 0. -1.
        -11    1    6    6    0    0 -0.63215319625E+02 -0.72825395635E+02  0.17386309474E+03  0.19881672615E+03  0.00000000000E+00 0.  1.
         12    1    6    6    0    0  0.18876746431E+02 -0.94121494123E+00  0.73676050794E+02  0.76061671702E+02  0.00000000000E+00 0. -1.
         -5    1    3    3    0  503 -0.33343071560E+02  0.11732703806E+02  0.59708499070E+02  0.69545751997E+02  0.47000000000E+01 0.  1.
         11    1    4    4    0    0  0.95608252517E+01  0.65657278213E+02  0.91320740335E+02  0.11287942761E+03  0.00000000000E+00 0. -1.
        -12    1    4    4    0    0  0.13026432319E+03  0.13901820367E+03  0.40797552160E+03  0.45026534518E+03  0.00000000000E+00 0.  1.
</event>
<event>
12    1  0.8407180E-002  0.2268110E+03  0.7818608E-02  0.1128976E+00
         21   -1    0    0  501  502  0.00000000000E+00  0.00000000000E+00  0.19842956513E+02  0.19842956513E+02  0.00000000000E+00 0.  1.
         21   -1    0    0  502  503 -0.00000000000E+00 -0.00000000000E+00 -0.30325585181E+04  0.30325585181E+04  0.00000000000E+00 0.  1.
         -6    2    1    2    0  503 -0.88066618243E+02  0.11577170943E+03 -0.20895902456E+04  0.21018208262E+04  0.17350669377E+03 0.  0.
        -24    2    3    3    0    0 -0.10545037560E+03  0.14093270702E+03 -0.18808603085E+04  0.18908100505E+04  0.80903258114E+02 0.  0.
          6    2    1    2  501    0  0.88066618243E+02 -0.11577170943E+03 -0.92312531593E+03  0.95058064840E+03  0.17402414275E+03 0.  0.
         24    2    5    5    0    0  0.22985018424E+02 -0.88586897983E+02 -0.79554850113E+03  0.80472948358E+03  0.79474363885E+02 0.  0.
          5    1    5    5  501    0  0.65081599819E+02 -0.27184811444E+02 -0.12757681480E+03  0.14585116483E+03  0.47000000000E+01 0. -1.
        -13    1    6    6    0    0 -0.72954187463E+01 -0.88588094819E+01 -0.12189736397E+02  0.16741902925E+02  0.00000000000E+00 0.  1.
         14    1    6    6    0    0  0.30280437171E+02 -0.79728088501E+02 -0.78335876474E+03  0.78798758065E+03  0.00000000000E+00 0. -1.
         -5    1    3    3    0  503  0.17383757354E+02 -0.25160997593E+02 -0.20872993708E+03  0.21101077568E+03  0.47000000000E+01 0.  1.
         13    1    4    4    0    0 -0.31312861729E+02  0.32841368867E+02 -0.91143892433E+03  0.91256778576E+03  0.00000000000E+00 0. -1.
        -14    1    4    4    0    0 -0.74137513869E+02  0.10809133815E+03 -0.96942138421E+03  0.97824226473E+03  0.00000000000E+00 0.  1.
</event>
<event>
12    1  0.8407180E-002  0.2204806E+03  0.7818608E-02  0.1133916E+00
         21   -1    0    0  503  502  0.00000000000E+00  0.00000000000E+00  0.10290228312E+03  0.10290228312E+03  0.00000000000E+00 0. -1.
         21   -1    0    0  501  503 -0.00000000000E+00 -0.00000000000E+00 -0.93636969336E+03  0.93636969336E+03  0.00000000000E+00 0. -1.
          6    2    1    2  501    0 -0.22521050630E+02 -0.13598901571E+03 -0.78327497501E+03  0.81315039054E+03  0.16939203356E+03 0.  0.
         24    2    3    3    0    0 -0.70514372488E+02 -0.11984687814E+03 -0.48680999231E+03  0.51235560415E+03  0.78668580546E+02 0.  0.
         -6    2    1    2    0  502  0.22521050630E+02  0.13598901571E+03 -0.50192435228E+02  0.22612158595E+03  0.17207986798E+03 0.  0.
        -24    2    5    5    0    0  0.54170087496E+02  0.14293391548E+03 -0.71874317216E+02  0.18685216816E+03  0.79895636282E+02 0.  0.
          5    1    3    3  501    0  0.47993321858E+02 -0.16142137570E+02 -0.29646498270E+03  0.30079478638E+03  0.47000000000E+01 0. -1.
        -11    1    4    4    0    0 -0.56545734485E+02 -0.30290248500E+02 -0.14174011438E+03  0.15558013776E+03  0.00000000000E+00 0.  1.
         12    1    4    4    0    0 -0.13968638003E+02 -0.89556629641E+02 -0.34506987794E+03  0.35677546639E+03  0.00000000000E+00 0. -1.
         -5    1    5    5    0  502 -0.31649036866E+02 -0.69448997673E+01  0.21681881988E+02  0.39269417794E+02  0.47000000000E+01 0.  1.
         11    1    6    6    0    0  0.22511468290E+02  0.75157587939E+02  0.62297094520E+01  0.78703484734E+02  0.00000000000E+00 0. -1.
        -12    1    6    6    0    0  0.31658619205E+02  0.67776327540E+02 -0.78104026668E+02  0.10814868342E+03  0.00000000000E+00 0.  1.
</event>
<event>
12    1  0.8407180E-002  0.1893143E+03  0.7818608E-02  0.1159271E+00
         21   -1    0    0  503  502  0.00000000000E+00  0.00000000000E+00  0.23322218263E+04  0.23322218263E+04  0.00000000000E+00 0. -1.
         21   -1    0    0  501  503 -0.00000000000E+00 -0.00000000000E+00 -0.22170349878E+02  0.22170349878E+02  0.00000000000E+00 0. -1.
          6    2    1    2  501    0 -0.16196138693E+02 -0.75236153664E+02  0.50144871430E+03  0.53599506891E+03  0.17296562403E+03 0.  0.
         24    2    3    3    0    0 -0.12670128171E+02 -0.60702196112E+01  0.42578597089E+03  0.43331449663E+03  0.79185732738E+02 0.  0.
         -6    2    1    2    0  502  0.16196138693E+02  0.75236153664E+02  0.18086027621E+04  0.18183971072E+04  0.17205026834E+03 0.  0.
        -24    2    5    5    0    0  0.76765780607E+02  0.39422806371E+02  0.11852193826E+04  0.11910373976E+04  0.79862099987E+02 0.  0.
          5    1    3    3  501    0 -0.35260105223E+01 -0.69165934053E+02  0.75662743414E+02  0.10268057228E+03  0.47000000000E+01 0. -1.
        -13    1    4    4    0    0 -0.45866793262E+02 -0.95435506771E+01  0.26334656958E+03  0.26748132233E+03  0.00000000000E+00 0.  1.
         14    1    4    4    0    0  0.33196665092E+02  0.34733310659E+01  0.16243940131E+03  0.16583317430E+03  0.00000000000E+00 0. -1.
         -5    1    5    5    0  502 -0.60569641915E+02  0.35813347294E+02  0.62338337954E+03  0.62735970962E+03  0.47000000000E+01 0.  1.
         11    1    6    6    0    0  0.33475199910E+01  0.40333252602E+02  0.28975256971E+03  0.29256542654E+03  0.00000000000E+00 0. -1.
        -12    1    6    6    0    0  0.73418260616E+02 -0.91044623094E+00  0.89546681285E+03  0.89847197108E+03  0.00000000000E+00 0.  1.
</event>
<event>
12    1  0.8407180E-002  0.2741291E+03  0.7818608E-02  0.1099488E+00
         21   -1    0    0  503  502  0.00000000000E+00  0.00000000000E+00  0.19696010178E+03  0.19696010178E+03  0.00000000000E+00 0. -1.
         21   -1    0    0  501  503 -0.00000000000E+00 -0.00000000000E+00 -0.42700162050E+03  0.42700162050E+03  0.00000000000E+00 0. -1.
          6    2    1    2  501    0 -0.36160620192E+02 -0.20455943685E+03 -0.22195719928E+03  0.34971347603E+03  0.17286515944E+03 0.  0.
         24    2    3    3    0    0  0.61354745664E+01 -0.16080022584E+03 -0.79714759847E+02  0.19492707561E+03  0.75814017102E+02 0.  0.
         -6    2    1    2    0  502  0.36160620192E+02  0.20455943685E+03 -0.80843194433E+01  0.27424824626E+03  0.17887031810E+03 0.  0.
        -24    2    5    5    0    0  0.10881158438E+02  0.11971410558E+03  0.69581295544E+02  0.15638468456E+03  0.71866168618E+02 0.  0.
          5    1    3    3  501    0 -0.42296094759E+02 -0.43759211012E+02 -0.14224243943E+03  0.15478640042E+03  0.47000000000E+01 0. -1.
        -13    1    4    4    0    0 -0.32069856260E+02 -0.88665813352E+02 -0.28242898108E+02  0.98426436649E+02  0.00000000000E+00 0.  1.
         14    1    4    4    0    0  0.38205330826E+02 -0.72134412488E+02 -0.51471861739E+02  0.96500638958E+02  0.00000000000E+00 0. -1.
         -5    1    5    5    0  502  0.25279461755E+02  0.84845331275E+02 -0.77665614987E+02  0.11786356170E+03  0.47000000000E+01 0.  1.
         11    1    6    6    0    0 -0.11581113618E+02  0.51097052226E+02 -0.49382695568E+01  0.52625254822E+02  0.00000000000E+00 0. -1.
        -12    1    6    6    0    0  0.22462272056E+02  0.68617053351E+02  0.74519565101E+02  0.10375942974E+03  0.00000000000E+00 0.  1.
</event>
<event>
12    1  0.8407180E-002  0.1977391E+03  0.7818608E-02  0.1151818E+00
         21   -1    0    0  503  502  0.00000000000E+00  0.00000000000E+00  0.20613359692E+03  0.20613359692E+03  0.00000000000E+00 0.  1.
         21   -1    0    0  501  503 -0.00000000000E+00 -0.00000000000E+00 -0.59329463126E+03  0.59329463126E+03  0.00000000000E+00 0. -1.
          6    2    1    2  501    0  0.91897770973E+02 -0.29243649295E+02  0.13627301669E+03  0.24014803283E+03  0.17262778241E+03 0.  0.
         24    2    3    3    0    0  0.94094150190E+02  0.38616741864E+02  0.84062117364E+02  0.15436968604E+03  0.80116156547E+02 0.  0.
         -6    2    1    2    0  502 -0.91897770973E+02  0.29243649295E+02 -0.52343405103E+03  0.55928019535E+03  0.17178690231E+03 0.  0.
        -24    2    5    5    0    0  0.20276250349E+02  0.13761044817E+01 -0.20016591823E+03  0.21593781988E+03  0.78420196642E+02 0.  0.
          5    1    3    3  501    0 -0.21963792168E+01 -0.67860391159E+02  0.52210899327E+02  0.85778346793E+02  0.47000000000E+01 0. -1.
        -13    1    4    4    0    0  0.98342883256E+01 -0.21718670561E+02  0.27166058455E+02  0.36144274924E+02  0.00000000000E+00 0.  1.
         14    1    4    4    0    0  0.84259861864E+02  0.60335412425E+02  0.56896058909E+02  0.11822541111E+03  0.00000000000E+00 0. -1.
         -5    1    5    5    0  502 -0.11217402132E+03  0.27867544814E+02 -0.32326813280E+03  0.34334237548E+03  0.47000000000E+01 0.  1.
         13    1    6    6    0    0  0.29373182024E+02 -0.22481591984E+02 -0.17897249475E+03  0.18275491697E+03  0.00000000000E+00 0. -1.
        -14    1    6    6    0    0 -0.90969316742E+01  0.23857696465E+02 -0.21193423478E+02  0.33182902906E+02  0.00000000000E+00 0.  1.
</event>
<event>
12    1  0.8407180E-002  0.4175391E+03  0.7818608E-02  0.1037934E+00
         21   -1    0    0  501  502  0.00000000000E+00  0.00000000000E+00  0.47259445246E+03  0.47259445246E+03  0.00000000000E+00 0.  1.
         21   -1    0    0  502  503 -0.00000000000E+00 -0.00000000000E+00 -0.49055419968E+03  0.49055419968E+03  0.00000000000E+00 0. -1.
         -6    2    1    2    0  503 -0.35911383675E+03  0.12369830485E+03  0.23150637282E+03  0.47742446771E+03  0.17342117327E+03 0.  0.
        -24    2    3    3    0    0 -0.65984454173E+02  0.44449989323E+02  0.84496988653E+02  0.14002414246E+03  0.78340727827E+02 0.  0.
          6    2    1    2  501    0  0.35911383675E+03 -0.12369830485E+03 -0.24946612004E+03  0.48572418444E+03  0.17155354831E+03 0.  0.
         24    2    5    5    0    0  0.61443023700E+02 -0.43985445151E+02 -0.62119230760E+02  0.12505397516E+03  0.77908493286E+02 0.  0.
          5    1    5    5  501    0  0.29767081305E+03 -0.79712859700E+02 -0.18734688928E+03  0.36067020928E+03  0.47000000000E+01 0. -1.
        -11    1    6    6    0    0 -0.12759952429E+01 -0.76034234248E+01 -0.51142531063E+02  0.51720389549E+02  0.00000000000E+00 0.  1.
         12    1    6    6    0    0  0.62719018943E+02 -0.36382021726E+02 -0.10976699698E+02  0.73333585609E+02  0.00000000000E+00 0. -1.
         -5    1    3    3    0  503 -0.29312938258E+03  0.79248315528E+02  0.14700938417E+03  0.33740032525E+03  0.47000000000E+01 0.  1.
         11    1    4    4    0    0 -0.53360657190E+02 -0.87695069441E+01  0.57827120554E+02  0.79172216461E+02  0.00000000000E+00 0. -1.
        -12    1    4    4    0    0 -0.12623796983E+02  0.53219496267E+02  0.26669868099E+02  0.60851925997E+02  0.00000000000E+00 0.  1.
</event>
<event>
12    1  0.8407180E-002  0.1989802E+03  0.7818608E-02  0.1150825E+00
         21   -1    0    0  503  502  0.00000000000E+00  0.00000000000E+00  0.65194298613E+02  0.65194298613E+02  0.00000000000E+00 0.  1.
         21   -1    0    0  501  503 -0.00000000000E+00 -0.00000000000E+00 -0.60645712113E+03  0.60645712113E+03  0.00000000000E+00 0.  1.
          6    2    1    2  501    0  0.98325338496E+02 -0.69784754143E+01 -0.24905204546E+03  0.31812594799E+03  0.17164098033E+03 0.  0.
         24    2    3    3    0    0  0.25747960984E+02  0.46408765768E+02 -0.74503741905E+02  0.12163962908E+03  0.80178929706E+02 0.  0.
         -6    2    1    2    0  502 -0.98325338496E+02  0.69784754143E+01 -0.29221077707E+03  0.35352547176E+03  0.17284834289E+03 0.  0.
        -24    2    5    5    0    0 -0.10212492278E+03  0.64174073251E+02 -0.20215120144E+03  0.24666766711E+03  0.73702226713E+02 0.  0.
          5    1    3    3  501    0  0.72577377512E+02 -0.53387241182E+02 -0.17454830355E+03  0.19648631891E+03  0.47000000000E+01 0. -1.
        -11    1    4    4    0    0  0.54405307694E+02  0.34962801613E+02 -0.43793921819E+02  0.78104049769E+02  0.00000000000E+00 0.  1.
         12    1    4    4    0    0 -0.28657346710E+02  0.11445964155E+02 -0.30709820086E+02  0.43535579307E+02  0.00000000000E+00 0. -1.
         -5    1    5    5    0  502  0.37995842870E+01 -0.57195597837E+02 -0.90059575623E+02  0.10685780465E+03  0.47000000000E+01 0.  1.
         11    1    6    6    0    0 -0.19662268684E+02  0.14391235850E+02 -0.11239801627E+03  0.11500881071E+03  0.00000000000E+00 0. -1.
        -12    1    6    6    0    0 -0.82462654100E+02  0.49782837401E+02 -0.89753185172E+02  0.13165885640E+03  0.00000000000E+00 0.  1.
</event>
<event>
12    1  0.8407180E-002  0.2781685E+03  0.7818608E-02  0.1097396E+00
         21   -1    0    0  503  502  0.00000000000E+00  0.00000000000E+00  0.49878061821E+03  0.49878061821E+03  0.00000000000E+00 0.  1.
         21   -1    0    0  501  503 -0.00000000000E+00 -0.00000000000E+00 -0.42294525542E+03  0.42294525542E+03  0.00000000000E+00 0. -1.
          6    2    1    2  501    0 -0.11449472098E+03 -0.17842091313E+03 -0.33084677013E+03  0.42901087455E+03  0.17218502202E+03 0.  0.
         24    2    3    3    0    0 -0.24326970918E+02 -0.14692678762E+03 -0.15534350502E+03  0.22914694795E+03  0.78723800520E+02 0.  0.
         -6    2    1    2    0  502  0.11449472098E+03  0.17842091313E+03  0.40668213291E+03  0.49271499908E+03  0.18009622349E+03 0.  0.
        -24    2    5    5    0    0  0.12770605195E+03  0.19616909703E+03  0.39688312254E+03  0.46806448383E+03  0.82322522595E+02 0.  0.
          5    1    3    3  501    0 -0.90167750066E+02 -0.31494125506E+02 -0.17550326511E+03  0.19986392660E+03  0.47000000000E+01 0. -1.
        -13    1    4    4    0    0 -0.15964877646E+02 -0.91595190268E+02 -0.40537960210E+02  0.10142919903E+03  0.00000000000E+00 0.  1.
         14    1    4    4    0    0 -0.83620932716E+01 -0.55331597356E+02 -0.11480554481E+03  0.12771774892E+03  0.00000000000E+00 0. -1.
         -5    1    5    5    0  502 -0.13211330971E+02 -0.17748183903E+02  0.97990103667E+01  0.24650515249E+02  0.47000000000E+01 0.  1.
         13    1    6    6    0    0  0.10322702833E+03  0.89227341156E+02  0.24896213734E+03  0.28390048189E+03  0.00000000000E+00 0. -1.
        -14    1    6    6    0    0  0.24479023629E+02  0.10694175588E+03  0.14792098520E+03  0.18416400194E+03  0.00000000000E+00 0.  1.
</event>
<event>
12    1  0.8407180E-002  0.1873346E+03  0.7818608E-02  0.1162285E+00
         21   -1    0    0  503  502  0.00000000000E+00  0.00000000000E+00  0.19902657264E+03  0.19902657264E+03  0.00000000000E+00 0.  1.
         21   -1    0    0  501  503 -0.00000000000E+00 -0.00000000000E+00 -0.17766853377E+03  0.17766853377E+03  0.00000000000E+00 0.  1.
          6    2    1    2  501    0  0.77929600943E+02 -0.35876808944E+02 -0.26331292000E+02  0.18917604110E+03  0.16653549010E+03 0.  0.
         24    2    3    3    0    0  0.24853944428E+02  0.19091024628E+02  0.42651043822E+02  0.86126826168E+02  0.67945072460E+02 0.  0.
         -6    2    1    2    0  502 -0.77929600943E+02  0.35876808944E+02  0.47689330871E+02  0.18751906531E+03  0.15977784406E+03 0.  0.
        -24    2    5    5    0    0 -0.84982139098E+02  0.73530352300E+02  0.75262437274E+01  0.13181725932E+03  0.68486997553E+02 0.  0.
          5    1    3    3  501    0  0.53075656515E+02 -0.54967833572E+02 -0.68982335822E+02  0.10304921493E+03  0.47000000000E+01 0. -1.
        -11    1    4    4    0    0  0.69812587035E+01  0.43741191260E+02  0.23286254976E+02  0.50042776269E+02  0.00000000000E+00 0.  1.
         12    1    4    4    0    0  0.17872685725E+02 -0.24650166632E+02  0.19364788846E+02  0.36084049898E+02  0.00000000000E+00 0. -1.
         -5    1    5    5    0  502  0.70525381545E+01 -0.37653543356E+02  0.40163087144E+02  0.55701805990E+02  0.47000000000E+01 0.  1.
         13    1    6    6    0    0 -0.50456471824E+02  0.69076359295E+02 -0.19511648608E+02  0.87738836291E+02  0.00000000000E+00 0. -1.
        -14    1    6    6    0    0 -0.34525667274E+02  0.44539930050E+01  0.27037892335E+02  0.44078423024E+02  0.00000000000E+00 0.  1.
</event>
<event>
12    1  0.8407180E-002  0.2096338E+03  0.7818608E-02  0.1141922E+00
         21   -1    0    0  501  502  0.00000000000E+00  0.00000000000E+00  0.47066070068E+03  0.47066070068E+03  0.00000000000E+00 0. -1.
         21   -1    0    0  502  503 -0.00000000000E+00 -0.00000000000E+00 -0.14160500109E+03  0.14160500109E+03  0.00000000000E+00 0. -1.
         -6    2    1    2    0  503  0.10088314362E+03  0.63444135119E+02 -0.14498862061E+02  0.20980318762E+03  0.17205985466E+03 0.  0.
        -24    2    3    3    0    0 -0.15962645520E+02  0.39726320763E+02  0.77466819141E+01  0.88425976481E+02  0.76981527801E+02 0.  0.
          6    2    1    2  501    0 -0.10088314362E+03 -0.63444135119E+02  0.34355456165E+03  0.40246251415E+03  0.17246382670E+03 0.  0.
         24    2    5    5    0    0  0.22503836265E+02 -0.11342804704E+02  0.13126748376E+03  0.15141114715E+03  0.71127359875E+02 0.  0.
          5    1    5    5  501    0 -0.12338697988E+03 -0.52101330416E+02  0.21228707789E+03  0.25105136700E+03  0.47000000000E+01 0. -1.
        -11    1    6    6    0    0 -0.10971362935E+02 -0.68585822743E+01 -0.27293004630E+01  0.13223465373E+02  0.00000000000E+00 0.  1.
         12    1    6    6    0    0  0.33475199199E+02 -0.44842224293E+01  0.13399678422E+03  0.13818768178E+03  0.00000000000E+00 0. -1.
         -5    1    3    3    0  503  0.11684578914E+03  0.23717814356E+02 -0.22245543975E+02  0.12137721114E+03  0.47000000000E+01 0.  1.
         13    1    4    4    0    0 -0.17455898291E+02 -0.77048741974E+01 -0.24498695889E+02  0.31052529234E+02  0.00000000000E+00 0. -1.
        -14    1    4    4    0    0  0.14932527718E+01  0.47431194961E+02  0.32245377804E+02  0.57373447247E+02  0.00000000000E+00 0.  1.
</event>
<event>
12    1  0.8407180E-002  0.2892438E+03  0.7818608E-02  0.1090989E+00
         21   -1    0    0  503  502  0.00000000000E+00  0.00000000000E+00  0.26442907215E+03  0.26442907215E+03  0.00000000000E+00 0. -1.
         21   -1    0    0  501  503 -0.00000000000E+00 -0.00000000000E+00 -0.31919667027E+03  0.31919667027E+03  0.00000000000E+00 0.  1.
          6    2    1    2  501    0 -0.21908423044E+03 -0.76999923193E+02 -0.63224734815E+02  0.29425830122E+03  0.16930355148E+03 0.  0.
         24    2    3    3    0    0 -0.48540505589E+02 -0.29913077491E+02 -0.10138986068E+02  0.10948135502E+03  0.92910683838E+02 0.  0.
         -6    2    1    2    0  502  0.21908423044E+03  0.76999923193E+02  0.84571367009E+01  0.28936744120E+03  0.17243869829E+03 0.  0.
        -24    2    5    5    0    0  0.56646154394E+02  0.25619673680E+02  0.52667025567E+02  0.11329171073E+03  0.78714939179E+02 0.  0.
          5    1    3    3  501    0 -0.17054372485E+03 -0.47086845702E+02 -0.53085748747E+02  0.18477694619E+03  0.47000000000E+01 0. -1.
        -11    1    4    4    0    0 -0.18625928040E+02 -0.34787370160E+02  0.36570187022E+02  0.53800231383E+02  0.00000000000E+00 0.  1.
         12    1    4    4    0    0 -0.29914577549E+02  0.48742926696E+01 -0.46709173090E+02  0.55681123639E+02  0.00000000000E+00 0. -1.
         -5    1    5    5    0  502  0.16243807605E+03  0.51380249513E+02 -0.44209888866E+02  0.17607573048E+03  0.47000000000E+01 0.  1.
         11    1    6    6    0    0  0.33902364932E+02 -0.25772977168E+02  0.13085032519E+02  0.44551484556E+02  0.00000000000E+00 0. -1.
        -12    1    6    6    0    0  0.22743789462E+02  0.51392650848E+02  0.39581993048E+02  0.68740226170E+02  0.00000000000E+00 0.  1.
</event>
<event>
12    1  0.8407180E-002  0.2468760E+03  0.7818608E-02  0.1116253E+00
         21   -1    0    0  501  502  0.00000000000E+00  0.00000000000E+00  0.27921156004E+03  0.27921156004E+03  0.00000000000E+00 0. -1.
         21   -1    0    0  502  503 -0.00000000000E+00 -0.00000000000E+00 -0.22133241255E+03  0.22133241255E+03  0.00000000000E+00 0. -1.
         -6    2    1    2    0  503 -0.16870134385E+03  0.30011359063E+01 -0.18962627291E+02  0.24760321409E+03  0.18021825702E+03 0.  0.
        -24    2    3    3    0    0 -0.18588877073E+03 -0.31916742272E+02 -0.38628728634E+01  0.20559418598E+03  0.81735757163E+02 0.  0.
          6    2    1    2  501    0  0.16870134385E+03 -0.30011359063E+01  0.76841774773E+02  0.25294075850E+03  0.17206167129E+03 0.  0.
         24    2    5    5    0    0  0.41497170148E+02 -0.32213896361E+02  0.77210985150E+02  0.12234017084E+03  0.79030569559E+02 0.  0.
          5    1    5    5  501    0  0.12720417370E+03  0.29212760454E+02 -0.36921037734E+00  0.13060058765E+03  0.47000000000E+01 0. -1.
        -13    1    6    6    0    0 -0.39637819499E+01 -0.14544884591E+02 -0.12922790705E+02  0.19856076015E+02  0.00000000000E+00 0.  1.
         14    1    6    6    0    0  0.45460952098E+02 -0.17669011770E+02  0.90133775855E+02  0.10248409483E+03  0.00000000000E+00 0. -1.
         -5    1    3    3    0  503  0.17187426889E+02  0.34917878178E+02 -0.15099754427E+02  0.42009028116E+02  0.47000000000E+01 0.  1.
         13    1    4    4    0    0 -0.10380898712E+03  0.14260407311E+02  0.23770392616E+02  0.10744624976E+03  0.00000000000E+00 0. -1.
        -14    1    4    4    0    0 -0.82079783615E+02 -0.46177149583E+02 -0.27633265479E+02  0.98147936213E+02  0.00000000000E+00 0.  1.
</event>
<event>
12    1  0.8407180E-002  0.2684375E+03  0.7818608E-02  0.1102177E+00
         21   -1    0    0  501  502  0.00000000000E+00  0.00000000000E+00  0.10146939192E+03  0.10146939192E+03  0.00000000000E+00 0. -1.
         21   -1    0    0  502  503 -0.00000000000E+00 -0.00000000000E+00 -0.72535282085E+03  0.72535282085E+03  0.00000000000E+00 0.  1.
         -6    2    1    2    0  503 -0.50863226792E+02  0.19936444132E+03 -0.25209458584E+03  0.36825313325E+03  0.17241067728E+03 0.  0.
        -24    2    3    3    0    0 -0.40090314521E+02  0.13672100975E+03 -0.25711195151E+03  0.30431942449E+03  0.78764768057E+02 0.  0.
          6    2    1    2  501    0  0.50863226792E+02 -0.19936444132E+03 -0.37178884309E+03  0.45856907951E+03  0.17241058129E+03 0.  0.
         24    2    5    5    0    0  0.70364086102E+02 -0.86441570951E+02 -0.28001249477E+03  0.31167848664E+03  0.79455849387E+02 0.  0.
          5    1    5    5  501    0 -0.19500859309E+02 -0.11292287037E+03 -0.91776348314E+02  0.14689059288E+03  0.47000000000E+01 0. -1.
        -13    1    6    6    0    0 -0.36080918571E+01 -0.55725140610E+02 -0.13334479263E+03  0.14456536011E+03  0.00000000000E+00 0.  1.
         14    1    6    6    0    0  0.73972177959E+02 -0.30716430341E+02 -0.14666770214E+03  0.16711312652E+03  0.00000000000E+00 0. -1.
         -5    1    3    3    0  503 -0.10772912271E+02  0.62643431573E+02  0.50173656712E+01  0.63933708764E+02  0.47000000000E+01 0.  1.
         11    1    4    4    0    0 -0.63296351502E+02  0.86447465093E+02 -0.17791151053E+03  0.20768268564E+03  0.00000000000E+00 0. -1.
        -12    1    4    4    0    0  0.23206036981E+02  0.50273544653E+02 -0.79200440984E+02  0.96636738854E+02  0.00000000000E+00 0.  1.
</event>
<event>
12    1  0.8407180E-002  0.1980547E+03  0.7818608E-02  0.1151446E+00
         21   -1    0    0  503  502  0.00000000000E+00  0.00000000000E+00  0.13251085823E+03  0.13251085823E+03  0.00000000000E+00 0.  1.
         21   -1    0    0  501  503 -0.00000000000E+00 -0.00000000000E+00 -0.71079656929E+03  0.71079656929E+03  0.00000000000E+00 0. -1.
          6    2    1    2  501    0 -0.68396976137E+02  0.68031234571E+02 -0.61147305026E+03  0.64274796986E+03  0.17297186575E+03 0.  0.
         24    2    3    3    0    0 -0.97226182311E+02  0.57431436915E+02 -0.30863513375E+03  0.33832002680E+03  0.80333643481E+02 0.  0.
         -6    2    1    2    0  502  0.68396976137E+02 -0.68031234571E+02  0.33187339209E+02  0.20055945766E+03  0.17267397416E+03 0.  0.
        -24    2    5    5    0    0  0.71008585017E+02 -0.91041271520E+02  0.67408189572E+02  0.15897293459E+03  0.86010450788E+02 0.  0.
          5    1    3    3  501    0  0.28829206174E+02  0.10599797656E+02 -0.30283791651E+03  0.30442794306E+03  0.47000000000E+01 0. -1.
        -11    1    4    4    0    0  0.29048285820E+01 -0.10895025583E+02 -0.67437958756E+02  0.68374102500E+02  0.00000000000E+00 0.  1.
         12    1    4    4    0    0 -0.10013101089E+03  0.68326462498E+02 -0.24119717499E+03  0.26994592430E+03  0.00000000000E+00 0. -1.
         -5    1    5    5    0  502 -0.26116088807E+01  0.23010036949E+02 -0.34220850364E+02  0.41586523069E+02  0.47000000000E+01 0.  1.
         11    1    6    6    0    0  0.51048780452E+01 -0.37021726961E+01 -0.18702904582E+02  0.19737388438E+02  0.00000000000E+00 0. -1.
        -12    1    6    6    0    0  0.65903706972E+02 -0.87339098824E+02  0.86111094155E+02  0.13923554615E+03  0.00000000000E+00 0.  1.
</event>
<event>
12    1  0.8407180E-002  0.2821111E+03  0.7818608E-02  0.1094634E+00
         21   -1    0    0  501  502  0.00000000000E+00  0.00000000000E+00  0.15831434114E+03  0.15831434114E+03  0.00000000000E+00 0.  1.
         21   -1    0    0  502  503 -0.00000000000E+00 -0.00000000000E+00 -0.50282763474E+03  0.50282763474E+03  0.00000000000E+00 0. -1.
         -6    2    1    2    0  503 -0.20150726033E+03 -0.97208480619E+02 -0.18903997151E+03  0.33902610413E+03  0.17072763040E+03 0.  0.
        -24    2    3    3    0    0 -0.10929632651E+03 -0.24491632803E+02 -0.15930199065E+03  0.21779478071E+03  0.97529048040E+02 0.  0.
          6    2    1    2  501    0  0.20150726033E+03  0.97208480619E+02 -0.15547332210E+03  0.32211587176E+03  0.17184881810E+03 0.  0.
         24    2    5    5    0    0  0.49202101218E+02  0.37714633990E+02 -0.11789510385E+03  0.15427490010E+03  0.77834753855E+02 0.  0.
          5    1    5    5  501    0  0.15230515912E+03  0.59493846628E+02 -0.37578218247E+02  0.16784097166E+03  0.47000000000E+01 0. -1.
        -13    1    6    6    0    0 -0.57990388124E+01 -0.38132756856E+01  0.80975258413E+01  0.10664888530E+02  0.00000000000E+00 0.  1.
         14    1    6    6    0    0  0.55001140030E+02  0.41527909676E+02 -0.12599262969E+03  0.14361001157E+03  0.00000000000E+00 0. -1.
         -5    1    3    3    0  503 -0.92210933822E+02 -0.72716847815E+02 -0.29737980854E+02  0.12123132342E+03  0.47000000000E+01 0.  1.
         11    1    4    4    0    0 -0.34254018512E+01 -0.21332513680E+02  0.51259037290E+01  0.22205503975E+02  0.00000000000E+00 0. -1.
        -12    1    4    4    0    0 -0.10587092466E+03 -0.31591191231E+01 -0.16442789438E+03  0.19558927673E+03  0.00000000000E+00 0.  1.
</event>
<event>
12    1  0.8407180E-002  0.1992982E+03  0.7818608E-02  0.1150742E+00
         21   -1    0    0  501  502  0.00000000000E+00  0.00000000000E+00  0.29681686684E+03  0.29681686684E+03  0.00000000000E+00 0. -1.
         21   -1    0    0  502  503 -0.00000000000E+00 -0.00000000000E+00 -0.49629851163E+03  0.49629851163E+03  0.00000000000E+00 0. -1.
         -6    2    1    2    0  503  0.72109175246E+02  0.66428102653E+02 -0.43911552341E+03  0.48143578136E+03  0.17130540766E+03 0.  0.
        -24    2    3    3    0    0  0.10175650358E+03  0.50203809761E+02 -0.22556679411E+03  0.26517819989E+03  0.81020309527E+02 0.  0.
          6    2    1    2  501    0 -0.72109175246E+02 -0.66428102653E+02  0.23963387862E+03  0.31167959712E+03  0.17351469534E+03 0.  0.
         24    2    5    5    0    0 -0.96531972931E+02 -0.81041113772E+02  0.24063564130E+03  0.28281600986E+03  0.78697519978E+02 0.  0.
          5    1    5    5  501    0  0.24422797685E+02  0.14613011120E+02 -0.10017626786E+01  0.28863587255E+02  0.47000000000E+01 0. -1.
        -13    1    6    6    0    0  0.42810463962E+01  0.58923220307E+01 -0.57977638014E+00  0.73063641991E+01  0.00000000000E+00 0.  1.
         14    1    6    6    0    0 -0.10081301933E+03 -0.86933435803E+02  0.24121541768E+03  0.27550964566E+03  0.00000000000E+00 0. -1.
         -5    1    3    3    0  503 -0.29647328331E+02  0.16224292892E+02 -0.21354872930E+03  0.21625758147E+03  0.47000000000E+01 0.  1.
         11    1    4    4    0    0  0.24551670774E+02  0.28347829097E+02 -0.15118403358E+03  0.15576583695E+03  0.00000000000E+00 0. -1.
        -12    1    4    4    0    0  0.77204832803E+02  0.21855980663E+02 -0.74382760535E+02  0.10941236294E+03  0.00000000000E+00 0.  1.
</event>
<event>
12    1  0.8407180E-002  0.5522176E+03  0.7818608E-02  0.1000987E+00
         21   -1    0    0  501  502  0.00000000000E+00  0.00000000000E+00  0.76789510323E+03  0.76789510323E+03  0.00000000000E+00 0.  1.
         21   -1    0    0  502  503 -0.00000000000E+00 -0.00000000000E+00 -0.46596134273E+03  0.46596134273E+03  0.00000000000E+00 0. -1.
         -6    2    1    2    0  503  0.45258107908E+03  0.26531093267E+03 -0.86257184129E+02  0.55891373768E+03  0.17240864310E+03 0.  0.
        -24    2    3    3    0    0  0.25840829722E+03  0.15044789360E+03 -0.11809814319E+03  0.33102665240E+03  0.78880012784E+02 0.  0.
          6    2    1    2  501    0 -0.45258107908E+03 -0.26531093267E+03  0.38819094464E+03  0.67494270828E+03  0.17215088098E+03 0.  0.
         24    2    5    5    0    0 -0.24491146548E+03 -0.12689421342E+03  0.28715962182E+03  0.40565610488E+03  0.77540052213E+02 0.  0.
          5    1    5    5  501    0 -0.20766961360E+03 -0.13841671925E+03  0.10103132282E+03  0.26928660340E+03  0.47000000000E+01 0. -1.
        -13    1    6    6    0    0 -0.13173861211E+03 -0.11002510191E+03  0.18346762652E+03  0.25123884045E+03  0.00000000000E+00 0.  1.
         14    1    6    6    0    0 -0.11317285337E+03 -0.16869111512E+02  0.10369199530E+03  0.15441726443E+03  0.00000000000E+00 0. -1.
         -5    1    3    3    0  503  0.19417278187E+03  0.11486303907E+03  0.31840959061E+02  0.22788708528E+03  0.47000000000E+01 0.  1.
         11    1    4    4    0    0  0.16996777382E+03  0.90225314349E+02 -0.35086307354E+02  0.19560342648E+03  0.00000000000E+00 0. -1.
        -12    1    4    4    0    0  0.88440523392E+02  0.60222579250E+02 -0.83011835836E+02  0.13542322592E+03  0.00000000000E+00 0.  1.
</event>
<event>
12    1  0.8407180E-002  0.2193901E+03  0.7818608E-02  0.1134508E+00
         21   -1    0    0  501  502  0.00000000000E+00  0.00000000000E+00  0.11863403277E+04  0.11863403277E+04  0.00000000000E+00 0. -1.
         21   -1    0    0  502  503 -0.00000000000E+00 -0.00000000000E+00 -0.19444414952E+03  0.19444414952E+03  0.00000000000E+00 0. -1.
         -6    2    1    2    0  503  0.83728499389E+02  0.10718943404E+03 -0.11832834926E+03  0.24926615922E+03  0.17213943045E+03 0.  0.
        -24    2    3    3    0    0  0.30968759113E+02  0.97228710745E+02 -0.11085295794E+02  0.12924129214E+03  0.78536243709E+02 0.  0.
          6    2    1    2  501    0 -0.83728499389E+02 -0.10718943404E+03  0.11102245274E+04  0.11315183180E+04  0.17098294136E+03 0.  0.
         24    2    5    5    0    0  0.19334468611E+01 -0.72811801779E+02  0.82080783067E+03  0.82770274070E+03  0.77852651698E+02 0.  0.
          5    1    5    5  501    0 -0.85661946250E+02 -0.34377632256E+02  0.28941669676E+03  0.30381557728E+03  0.47000000000E+01 0. -1.
        -11    1    6    6    0    0  0.88949759906E+01 -0.82147588848E+02  0.50781733161E+03  0.51449566493E+03  0.00000000000E+00 0.  1.
         12    1    6    6    0    0 -0.69615291295E+01  0.93357870690E+01  0.31299049906E+03  0.31320707577E+03  0.00000000000E+00 0. -1.
         -5    1    3    3    0  503  0.52759740275E+02  0.99607232909E+01 -0.10724305347E+03  0.12002486709E+03  0.47000000000E+01 0.  1.
         11    1    4    4    0    0  0.55142550034E+02  0.47384981685E+02 -0.12775487235E+02  0.73819038111E+02  0.00000000000E+00 0. -1.
        -12    1    4    4    0    0 -0.24173790920E+02  0.49843729060E+02  0.16901914418E+01  0.55422254025E+02  0.00000000000E+00 0.  1.
</event>
<event>
12    1  0.8407180E-002  0.2037936E+03  0.7818608E-02  0.1146653E+00
         21   -1    0    0  503  502  0.00000000000E+00  0.00000000000E+00  0.27394729498E+03  0.27394729498E+03  0.00000000000E+00 0.  1.
         21   -1    0    0  501  503 -0.00000000000E+00 -0.00000000000E+00 -0.31983943204E+03  0.31983943204E+03  0.00000000000E+00 0.  1.
          6    2    1    2  501    0  0.45857789357E+01  0.10905157312E+03 -0.23845472289E+03  0.31367576045E+03  0.17210041505E+03 0.  0.
         24    2    3    3    0    0  0.59636210415E+02  0.93313216666E+02 -0.12185035512E+03  0.18368762849E+03  0.81423594976E+02 0.  0.
         -6    2    1    2    0  502 -0.45857789357E+01 -0.10905157312E+03  0.19256258584E+03  0.28011096657E+03  0.17166400077E+03 0.  0.
        -24    2    5    5    0    0  0.32923568319E+01 -0.12579995640E+03  0.20817059507E+03  0.25544776892E+03  0.77987802576E+02 0.  0.
          5    1    3    3  501    0 -0.55050431480E+02  0.15738356450E+02 -0.11660436776E+03  0.12998813196E+03  0.47000000000E+01 0. -1.
        -13    1    4    4    0    0  0.68478826213E+02  0.36777915589E+02 -0.87096094411E+02  0.11673771617E+03  0.00000000000E+00 0.  1.
         14    1    4    4    0    0 -0.88426157975E+01  0.56535301077E+02 -0.34754260713E+02  0.66949912321E+02  0.00000000000E+00 0. -1.
         -5    1    5    5    0  502 -0.78781357676E+01  0.16748383287E+02 -0.15608009235E+02  0.24663197647E+02  0.47000000000E+01 0.  1.
         11    1    6    6    0    0  0.13260478479E+02  0.55202173007E+01  0.99811682156E+01  0.17491049353E+02  0.00000000000E+00 0. -1.
        -12    1    6    6    0    0 -0.99681216468E+01 -0.13132017370E+03  0.19818942685E+03  0.23795671957E+03  0.00000000000E+00 0.  1.
</event>
<event>
12    1  0.8407180E-002  0.2324559E+03  0.7818608E-02  0.1125011E+00
         21   -1    0    0  501  502  0.00000000000E+00  0.00000000000E+00  0.87440705210E+02  0.87440705210E+02  0.00000000000E+00 0.  1.
         21   -1    0    0  502  503 -0.00000000000E+00 -0.00000000000E+00 -0.14913977849E+04  0.14913977849E+04  0.00000000000E+00 0.  1.
         -6    2    1    2    0  503 -0.15561327800E+03 -0.18000583800E+01 -0.13062481132E+04  0.13266821740E+04  0.17199629374E+03 0.  0.
        -24    2    3    3    0    0 -0.21431517787E+02 -0.98885068229E+01 -0.61487630644E+03  0.62234757101E+03  0.93201579420E+02 0.  0.
          6    2    1    2  501    0  0.15561327800E+03  0.18000583800E+01 -0.97708966532E+02  0.25215631616E+03  0.17267609312E+03 0.  0.
         24    2    5    5    0    0  0.16451518974E+03 -0.39097374028E+02 -0.62700913735E+02  0.19738864530E+03  0.80231043854E+02 0.  0.
          5    1    5    5  501    0 -0.89019117414E+01  0.40897432408E+02 -0.35008052797E+02  0.54767670855E+02  0.47000000000E+01 0. -1.
        -11    1    6    6    0    0  0.81717935355E+02  0.16454631619E+02 -0.49139529615E+02  0.96763987263E+02  0.00000000000E+00 0.  1.
         12    1    6    6    0    0  0.82797254390E+02 -0.55552005647E+02 -0.13561384120E+02  0.10062465804E+03  0.00000000000E+00 0. -1.
         -5    1    3    3    0  503 -0.13418176022E+03  0.80884484429E+01 -0.69137180675E+03  0.70433460297E+03  0.47000000000E+01 0.  1.
         13    1    4    4    0    0 -0.35256760023E+02  0.18493214207E+02 -0.11932080948E+03  0.12578749411E+03  0.00000000000E+00 0. -1.
        -14    1    4    4    0    0  0.13825242237E+02 -0.28381721030E+02 -0.49555549696E+03  0.49656007690E+03  0.00000000000E+00 0.  1.
</event>
<event>
12    1  0.8407180E-002  0.2475114E+03  0.7818608E-02  0.1115011E+00
         21   -1    0    0  501  502  0.00000000000E+00  0.00000000000E+00  0.14525027469E+04  0.14525027469E+04  0.00000000000E+00 0.  1.
         21   -1    0    0  502  503 -0.00000000000E+00 -0.00000000000E+00 -0.20101576047E+03  0.20101576047E+03  0.00000000000E+00 0. -1.
         -6    2    1    2    0  503 -0.10581153071E+03 -0.14263827099E+03 -0.10968723890E+03  0.27002395491E+03  0.17128890643E+03 0.  0.
        -24    2    3    3    0    0 -0.10543058201E+03 -0.92009896271E+02 -0.13726698300E+03  0.21217838694E+03  0.81215852055E+02 0.  0.
          6    2    1    2  501    0  0.10581153071E+03  0.14263827099E+03  0.13611742254E+04  0.13834945525E+04  0.17239532666E+03 0.  0.
         24    2    5    5    0    0  0.79457386891E+02  0.87498292548E+01  0.60803617729E+03  0.61807985107E+03  0.76971901121E+02 0.  0.
          5    1    5    5  501    0  0.26354143815E+02  0.13388844174E+03  0.75313804807E+03  0.76541470144E+03  0.47000000000E+01 0. -1.
        -13    1    6    6    0    0  0.44485356576E+02  0.42888961777E+02  0.31654537201E+03  0.32252035987E+03  0.00000000000E+00 0.  1.
         14    1    6    6    0    0  0.34972030316E+02 -0.34139132522E+02  0.29149080528E+03  0.29555949120E+03  0.00000000000E+00 0. -1.
         -5    1    3    3    0  503 -0.38094869204E+00 -0.50628374721E+02  0.27579744106E+02  0.57845567969E+02  0.47000000000E+01 0.  1.
         13    1    4    4    0    0 -0.14763162707E+02 -0.65653703854E+02 -0.53825495632E+02  0.86171594988E+02  0.00000000000E+00 0. -1.
        -14    1    4    4    0    0 -0.90667419308E+02 -0.26356192417E+02 -0.83441487369E+02  0.12600679195E+03  0.00000000000E+00 0.  1.
</event>
<event>
12    1  0.8407180E-002  0.1834485E+03  0.7818608E-02  0.1165859E+00
         21   -1    0    0  501  502  0.00000000000E+00  0.00000000000E+00  0.54127602488E+03  0.54127602488E+03  0.00000000000E+00 0.  1.
         21   -1    0    0  502  503 -0.00000000000E+00 -0.00000000000E+00 -0.60877287067E+02  0.60877287067E+02  0.00000000000E+00 0.  1.
         -6    2    1    2    0  503  0.37559901755E+02 -0.25969242704E+02  0.20664038573E+03  0.27261273463E+03  0.17184966186E+03 0.  0.
        -24    2    3    3    0    0  0.63359730622E+02  0.47411722089E+02  0.12626883403E+03  0.16066599066E+03  0.60061761972E+02 0.  0.
          6    2    1    2  501    0 -0.37559901755E+02  0.25969242704E+02  0.27375835208E+03  0.32954057731E+03  0.17767444660E+03 0.  0.
         24    2    5    5    0    0 -0.42569476278E+02  0.30400193390E+02  0.29360522903E+03  0.30807624211E+03  0.77269711827E+02 0.  0.
          5    1    5    5  501    0  0.50095745228E+01 -0.44309506861E+01 -0.19846876955E+02  0.21464335204E+02  0.47000000000E+01 0. -1.
        -11    1    6    6    0    0  0.63536169543E+01 -0.18381120202E+02  0.11389485062E+03  0.11554337292E+03  0.00000000000E+00 0.  1.
         12    1    6    6    0    0 -0.48923093232E+02  0.48781313592E+02  0.17971037841E+03  0.19253286919E+03  0.00000000000E+00 0. -1.
         -5    1    3    3    0  503 -0.25799828866E+02 -0.73380964793E+02  0.80371551699E+02  0.11194674397E+03  0.47000000000E+01 0.  1.
         13    1    4    4    0    0  0.72004880113E+02  0.30757383060E+02  0.11380717724E+03  0.13814048272E+03  0.00000000000E+00 0. -1.
        -14    1    4    4    0    0 -0.86451494917E+01  0.16654339030E+02  0.12461656788E+02  0.22525507944E+02  0.00000000000E+00 0.  1.
</event>
<event>
12    1  0.8407180E-002  0.2233475E+03  0.7818608E-02  0.1131567E+00
         21   -1    0    0  501  502  0.00000000000E+00  0.00000000000E+00  0.71542116265E+03  0.71542116265E+03  0.00000000000E+00 0.  1.
         21   -1    0    0  502  503 -0.00000000000E+00 -0.00000000000E+00 -0.78673268356E+02  0.78673268356E+02  0.00000000000E+00 0.  1.
         -6    2    1    2    0  503 -0.25593806968E+02  0.14116615499E+03  0.18198626467E+03  0.28744638041E+03  0.17006908834E+03 0.  0.
        -24    2    3    3    0    0 -0.51040514874E+01  0.14944465230E+03  0.19742129113E+03  0.26008411370E+03  0.79428109413E+02 0.  0.
          6    2    1    2  501    0  0.25593806968E+02 -0.14116615499E+03  0.45476162962E+03  0.50664805060E+03  0.17117587777E+03 0.  0.
         24    2    5    5    0    0  0.27495974549E+02 -0.34552439717E+01  0.19297154124E+03  0.21080340619E+03  0.80200330436E+02 0.  0.
          5    1    5    5  501    0 -0.19021675813E+01 -0.13771091102E+03  0.26179008838E+03  0.29584464441E+03  0.47000000000E+01 0. -1.
        -11    1    6    6    0    0  0.23424755225E+02 -0.38815404041E+02  0.13852153750E+03  0.14575174476E+03  0.00000000000E+00 0.  1.
         12    1    6    6    0    0  0.40712193242E+01  0.35360160069E+02  0.54450003743E+02  0.65051661428E+02  0.00000000000E+00 0. -1.
         -5    1    3    3    0  503 -0.20489755481E+02 -0.82784973027E+01 -0.15435026464E+02  0.27362266704E+02  0.47000000000E+01 0.  1.
         13    1    4    4    0    0  0.26638389487E+02  0.46288074324E+02  0.31066636020E+02  0.61784508517E+02  0.00000000000E+00 0. -1.
        -14    1    4    4    0    0 -0.31742440975E+02  0.10315657797E+03  0.16635465511E+03  0.19829960518E+03  0.00000000000E+00 0.  1.
</event>
<event>
12    1  0.8407180E-002  0.1880191E+03  0.7818608E-02  0.1161632E+00
         21   -1    0    0  501  502  0.00000000000E+00  0.00000000000E+00  0.16686846200E+04  0.16686846200E+04  0.00000000000E+00 0. -1.
         21   -1    0    0  502  503 -0.00000000000E+00 -0.00000000000E+00 -0.33182516163E+02  0.33182516163E+02  0.00000000000E+00 0. -1.
         -6    2    1    2    0  503  0.57576227063E+02 -0.27794687535E+02  0.28418318149E+03  0.33753065883E+03  0.17052653292E+03 0.  0.
        -24    2    3    3    0    0 -0.17530707773E+01 -0.71940116785E+02  0.17906424972E+03  0.20891936725E+03  0.80030261926E+02 0.  0.
          6    2    1    2  501    0 -0.57576227063E+02  0.27794687535E+02  0.13513189223E+04  0.13643364773E+04  0.17681523382E+03 0.  0.
         24    2    5    5    0    0  0.23651744782E+02  0.58465355299E+02  0.66181052334E+03  0.66936698478E+03  0.77983259195E+02 0.  0.
          5    1    5    5  501    0 -0.81227971845E+02 -0.30670667764E+02  0.68950839900E+03  0.69496949254E+03  0.47000000000E+01 0. -1.
        -13    1    6    6    0    0  0.20517591083E+02  0.11610732433E+02  0.45270051853E+02  0.51040750840E+02  0.00000000000E+00 0.  1.
         14    1    6    6    0    0  0.31341536988E+01  0.46854622866E+02  0.61654047148E+03  0.61832623394E+03  0.00000000000E+00 0. -1.
         -5    1    3    3    0  503  0.59329297840E+02  0.44145429250E+02  0.10511893178E+03  0.12861129159E+03  0.47000000000E+01 0.  1.
         11    1    4    4    0    0  0.22056656822E+02 -0.57421791222E+02  0.57516167327E+02  0.84213227709E+02  0.00000000000E+00 0. -1.
        -12    1    4    4    0    0 -0.23809727599E+02 -0.14518325562E+02  0.12154808239E+03  0.12470613954E+03  0.00000000000E+00 0.  1.
</event>
<event>
12    1  0.8407180E-002  0.1817437E+03  0.7818608E-02  0.1166564E+00
         21   -1    0    0  501  502  0.00000000000E+00  0.00000000000E+00  0.18420044529E+03  0.18420044529E+03  0.00000000000E+00 0.  1.
         21   -1    0    0  502  503 -0.00000000000E+00 -0.00000000000E+00 -0.27667540872E+03  0.27667540872E+03  0.00000000000E+00 0. -1.
         -6    2    1    2    0  503  0.38583805000E+02 -0.35597018606E+02 -0.18403421228E+03  0.25737190907E+03  0.17209256390E+03 0.  0.
        -24    2    3    3    0    0  0.25191901752E+02 -0.58265479603E+02 -0.42206005319E+02  0.11304404452E+03  0.83475212428E+02 0.  0.
          6    2    1    2  501    0 -0.38583805000E+02  0.35597018606E+02  0.91559248854E+02  0.20350394494E+03  0.17399684426E+03 0.  0.
         24    2    5    5    0    0 -0.23110094766E+02  0.88193017030E+02  0.82341132196E+02  0.14771112790E+03  0.82014818905E+02 0.  0.
          5    1    5    5  501    0 -0.15473710234E+02 -0.52595998424E+02  0.92181166578E+01  0.55792817041E+02  0.47000000000E+01 0. -1.
        -13    1    6    6    0    0  0.18595504202E+02  0.60996073797E+01 -0.56286646515E+01  0.20363689560E+02  0.00000000000E+00 0.  1.
         14    1    6    6    0    0 -0.41705598969E+02  0.82093409651E+02  0.87969796847E+02  0.12734743834E+03  0.00000000000E+00 0. -1.
         -5    1    3    3    0  503  0.13391903248E+02  0.22668460997E+02 -0.14182820696E+03  0.14432786455E+03  0.47000000000E+01 0.  1.
         13    1    4    4    0    0 -0.23787381783E+02 -0.24153177501E+02  0.82478470648E+01  0.34889002518E+02  0.00000000000E+00 0. -1.
        -14    1    4    4    0    0  0.48979283536E+02 -0.34112302102E+02 -0.50453852384E+02  0.78155042005E+02  0.00000000000E+00 0.  1.
</event>
<event>
12    1  0.8407180E-002  0.1920875E+03  0.7818608E-02  0.1156727E+00
         21   -1    0    0  503  502  0.00000000000E+00  0.00000000000E+00  0.18789755967E+03  0.18789755967E+03  0.00000000000E+00 0.  1.
         21   -1    0    0  501  503 -0.00000000000E+00 -0.00000000000E+00 -0.22523997227E+03  0.22523997227E+03  0.00000000000E+00 0.  1.
          6    2    1    2  501    0  0.45762152422E+02 -0.71434583656E+02 -0.93440828625E+02  0.21360894986E+03  0.17233839000E+03 0.  0.
         24    2    3    3    0    0 -0.18855304647E+02 -0.91549684094E+01 -0.91218887492E+02  0.12371349249E+03  0.80899980395E+02 0.  0.
         -6    2    1    2    0  502 -0.45762152422E+02  0.71434583656E+02  0.56098416025E+02  0.19952858208E+03  0.17166114427E+03 0.  0.
        -24    2    5    5    0    0 -0.11517814640E+02 -0.18686229540E+02  0.66683775567E+02  0.10242772999E+03  0.74584708338E+02 0.  0.
          5    1    3    3  501    0  0.64617457069E+02 -0.62279615247E+02 -0.22219411330E+01  0.89895457370E+02  0.47000000000E+01 0. -1.
        -13    1    4    4    0    0  0.17136118630E+01  0.77247733335E+01 -0.96299820997E+02  0.96624345342E+02  0.00000000000E+00 0.  1.
         14    1    4    4    0    0 -0.20568916510E+02 -0.16879741743E+02  0.50809335053E+01  0.27089147144E+02  0.00000000000E+00 0. -1.
         -5    1    5    5    0  502 -0.34244337782E+02  0.90120813196E+02 -0.10585359542E+02  0.97100852097E+02  0.47000000000E+01 0.  1.
         13    1    6    6    0    0 -0.28919694136E+02 -0.55527159771E+01 -0.28220590685E+01  0.29582856201E+02  0.00000000000E+00 0. -1.
        -14    1    6    6    0    0  0.17401879495E+02 -0.13133513563E+02  0.69505834635E+02  0.72844873786E+02  0.00000000000E+00 0.  1.
</event>
<event>
12    1  0.8407180E-002  0.2137748E+03  0.7818608E-02  0.1139156E+00
         21   -1    0    0  503  502  0.00000000000E+00  0.00000000000E+00  0.14358779170E+03  0.14358779170E+03  0.00000000000E+00 0. -1.
         21   -1    0    0  501  503 -0.00000000000E+00 -0.00000000000E+00 -0.49656188577E+03  0.49656188577E+03  0.00000000000E+00 0. -1.
          6    2    1    2  501    0 -0.99413908162E+02 -0.71830359455E+02 -0.37123292720E+03  0.42838481439E+03  0.17509122561E+03 0.  0.
         24    2    3    3    0    0 -0.67792513569E+02  0.25706994213E+02 -0.22991149023E+03  0.25372146247E+03  0.79111394437E+02 0.  0.
         -6    2    1    2    0  502  0.99413908162E+02  0.71830359455E+02  0.18258833126E+02  0.21176486308E+03  0.17166317768E+03 0.  0.
        -24    2    5    5    0    0  0.12730160211E+02  0.16608388937E+02  0.59030834205E+02  0.10109425154E+03  0.79356869550E+02 0.  0.
          5    1    3    3  501    0 -0.31621394593E+02 -0.97537353669E+02 -0.14132143696E+03  0.17466335192E+03  0.47000000000E+01 0. -1.
        -11    1    4    4    0    0 -0.65918864795E+02  0.59959779495E+01 -0.86347904907E+02  0.10879893919E+03  0.00000000000E+00 0.  1.
         12    1    4    4    0    0 -0.18736487734E+01  0.19711016264E+02 -0.14356358533E+03  0.14492252328E+03  0.00000000000E+00 0. -1.
         -5    1    5    5    0  502  0.86683747950E+02  0.55221970519E+02 -0.40772001079E+02  0.11067061154E+03  0.47000000000E+01 0.  1.
         13    1    6    6    0    0 -0.26649227623E+02  0.77591053915E+01  0.53611853907E+02  0.60370654533E+02  0.00000000000E+00 0. -1.
        -14    1    6    6    0    0  0.39379387834E+02  0.88492835452E+01  0.54189802976E+01  0.40723597004E+02  0.00000000000E+00 0.  1.
</event>
<event>
12    1  0.8407180E-002  0.3229083E+03  0.7818608E-02  0.1074416E+00
         21   -1    0    0  501  502  0.00000000000E+00  0.00000000000E+00  0.28564661938E+03  0.28564661938E+03  0.00000000000E+00 0. -1.
         21   -1    0    0  502  503 -0.00000000000E+00 -0.00000000000E+00 -0.72829002925E+03  0.72829002925E+03  0.00000000000E+00 0.  1.
         -6    2    1    2    0  503 -0.26297225859E+03 -0.70386912969E+02 -0.57998698315E+03  0.66381826673E+03  0.17366941101E+03 0.  0.
        -24    2    3    3    0    0 -0.14389049374E+03 -0.77679883120E+02 -0.45776598330E+03  0.49295657724E+03  0.81962510606E+02 0.  0.
          6    2    1    2  501    0  0.26297225859E+03  0.70386912969E+02  0.13734357328E+03  0.35011838190E+03  0.17207817386E+03 0.  0.
         24    2    5    5    0    0  0.12702413708E+03 -0.30313742735E+02  0.60134372784E+02  0.16409186647E+03  0.79094522270E+02 0.  0.
          5    1    5    5  501    0  0.13594812151E+03  0.10070065570E+03  0.77209200499E+02  0.18602651543E+03  0.47000000000E+01 0. -1.
        -13    1    6    6    0    0  0.13330678444E+03 -0.22994916474E+02  0.38881176927E+02  0.14075230328E+03  0.00000000000E+00 0.  1.
         14    1    6    6    0    0 -0.62826473587E+01 -0.73188262609E+01  0.21253195857E+02  0.23339563188E+02  0.00000000000E+00 0. -1.
         -5    1    3    3    0  503 -0.11908176485E+03  0.72929701509E+01 -0.12222099985E+03  0.17086168949E+03  0.47000000000E+01 0.  1.
         11    1    4    4    0    0  0.17852017293E+01  0.11569125273E+02 -0.37806629680E+02  0.39577428575E+02  0.00000000000E+00 0. -1.
        -12    1    4    4    0    0 -0.14567569547E+03 -0.89249008393E+02 -0.41995935362E+03  0.45337914867E+03  0.00000000000E+00 0.  1.
</event>
<event>
12    1  0.8407180E-002  0.2877164E+03  0.7818608E-02  0.1091982E+00
         21   -1    0    0  501  502  0.00000000000E+00  0.00000000000E+00  0.76909489204E+03  0.76909489204E+03  0.00000000000E+00 0.  1.
         21   -1    0    0  502  503 -0.00000000000E+00 -0.00000000000E+00 -0.29352387177E+03  0.29352387177E+03  0.00000000000E+00 0. -1.
         -6    2    1    2    0  503  0.23167047647E+03  0.10945571713E+02 -0.18690978728E+03  0.34035735569E+03  0.16467193382E+03 0.  0.
        -24    2    3    3    0    0  0.96239661427E+02  0.59083664475E+02 -0.12462157124E+03  0.18363883893E+03  0.73754561266E+02 0.  0.
          6    2    1    2  501    0 -0.23167047647E+03 -0.10945571713E+02  0.66248080754E+03  0.72226140812E+03  0.17026363702E+03 0.  0.
         24    2    5    5    0    0 -0.89563149347E+02 -0.42505568771E+01  0.46603740763E+03  0.47966830225E+03  0.69650484003E+02 0.  0.
          5    1    5    5  501    0 -0.14210732712E+03 -0.66950148358E+01  0.19644339991E+03  0.24259310587E+03  0.47000000000E+01 0. -1.
        -11    1    6    6    0    0 -0.95609010150E+02  0.21709516578E+01  0.45751680574E+03  0.46740498862E+03  0.00000000000E+00 0.  1.
         12    1    6    6    0    0  0.60458608027E+01 -0.64215085349E+01  0.85206018917E+01  0.12263313635E+02  0.00000000000E+00 0. -1.
         -5    1    3    3    0  503  0.13543081504E+03 -0.48138092762E+02 -0.62288216036E+02  0.15671851676E+03  0.47000000000E+01 0.  1.
         13    1    4    4    0    0  0.36403595599E+02 -0.47163684302E+01 -0.73932802233E+02  0.82544080040E+02  0.00000000000E+00 0. -1.
        -14    1    4    4    0    0  0.59836065828E+02  0.63800032905E+02 -0.50688769008E+02  0.10109475889E+03  0.00000000000E+00 0.  1.
</event>
<event>
12    1  0.8407180E-002  0.2003524E+03  0.7818608E-02  0.1152015E+00
         21   -1    0    0  503  502  0.00000000000E+00  0.00000000000E+00  0.25361638499E+03  0.25361638499E+03  0.00000000000E+00 0.  1.
         21   -1    0    0  501  503 -0.00000000000E+00 -0.00000000000E+00 -0.15779882721E+03  0.15779882721E+03  0.00000000000E+00 0.  1.
          6    2    1    2  501    0  0.48895259797E+01 -0.10230934731E+03 -0.18434314933E+01  0.18852792032E+03  0.15826644777E+03 0.  0.
         24    2    3    3    0    0  0.46988379073E+02 -0.10517431373E+03  0.25168810991E+02  0.13820622810E+03  0.72096798827E+02 0.  0.
         -6    2    1    2    0  502 -0.48895259797E+01  0.10230934731E+03  0.97660989273E+02  0.22288729188E+03  0.17219165498E+03 0.  0.
        -24    2    5    5    0    0  0.31786906779E+01  0.36901609060E+02 -0.17201715257E+02  0.90377672477E+02  0.80625007591E+02 0.  0.
          5    1    3    3  501    0 -0.42098853093E+02  0.28649664179E+01 -0.27012242485E+02  0.50321692225E+02  0.47000000000E+01 0. -1.
        -13    1    4    4    0    0  0.18301213479E+02 -0.61337196105E+02 -0.22026932522E+02  0.67693218251E+02  0.00000000000E+00 0.  1.
         14    1    4    4    0    0  0.28687165594E+02 -0.43837117625E+02  0.47195743514E+02  0.70513009844E+02  0.00000000000E+00 0. -1.
         -5    1    5    5    0  502 -0.80682166576E+01  0.65407738253E+02  0.11486270453E+03  0.13250961941E+03  0.47000000000E+01 0.  1.
         11    1    6    6    0    0 -0.35554620465E+02  0.94288997832E+00 -0.32485604452E+01  0.35715167967E+02  0.00000000000E+00 0. -1.
        -12    1    6    6    0    0  0.38733311143E+02  0.35958719081E+02 -0.13953154812E+02  0.54662504510E+02  0.00000000000E+00 0.  1.
</event>
<event>
12    1  0.8407180E-002  0.1898474E+03  0.7818608E-02  0.1160197E+00
         21   -1    0    0  503  502  0.00000000000E+00  0.00000000000E+00  0.16969412293E+03  0.16969412293E+03  0.00000000000E+00 0. -1.
         21   -1    0    0  501  503 -0.00000000000E+00 -0.00000000000E+00 -0.60557154289E+03  0.60557154289E+03  0.00000000000E+00 0. -1.
          6    2    1    2  501    0 -0.12429731718E+02 -0.83747514637E+02 -0.53193228019E+03  0.56250153544E+03  0.16213538239E+03 0.  0.
         24    2    3    3    0    0 -0.63928632681E+02 -0.58092475649E+02 -0.42038099668E+03  0.43689860284E+03  0.81844981433E+02 0.  0.
         -6    2    1    2    0  502  0.12429731718E+02  0.83747514637E+02  0.96054860233E+02  0.21276413038E+03  0.16992320196E+03 0.  0.
        -24    2    5    5    0    0  0.27489678561E+01  0.52313271908E+02 -0.14404618514E+02  0.97415895674E+02  0.80858694359E+02 0.  0.
          5    1    3    3  501    0  0.51498900963E+02 -0.25655038988E+02 -0.11155128351E+03  0.12560293260E+03  0.47000000000E+01 0. -1.
        -11    1    4    4    0    0 -0.30839107955E+02  0.16202927393E+02 -0.86430207114E+02  0.93186727259E+02  0.00000000000E+00 0.  1.
         12    1    4    4    0    0 -0.33089524726E+02 -0.74295403042E+02 -0.33395078957E+03  0.34371187558E+03  0.00000000000E+00 0. -1.
         -5    1    5    5    0  502  0.96807638623E+01  0.31434242729E+02  0.11045947875E+03  0.11534823471E+03  0.47000000000E+01 0.  1.
         13    1    6    6    0    0  0.10891277732E+01  0.29543954268E+02  0.33299941582E+02  0.44529962300E+02  0.00000000000E+00 0. -1.
        -14    1    6    6    0    0  0.16598400829E+01  0.22769317639E+02 -0.47704560096E+02  0.52885933374E+02  0.00000000000E+00 0.  1.
</event>
<event>
12    1  0.8407180E-002  0.2548503E+03  0.7818608E-02  0.1110331E+00
         21   -1    0    0  501  502  0.00000000000E+00  0.00000000000E+00  0.13545724651E+03  0.13545724651E+03  0.00000000000E+00 0.  1.
         21   -1    0    0  502  503 -0.00000000000E+00 -0.00000000000E+00 -0.60044751995E+03  0.60044751995E+03  0.00000000000E+00 0. -1.
         -6    2    1    2    0  503  0.83129775999E+02  0.16920876479E+03 -0.39822012802E+03  0.47278739645E+03  0.17148319493E+03 0.  0.
        -24    2    3    3    0    0  0.11454806514E+03  0.16232796361E+03 -0.37703935989E+03  0.43399088558E+03  0.81962081845E+02 0.  0.
          6    2    1    2  501    0 -0.83129775999E+02 -0.16920876479E+03 -0.66770145418E+02  0.26311737001E+03  0.17096880518E+03 0.  0.
         24    2    5    5    0    0 -0.11889597731E+03 -0.94091903548E+02 -0.36379529270E+02  0.17441875927E+03  0.78159412099E+02 0.  0.
          5    1    5    5  501    0  0.35766201313E+02 -0.75116861238E+02 -0.30390616148E+02  0.88698610747E+02  0.47000000000E+01 0. -1.
        -11    1    6    6    0    0 -0.29551002858E+02 -0.21742981694E+02 -0.46245970163E+02  0.59031421964E+02  0.00000000000E+00 0.  1.
         12    1    6    6    0    0 -0.89344974454E+02 -0.72348921854E+02  0.98664408927E+01  0.11538733730E+03  0.00000000000E+00 0. -1.
         -5    1    3    3    0  503 -0.31418289138E+02  0.68808011740E+01 -0.21180768128E+02  0.38796510870E+02  0.47000000000E+01 0.  1.
         11    1    4    4    0    0  0.12251842102E+02  0.64977181013E+02 -0.71451963264E+02  0.97352579532E+02  0.00000000000E+00 0. -1.
        -12    1    4    4    0    0  0.10229622303E+03  0.97350782599E+02 -0.30558739663E+03  0.33663830604E+03  0.00000000000E+00 0.  1.
</event>
<event>
12    1  0.8407180E-002  0.2208419E+03  0.7818608E-02  0.1134497E+00
         21   -1    0    0  503  502  0.00000000000E+00  0.00000000000E+00  0.10157800366E+04  0.10157800366E+04  0.00000000000E+00 0.  1.
         21   -1    0    0  501  503 -0.00000000000E+00 -0.00000000000E+00 -0.48646521016E+02  0.48646521016E+02  0.00000000000E+00 0.  1.
          6    2    1    2  501    0 -0.70417942756E+02 -0.10674328973E+03  0.38124622279E+03  0.44059032630E+03  0.18005092799E+03 0.  0.
         24    2    3    3    0    0 -0.94457768927E+01 -0.92752322866E+02  0.34941378148E+03  0.37024299882E+03  0.79357869081E+02 0.  0.
         -6    2    1    2    0  502  0.70417942756E+02  0.10674328973E+03  0.58588729283E+03  0.62383623136E+03  0.17191540677E+03 0.  0.
        -24    2    5    5    0    0  0.16256825833E+02  0.21762688743E+02  0.42952789635E+03  0.43775700092E+03  0.79994244200E+02 0.  0.
          5    1    3    3  501    0 -0.60972165864E+02 -0.13990966866E+02  0.31832441305E+02  0.70347327479E+02  0.47000000000E+01 0. -1.
        -13    1    4    4    0    0 -0.15539091397E+02 -0.17645065326E+01  0.15179602282E+03  0.15259950651E+03  0.00000000000E+00 0.  1.
         14    1    4    4    0    0  0.60933145039E+01 -0.90987816333E+02  0.19761775867E+03  0.21764349231E+03  0.00000000000E+00 0. -1.
         -5    1    5    5    0  502  0.54161116924E+02  0.84980600989E+02  0.15635939648E+03  0.18607923043E+03  0.47000000000E+01 0.  1.
         13    1    6    6    0    0 -0.26049332143E+02  0.21993983280E+02  0.28885629769E+03  0.29086124479E+03  0.00000000000E+00 0. -1.
        -14    1    6    6    0    0  0.42306157976E+02 -0.23129453702E+00  0.14067159866E+03  0.14689575613E+03  0.00000000000E+00 0.  1.
</event>
<event>
12    1  0.8407180E-002  0.2002415E+03  0.7818608E-02  0.1149874E+00
         21   -1    0    0  503  502  0.00000000000E+00  0.00000000000E+00  0.36083177699E+03  0.36083177699E+03  0.00000000000E+00 0. -1.
         21   -1    0    0  501  503 -0.00000000000E+00 -0.00000000000E+00 -0.16450198419E+03  0.16450198419E+03  0.00000000000E+00 0. -1.
          6    2    1    2  501    0  0.85266898598E+02  0.55896790689E+02 -0.52434590404E+02  0.20699284450E+03  0.17234197457E+03 0.  0.
         24    2    3    3    0    0  0.51003822114E+02  0.71335531102E+02  0.25926438090E+02  0.11995920789E+03  0.77639445494E+02 0.  0.
         -6    2    1    2    0  502 -0.85266898598E+02 -0.55896790689E+02  0.24876438320E+03  0.31834091668E+03  0.17047675994E+03 0.  0.
        -24    2    5    5    0    0 -0.33209252332E+02  0.27014057896E+02  0.72698564718E+02  0.11683292730E+03  0.80822260702E+02 0.  0.
          5    1    3    3  501    0  0.34263076483E+02 -0.15438740414E+02 -0.78361028493E+02  0.87033636614E+02  0.47000000000E+01 0. -1.
        -13    1    4    4    0    0 -0.12201953835E+02  0.47255734218E+02  0.45163884676E+01  0.49014180180E+02  0.00000000000E+00 0.  1.
         14    1    4    4    0    0  0.63205775950E+02  0.24079796884E+02  0.21410049622E+02  0.70945027706E+02  0.00000000000E+00 0. -1.
         -5    1    5    5    0  502 -0.52057646266E+02 -0.82910848584E+02  0.17606581848E+03  0.20150798938E+03  0.47000000000E+01 0.  1.
         11    1    6    6    0    0 -0.50449541940E+02  0.12315589107E+02  0.77866942481E+02  0.93595356446E+02  0.00000000000E+00 0. -1.
        -12    1    6    6    0    0  0.17240289608E+02  0.14698468789E+02 -0.51683777627E+01  0.23237570854E+02  0.00000000000E+00 0.  1.
</event>
<event>
12    1  0.8407180E-002  0.4451654E+03  0.7818608E-02  0.1029242E+00
         21   -1    0    0  503  502  0.00000000000E+00  0.00000000000E+00  0.49994115620E+03  0.49994115620E+03  0.00000000000E+00 0.  1.
         21   -1    0    0  501  503 -0.00000000000E+00 -0.00000000000E+00 -0.39561264529E+03  0.39561264529E+03  0.00000000000E+00 0. -1.
          6    2    1    2  501    0  0.24190041453E+03  0.33179409110E+03  0.48250155847E+02  0.44777261892E+03  0.17195671340E+03 0.  0.
         24    2    3    3    0    0  0.80235298422E+02  0.22281404585E+03  0.22425028200E+02  0.25104619151E+03  0.80234071546E+02 0.  0.
         -6    2    1    2    0  502 -0.24190041453E+03 -0.33179409110E+03  0.56078355060E+02  0.44778118257E+03  0.16958795985E+03 0.  0.
        -24    2    5    5    0    0 -0.20402898054E+03 -0.30032853066E+03 -0.20465084522E+01  0.37146004026E+03  0.78443113677E+02 0.  0.
          5    1    3    3  501    0  0.16166511610E+03  0.10898004524E+03  0.25825127647E+02  0.19672642741E+03  0.47000000000E+01 0. -1.
        -13    1    4    4    0    0  0.23408664165E+02  0.40469471320E+02  0.36820134799E+02  0.59510217556E+02  0.00000000000E+00 0.  1.
         14    1    4    4    0    0  0.56826634257E+02  0.18234457453E+03 -0.14395106599E+02  0.19153597395E+03  0.00000000000E+00 0. -1.
         -5    1    5    5    0  502 -0.37871433983E+02 -0.31465560434E+02  0.58124863512E+02  0.76321142311E+02  0.47000000000E+01 0.  1.
         11    1    6    6    0    0 -0.42691624231E+02 -0.68597832005E+02 -0.33263326672E+02  0.87376691610E+02  0.00000000000E+00 0. -1.
        -12    1    6    6    0    0 -0.16133735631E+03 -0.23173069866E+03  0.31216818220E+02  0.28408334865E+03  0.00000000000E+00 0.  1.
</event>
<event>
12    1  0.8407180E-002  0.2150102E+03  0.7818608E-02  0.1137825E+00
         21   -1    0    0  503  502  0.00000000000E+00  0.00000000000E+00  0.16433032959E+03  0.16433032959E+03  0.00000000000E+00 0. -1.
         21   -1    0    0  501  503 -0.00000000000E+00 -0.00000000000E+00 -0.71584034376E+03  0.71584034376E+03  0.00000000000E+00 0. -1.
          6    2    1    2  501    0  0.63441346894E+02  0.11236609903E+03 -0.61929115572E+03  0.65555390494E+03  0.17198384234E+03 0.  0.
         24    2    3    3    0    0 -0.61400463511E+01  0.43589567483E+00 -0.27549819588E+03  0.28733436452E+03  0.81387289731E+02 0.  0.
         -6    2    1    2    0  502 -0.63441346894E+02 -0.11236609903E+03  0.67781141546E+02  0.22461676840E+03  0.17090191571E+03 0.  0.
        -24    2    5    5    0    0 -0.61141103933E+02 -0.12619751660E+02  0.71514524322E+02  0.12466351394E+03  0.80803290752E+02 0.  0.
          5    1    3    3  501    0  0.69581393245E+02  0.11193020335E+03 -0.34379295984E+03  0.36821954041E+03  0.47000000000E+01 0. -1.
        -11    1    4    4    0    0 -0.36553267141E+02  0.16385346266E+02 -0.20547629699E+03  0.20934452354E+03  0.00000000000E+00 0.  1.
         12    1    4    4    0    0  0.30413220790E+02 -0.15949450591E+02 -0.70021898890E+02  0.77989840986E+02  0.00000000000E+00 0. -1.
         -5    1    5    5    0  502 -0.23002429611E+01 -0.99746347369E+02 -0.37333827755E+01  0.99953254465E+02  0.47000000000E+01 0.  1.
         11    1    6    6    0    0 -0.14599259319E+01  0.18873077037E+01  0.62547914357E+02  0.62593409434E+02  0.00000000000E+00 0. -1.
        -12    1    6    6    0    0 -0.59681178001E+02 -0.14507059363E+02  0.89666099646E+01  0.62070104505E+02  0.00000000000E+00 0.  1.
</event>
<event>
12    1  0.8407180E-002  0.1751997E+03  0.7818608E-02  0.1172695E+00
         21   -1    0    0  501  502  0.00000000000E+00  0.00000000000E+00  0.20738704450E+04  0.20738704450E+04  0.00000000000E+00 0.  1.
         21   -1    0    0  502  503 -0.00000000000E+00 -0.00000000000E+00 -0.20168078400E+02  0.20168078400E+02  0.00000000000E+00 0.  1.
         -6    2    1    2    0  503 -0.11658408970E+02 -0.25479105982E+02  0.48536166463E+03  0.51601442905E+03  0.17294462162E+03 0.  0.
        -24    2    3    3    0    0  0.44318522951E+02 -0.45210386339E+02  0.21156999815E+03  0.23582394568E+03  0.82722177984E+02 0.  0.
          6    2    1    2  501    0  0.11658408970E+02  0.25479105982E+02  0.15683407020E+04  0.15780240944E+04  0.17228575557E+03 0.  0.
         24    2    5    5    0    0  0.68572495987E+02 -0.11400993865E+01  0.12143774876E+04  0.12184968457E+04  0.72927317060E+02 0.  0.
          5    1    5    5  501    0 -0.56914087017E+02  0.26619205368E+02  0.35396321443E+03  0.35952724871E+03  0.47000000000E+01 0. -1.
        -11    1    6    6    0    0 -0.13713469957E+02  0.97309990118E+01  0.17197508752E+03  0.17279520343E+03  0.00000000000E+00 0.  1.
         12    1    6    6    0    0  0.82285965944E+02 -0.10871098398E+02  0.10424024000E+04  0.10457016422E+04  0.00000000000E+00 0. -1.
         -5    1    3    3    0  503 -0.55976931921E+02  0.19731280357E+02  0.27379166649E+03  0.28019048337E+03  0.47000000000E+01 0.  1.
         11    1    4    4    0    0  0.60075253219E+01  0.24174224909E+02  0.50414550269E+02  0.56232645228E+02  0.00000000000E+00 0. -1.
        -12    1    4    4    0    0  0.38310997629E+02 -0.69384611248E+02  0.16115544788E+03  0.17959130045E+03  0.00000000000E+00 0.  1.
</event>
<event>
12    1  0.8407180E-002  0.2089700E+03  0.7818608E-02  0.1143255E+00
         21   -1    0    0  501  502  0.00000000000E+00  0.00000000000E+00  0.16986654338E+03  0.16986654338E+03  0.00000000000E+00 0.  1.
         21   -1    0    0  502  503 -0.00000000000E+00 -0.00000000000E+00 -0.25205223861E+03  0.25205223861E+03  0.00000000000E+00 0. -1.
         -6    2    1    2    0  503 -0.11343844129E+03 -0.27223426367E+01 -0.33776280206E+02  0.20741485407E+03  0.17030676285E+03 0.  0.
        -24    2    3    3    0    0 -0.14289554625E+03 -0.82067571486E+01 -0.51423216076E+02  0.17232490991E+03  0.81024930883E+02 0.  0.
          6    2    1    2  501    0  0.11343844129E+03  0.27223426367E+01 -0.48409415025E+02  0.21450392793E+03  0.17547869536E+03 0.  0.
         24    2    5    5    0    0  0.18189339608E-01  0.36579501561E+02 -0.14854073254E+01  0.87089590980E+02  0.79021074132E+02 0.  0.
          5    1    5    5  501    0  0.11342025195E+03 -0.33857158924E+02 -0.46924007700E+02  0.12741433695E+03  0.47000000000E+01 0. -1.
        -11    1    6    6    0    0 -0.77112464494E+01  0.11373268351E+02  0.37549767445E+02  0.39984992059E+02  0.00000000000E+00 0.  1.
         12    1    6    6    0    0  0.77294357890E+01  0.25206233209E+02 -0.39035174770E+02  0.47104598921E+02  0.00000000000E+00 0. -1.
         -5    1    3    3    0  503  0.29457104961E+02  0.54844145118E+01  0.17646935870E+02  0.35089944155E+02  0.47000000000E+01 0.  1.
         13    1    4    4    0    0 -0.11535085089E+03  0.10474446537E+02 -0.59565246782E+01  0.11597850240E+03  0.00000000000E+00 0. -1.
        -14    1    4    4    0    0 -0.27544695354E+02 -0.18681203685E+02 -0.45466691398E+02  0.56346407516E+02  0.00000000000E+00 0.  1.
</event>
<event>
12    1  0.8407180E-002  0.1834150E+03  0.7818608E-02  0.1164701E+00
         21   -1    0    0  501  502  0.00000000000E+00  0.00000000000E+00  0.53950926203E+03  0.53950926203E+03  0.00000000000E+00 0.  1.
         21   -1    0    0  502  503 -0.00000000000E+00 -0.00000000000E+00 -0.67443105376E+02  0.67443105376E+02  0.00000000000E+00 0.  1.
         -6    2    1    2    0  503  0.14714062031E+02  0.60207646599E+02  0.15119341520E+03  0.23769833068E+03  0.17262555801E+03 0.  0.
        -24    2    3    3    0    0  0.46409820923E+01 -0.11880362100E+02  0.89460641314E+01  0.77840434962E+02  0.76265454389E+02 0.  0.
          6    2    1    2  501    0 -0.14714062031E+02 -0.60207646599E+02  0.32087274145E+03  0.36925403672E+03  0.17189462789E+03 0.  0.
         24    2    5    5    0    0  0.33793366954E+02  0.19129814653E+02  0.15563164176E+03  0.17958560379E+03  0.80757908047E+02 0.  0.
          5    1    5    5  501    0 -0.48507428984E+02 -0.79337461252E+02  0.16524109969E+03  0.18966843293E+03  0.47000000000E+01 0. -1.
        -13    1    6    6    0    0 -0.92649036517E+01 -0.25612257758E+02  0.41139707427E+02  0.49338643215E+02  0.00000000000E+00 0.  1.
         14    1    6    6    0    0  0.43058270605E+02  0.44742072411E+02  0.11449193433E+03  0.13024696057E+03  0.00000000000E+00 0. -1.
         -5    1    3    3    0  503  0.10073079938E+02  0.72088008699E+02  0.14224735107E+03  0.15985789572E+03  0.47000000000E+01 0.  1.
         11    1    4    4    0    0  0.27102350457E+02 -0.11361758671E+02 -0.24013977322E+02  0.37951259099E+02  0.00000000000E+00 0. -1.
        -12    1    4    4    0    0 -0.22461368365E+02 -0.51860342977E+00  0.32960041454E+02  0.39889175862E+02  0.00000000000E+00 0.  1.
</event>
<event>
12    1  0.8407180E-002  0.2067648E+03  0.7818608E-02  0.1144342E+00
         21   -1    0    0  501  502  0.00000000000E+00  0.00000000000E+00  0.46386252726E+03  0.46386252726E+03  0.00000000000E+00 0.  1.
         21   -1    0    0  502  503 -0.00000000000E+00 -0.00000000000E+00 -0.16176089091E+03  0.16176089091E+03  0.00000000000E+00 0. -1.
         -6    2    1    2    0  503 -0.30940949932E+02  0.10877474631E+03 -0.54546038103E+02  0.21383861949E+03  0.17309649649E+03 0.  0.
        -24    2    3    3    0    0  0.14049054967E+01  0.53614333870E+02  0.36226321186E+02  0.10270520114E+03  0.79746733094E+02 0.  0.
          6    2    1    2  501    0  0.30940949932E+02 -0.10877474631E+03  0.35664767445E+03  0.41178479867E+03  0.17198799059E+03 0.  0.
         24    2    5    5    0    0  0.14861171163E+01 -0.31737904469E+01  0.10661246251E+03  0.13873014065E+03  0.88699229270E+02 0.  0.
          5    1    5    5  501    0  0.29454832816E+02 -0.10560095586E+03  0.25003521194E+03  0.27305465802E+03  0.47000000000E+01 0. -1.
        -13    1    6    6    0    0  0.20037350307E+02 -0.14916180614E+02  0.11310853071E+03  0.11583405186E+03  0.00000000000E+00 0.  1.
         14    1    6    6    0    0 -0.18551233191E+02  0.11742390168E+02 -0.64960682012E+01  0.22896088789E+02  0.00000000000E+00 0. -1.
         -5    1    3    3    0  503 -0.32345855429E+02  0.55160412436E+02 -0.90772359289E+02  0.11113341835E+03  0.47000000000E+01 0.  1.
         11    1    4    4    0    0  0.58847806793E+01  0.18519216156E+02 -0.25197940564E+02  0.31820248574E+02  0.00000000000E+00 0. -1.
        -12    1    4    4    0    0 -0.44798751825E+01  0.35095117714E+02  0.61424261750E+02  0.70884952567E+02  0.00000000000E+00 0.  1.
</event>
<event>
12    1  0.8407180E-002  0.1920243E+03  0.7818608E-02  0.1157986E+00
         21   -1    0    0  501  502  0.00000000000E+00  0.00000000000E+00  0.16218182892E+03  0.16218182892E+03  0.00000000000E+00 0.  1.
         21   -1    0    0  502  503 -0.00000000000E+00 -0.00000000000E+00 -0.34901054874E+03  0.34901054874E+03  0.00000000000E+00 0.  1.
         -6    2    1    2    0  503 -0.37297732219E+02 -0.80085026876E+02 -0.24763206176E+03  0.30977150862E+03  0.16380481428E+03 0.  0.
        -24    2    3    3    0    0  0.13212657201E+02 -0.51439170810E+02 -0.55196011204E+02  0.10871030385E+03  0.77141220539E+02 0.  0.
          6    2    1    2  501    0  0.37297732219E+02  0.80085026876E+02  0.60803341936E+02  0.20142086904E+03  0.17049512526E+03 0.  0.
         24    2    5    5    0    0  0.64237077796E+02  0.38951582560E+02 -0.15174685886E+02  0.11079835918E+03  0.80014857110E+02 0.  0.
          5    1    5    5  501    0 -0.26939345577E+02  0.41133444316E+02  0.75978027822E+02  0.90622509859E+02  0.47000000000E+01 0. -1.
        -11    1    6    6    0    0  0.40175331819E+02  0.11914556692E+02  0.31003052633E+02  0.52126799446E+02  0.00000000000E+00 0.  1.
         12    1    6    6    0    0  0.24061745976E+02  0.27037025868E+02 -0.46177738519E+02  0.58671559737E+02  0.00000000000E+00 0. -1.
         -5    1    3    3    0  503 -0.50510389421E+02 -0.28645856066E+02 -0.19243605056E+03  0.20106120477E+03  0.47000000000E+01 0.  1.
         11    1    4    4    0    0  0.14442600934E+02  0.33743115817E+01  0.14020768469E+02  0.20409719470E+02  0.00000000000E+00 0. -1.
        -12    1    4    4    0    0 -0.12299437327E+01 -0.54813482392E+02 -0.69216779673E+02  0.88300584379E+02  0.00000000000E+00 0.  1.
</event>
<event>
12    1  0.8407180E-002  0.1858821E+03  0.7818608E-02  0.1162898E+00
         21   -1    0    0  501  502  0.00000000000E+00  0.00000000000E+00  0.94403801625E+02  0.94403801625E+02  0.00000000000E+00 0. -1.
         21   -1    0    0  502  503 -0.00000000000E+00 -0.00000000000E+00 -0.40986138589E+03  0.40986138589E+03  0.00000000000E+00 0. -1.
         -6    2    1    2    0  503 -0.58764946843E+02  0.38105002397E+02 -0.71210382719E+02  0.19905541507E+03  0.17218254695E+03 0.  0.
        -24    2    3    3    0    0 -0.50689233857E+02 -0.15692593402E+02  0.14954581956E+02  0.97046152785E+02  0.79866515713E+02 0.  0.
          6    2    1    2  501    0  0.58764946843E+02 -0.38105002397E+02 -0.24424720155E+03  0.30520977245E+03  0.16908873277E+03 0.  0.
         24    2    5    5    0    0 -0.71759361455E+01 -0.64906942783E+02 -0.10456084307E+03  0.14836299115E+03  0.82548179625E+02 0.  0.
          5    1    5    5  501    0  0.65940882989E+02  0.26801940387E+02 -0.13968635848E+03  0.15684678130E+03  0.47000000000E+01 0.  1.
        -13    1    6    6    0    0 -0.22991403947E+01 -0.65805147891E+02 -0.27851315828E+02  0.71493351641E+02  0.00000000000E+00 0.  1.
         14    1    6    6    0    0 -0.48767957508E+01  0.89820510785E+00 -0.76709527239E+02  0.76869639510E+02  0.00000000000E+00 0. -1.
         -5    1    3    3    0  503 -0.80757129861E+01  0.53797595799E+02 -0.86164964675E+02  0.10200926228E+03  0.47000000000E+01 0.  1.
         11    1    4    4    0    0  0.21427442440E+02 -0.89368884740E+01  0.71581662327E+00  0.23227476371E+02  0.00000000000E+00 0. -1.
        -12    1    4    4    0    0 -0.72116676298E+02 -0.67557049284E+01  0.14238765333E+02  0.73818676414E+02  0.00000000000E+00 0.  1.
</event>
<event>
12    1  0.8407180E-002  0.1744432E+03  0.7818608E-02  0.1173736E+00
         21   -1    0    0  503  502  0.00000000000E+00  0.00000000000E+00  0.18943782180E+03  0.18943782180E+03  0.00000000000E+00 0.  1.
         21   -1    0    0  501  503 -0.00000000000E+00 -0.00000000000E+00 -0.17063611145E+03  0.17063611145E+03  0.00000000000E+00 0.  1.
          6    2    1    2  501    0  0.19634728923E+02  0.43638559174E+01 -0.37518545645E+02  0.17843228470E+03  0.17327975397E+03 0.  0.
         24    2    3    3    0    0 -0.21242719741E+02 -0.38358247935E+02 -0.66292506683E+02  0.11250676005E+03  0.79627044949E+02 0.  0.
         -6    2    1    2    0  502 -0.19634728923E+02 -0.43638559174E+01  0.56320255995E+02  0.18164164855E+03  0.17151428930E+03 0.  0.
        -24    2    5    5    0    0 -0.26630997267E+02 -0.52407315608E+02 -0.99465766708E+01  0.99358570698E+02  0.79482415910E+02 0.  0.
          5    1    3    3  501    0  0.40877448664E+02  0.42722103853E+02  0.28773961038E+02  0.65925524652E+02  0.47000000000E+01 0. -1.
        -11    1    4    4    0    0  0.14223230410E+02 -0.32058910122E+02 -0.67928720850E+02  0.76448578260E+02  0.00000000000E+00 0.  1.
         12    1    4    4    0    0 -0.35465950151E+02 -0.62993378130E+01  0.16362141675E+01  0.36058181788E+02  0.00000000000E+00 0. -1.
         -5    1    5    5    0  502  0.69962683435E+01  0.48043459691E+02  0.66266832665E+02  0.82283077855E+02  0.47000000000E+01 0.  1.
         11    1    6    6    0    0  0.59914186206E+01  0.16891995843E+02  0.95690917264E+01  0.20317581970E+02  0.00000000000E+00 0. -1.
        -12    1    6    6    0    0 -0.32622415887E+02 -0.69299311452E+02 -0.19515668397E+02  0.79040988727E+02  0.00000000000E+00 0.  1.
</event>
<event>
12    1  0.8407180E-002  0.2063403E+03  0.7818608E-02  0.1145099E+00
         21   -1    0    0  501  502  0.00000000000E+00  0.00000000000E+00  0.30863110666E+03  0.30863110666E+03  0.00000000000E+00 0.  1.
         21   -1    0    0  502  503 -0.00000000000E+00 -0.00000000000E+00 -0.15322117016E+03  0.15322117016E+03  0.00000000000E+00 0.  1.
         -6    2    1    2    0  503 -0.11176023116E+03 -0.39667472032E+01  0.15465443485E+03  0.25551054566E+03  0.16988690466E+03 0.  0.
        -24    2    3    3    0    0 -0.85116487795E+01 -0.43398436323E+02  0.84517203142E+02  0.12452791650E+03  0.80051058214E+02 0.  0.
          6    2    1    2  501    0  0.11176023116E+03  0.39667472032E+01  0.75550165365E+00  0.20634173115E+03  0.17340777053E+03 0.  0.
         24    2    5    5    0    0  0.19278220006E+02 -0.26485565825E+02 -0.43630407530E+02  0.99232139190E+02  0.82887092020E+02 0.  0.
          5    1    5    5  501    0  0.92482011157E+02  0.30452313028E+02  0.44385909183E+02  0.10710959196E+03  0.47000000000E+01 0. -1.
        -11    1    6    6    0    0  0.18939753908E+02  0.23214374215E+02  0.42011792433E+01  0.30253451957E+02  0.00000000000E+00 0.  1.
         12    1    6    6    0    0  0.33846609750E+00 -0.49699940039E+02 -0.47831586773E+02  0.68978687233E+02  0.00000000000E+00 0. -1.
         -5    1    3    3    0  503 -0.10324858238E+03  0.39431689120E+02  0.70137231706E+02  0.13098262916E+03  0.47000000000E+01 0.  1.
         11    1    4    4    0    0 -0.22702999466E+02  0.11774833680E+02  0.39864511397E+01  0.25883676046E+02  0.00000000000E+00 0. -1.
        -12    1    4    4    0    0  0.14191350687E+02 -0.55173270003E+02  0.80530752002E+02  0.98644240456E+02  0.00000000000E+00 0.  1.
</event>
<event>
12    1  0.8407180E-002  0.2103363E+03  0.7818608E-02  0.1141570E+00
         21   -1    0    0  501  502  0.00000000000E+00  0.00000000000E+00  0.33878262350E+03  0.33878262350E+03  0.00000000000E+00 0. -1.
         21   -1    0    0  502  503 -0.00000000000E+00 -0.00000000000E+00 -0.14915070612E+03  0.14915070612E+03  0.00000000000E+00 0. -1.
         -6    2    1    2    0  503  0.25832673016E+02 -0.11523847047E+03  0.65498124937E+01  0.20907779339E+03  0.17240473188E+03 0.  0.
        -24    2    3    3    0    0  0.76028146909E+02 -0.81355871841E+02 -0.24919113226E+02  0.14066727245E+03  0.82263371742E+02 0.  0.
          6    2    1    2  501    0 -0.25832673016E+02  0.11523847047E+03  0.18308210488E+03  0.27885553622E+03  0.17405206371E+03 0.  0.
         24    2    5    5    0    0 -0.41378000826E+02  0.73433678586E+02  0.19987386445E+03  0.23096659146E+03  0.79318097403E+02 0.  0.
          5    1    5    5  501    0  0.15545327810E+02  0.41804791886E+02 -0.16791759569E+02  0.47888944766E+02  0.47000000000E+01 0. -1.
        -13    1    6    6    0    0  0.49140301594E+01  0.44728366740E+02  0.15175833027E+03  0.15828886660E+03  0.00000000000E+00 0.  1.
         14    1    6    6    0    0 -0.46292030985E+02  0.28705311845E+02  0.48115534187E+02  0.72677724861E+02  0.00000000000E+00 0. -1.
         -5    1    3    3    0  503 -0.50195473893E+02 -0.33882598631E+02  0.31468925720E+02  0.68410520940E+02  0.47000000000E+01 0.  1.
         11    1    4    4    0    0  0.23923815701E+01 -0.61603842360E+02 -0.17398792137E+02  0.64058370655E+02  0.00000000000E+00 0. -1.
        -12    1    4    4    0    0  0.73635765339E+02 -0.19752029481E+02 -0.75203210888E+01  0.76608901800E+02  0.00000000000E+00 0.  1.
</event>
<event>
12    1  0.8407180E-002  0.2462705E+03  0.7818608E-02  0.1116016E+00
         21   -1    0    0  503  502  0.00000000000E+00  0.00000000000E+00  0.20395304474E+03  0.20395304474E+03  0.00000000000E+00 0. -1.
         21   -1    0    0  501  503 -0.00000000000E+00 -0.00000000000E+00 -0.39440775661E+03  0.39440775661E+03  0.00000000000E+00 0. -1.
          6    2    1    2  501    0 -0.17421213264E+03  0.11378254409E+02 -0.24579821238E+03  0.34794528610E+03  0.17369464321E+03 0.  0.
         24    2    3    3    0    0 -0.11313426025E+03  0.76002176941E+02 -0.14056282191E+03  0.21009270083E+03  0.76192810009E+02 0.  0.
         -6    2    1    2    0  502  0.17421213264E+03 -0.11378254409E+02  0.55343500504E+02  0.25041551525E+03  0.17077966916E+03 0.  0.
        -24    2    5    5    0    0  0.14500207734E+03 -0.69870526147E+02  0.51020406154E+02  0.18472417390E+03  0.74916258059E+02 0.  0.
          5    1    3    3  501    0 -0.61077872392E+02 -0.64623922532E+02 -0.10523539047E+03  0.13785258528E+03  0.47000000000E+01 0. -1.
        -13    1    4    4    0    0 -0.52820146659E+02  0.79814044071E+02 -0.86451246234E+02  0.12897312704E+03  0.00000000000E+00 0.  1.
         14    1    4    4    0    0 -0.60314113591E+02 -0.38118671301E+01 -0.54111575672E+02  0.81119573784E+02  0.00000000000E+00 0. -1.
         -5    1    5    5    0  502  0.29210055297E+02  0.58492271739E+02  0.43230943494E+01  0.65691341350E+02  0.47000000000E+01 0.  1.
         13    1    6    6    0    0  0.26615836350E+02  0.13011449866E+02  0.23026657007E+02  0.37522360069E+02  0.00000000000E+00 0. -1.
        -14    1    6    6    0    0  0.11838624099E+03 -0.82881976013E+02  0.27993749148E+02  0.14720181383E+03  0.00000000000E+00 0.  1.
</event>
<event>
12    1  0.8407180E-002  0.2418335E+03  0.7818608E-02  0.1118631E+00
         21   -1    0    0  501  502  0.00000000000E+00  0.00000000000E+00  0.22762672373E+03  0.22762672373E+03  0.00000000000E+00 0. -1.
         21   -1    0    0  502  503 -0.00000000000E+00 -0.00000000000E+00 -0.35947971643E+03  0.35947971643E+03  0.00000000000E+00 0.  1.
         -6    2    1    2    0  503  0.18369341268E+02 -0.16868253330E+03 -0.22301397653E+03  0.32896603947E+03  0.17231422360E+03 0.  0.
        -24    2    3    3    0    0  0.29948295746E+02 -0.16842644029E+03 -0.11696147709E+03  0.22217952155E+03  0.80121073801E+02 0.  0.
          6    2    1    2  501    0 -0.18369341268E+02  0.16868253330E+03  0.91160983832E+02  0.25814040069E+03  0.17185724237E+03 0.  0.
         24    2    5    5    0    0 -0.39155456164E+02  0.65524092913E+02 -0.11744023664E+02  0.11088125169E+03  0.79562386752E+02 0.  0.
          5    1    5    5  501    0  0.20786114896E+02  0.10315844039E+03  0.10290500750E+03  0.14725914900E+03  0.47000000000E+01 0. -1.
        -13    1    6    6    0    0 -0.22346669097E+01  0.50246066676E+02 -0.38028443127E+02  0.63054131025E+02  0.00000000000E+00 0.  1.
         14    1    6    6    0    0 -0.36920789254E+02  0.15278026237E+02  0.26284419463E+02  0.47827120667E+02  0.00000000000E+00 0. -1.
         -5    1    3    3    0  503 -0.11578954478E+02 -0.25609300730E+00 -0.10605249944E+03  0.10678651791E+03  0.47000000000E+01 0.  1.
         13    1    4    4    0    0  0.28495388665E+01 -0.10101440701E+01  0.99224369687E+01  0.10372801849E+02  0.00000000000E+00 0. -1.
        -14    1    4    4    0    0  0.27098756879E+02 -0.16741629622E+03 -0.12688391406E+03  0.21180671970E+03  0.00000000000E+00 0.  1.
</event>
<event>
12    1  0.8407180E-002  0.2005324E+03  0.7818608E-02  0.1149375E+00
         21   -1    0    0  501  502  0.00000000000E+00  0.00000000000E+00  0.15875290041E+03  0.15875290041E+03  0.00000000000E+00 0.  1.
         21   -1    0    0  502  503 -0.00000000000E+00 -0.00000000000E+00 -0.64789374704E+03  0.64789374704E+03  0.00000000000E+00 0.  1.
         -6    2    1    2    0  503  0.69485166213E+02  0.74876196385E+02 -0.55943231725E+03  0.59415165896E+03  0.17209602887E+03 0.  0.
        -24    2    3    3    0    0  0.11586315142E+02 -0.15590260812E+02 -0.33617492277E+03  0.34635656009E+03  0.81067805495E+02 0.  0.
          6    2    1    2  501    0 -0.69485166213E+02 -0.74876196385E+02  0.70291470613E+02  0.21249498850E+03  0.17256475940E+03 0.  0.
         24    2    5    5    0    0 -0.54608917556E+02 -0.11922912395E+03  0.56735399201E+02  0.16356297414E+03  0.79600396435E+02 0.  0.
          5    1    5    5  501    0 -0.14876248657E+02  0.44352927561E+02  0.13556071413E+02  0.48932014361E+02  0.47000000000E+01 0. -1.
        -13    1    6    6    0    0 -0.28464944031E+02 -0.39208949676E+01  0.31553596573E+02  0.42676175001E+02  0.00000000000E+00 0.  1.
         14    1    6    6    0    0 -0.26143973525E+02 -0.11530822898E+03  0.25181802628E+02  0.12088679914E+03  0.00000000000E+00 0. -1.
         -5    1    3    3    0  503  0.57898851071E+02  0.90466457197E+02 -0.22325739447E+03  0.24779509886E+03  0.47000000000E+01 0.  1.
         13    1    4    4    0    0 -0.15558147358E+02  0.13521177774E+02 -0.23924348164E+02  0.31579307033E+02  0.00000000000E+00 0. -1.
        -14    1    4    4    0    0  0.27144462500E+02 -0.29111438586E+02 -0.31225057461E+03  0.31477725306E+03  0.00000000000E+00 0.  1.
</event>
<event>
12    1  0.8407180E-002  0.2005804E+03  0.7818608E-02  0.1149750E+00
         21   -1    0    0  501  502  0.00000000000E+00  0.00000000000E+00  0.52334558303E+03  0.52334558303E+03  0.00000000000E+00 0. -1.
         21   -1    0    0  502  503 -0.00000000000E+00 -0.00000000000E+00 -0.84510370453E+02  0.84510370453E+02  0.00000000000E+00 0. -1.
         -6    2    1    2    0  503 -0.33360191827E+02  0.95472442746E+02  0.12398495811E+03  0.23580665481E+03  0.17321841384E+03 0.  0.
        -24    2    3    3    0    0 -0.57077448119E+02  0.53785311088E+02  0.87433478274E+01  0.11089450996E+03  0.77913101820E+02 0.  0.
          6    2    1    2  501    0  0.33360191827E+02 -0.95472442746E+02  0.31485025446E+03  0.37204929867E+03  0.17047612202E+03 0.  0.
         24    2    5    5    0    0 -0.20674491225E+02 -0.10734012247E+03  0.26541536517E+03  0.29770895246E+03  0.78968144376E+02 0.  0.
          5    1    5    5  501    0  0.54034683052E+02  0.11867679727E+02  0.49434889293E+02  0.74340346206E+02  0.47000000000E+01 0. -1.
        -11    1    6    6    0    0 -0.25420175434E+02 -0.56382375897E+01  0.10117297125E+03  0.10446982891E+03  0.00000000000E+00 0.  1.
         12    1    6    6    0    0  0.47456842089E+01 -0.10170188488E+03  0.16424239392E+03  0.19323912355E+03  0.00000000000E+00 0. -1.
         -5    1    3    3    0  503  0.23717256292E+02  0.41687131658E+02  0.11524161028E+03  0.12491214486E+03  0.47000000000E+01 0.  1.
         11    1    4    4    0    0 -0.44253159114E+02  0.68932023362E+02  0.24559255072E+02  0.85516799204E+02  0.00000000000E+00 0. -1.
        -12    1    4    4    0    0 -0.12824289005E+02 -0.15146712274E+02 -0.15815907244E+02  0.25377710755E+02  0.00000000000E+00 0.  1.
</event>
<event>
12    1  0.8407180E-002  0.2063293E+03  0.7818608E-02  0.1144667E+00
         21   -1    0    0  501  502  0.00000000000E+00  0.00000000000E+00  0.38497931800E+03  0.38497931800E+03  0.00000000000E+00 0.  1.
         21   -1    0    0  502  503 -0.00000000000E+00 -0.00000000000E+00 -0.11321780024E+03  0.11321780024E+03  0.00000000000E+00 0. -1.
         -6    2    1    2    0  503  0.57090312343E+02 -0.96942834389E+02  0.17708829845E+03  0.27190451147E+03  0.17295832159E+03 0.  0.
        -24    2    3    3    0    0 -0.11785358092E+02 -0.55982167168E+02  0.23239941975E+02  0.98373416195E+02  0.76578955364E+02 0.  0.
          6    2    1    2  501    0 -0.57090312343E+02  0.96942834389E+02  0.94673219310E+02  0.22629260678E+03  0.17201194297E+03 0.  0.
         24    2    5    5    0    0 -0.70674088378E+02  0.11638362741E+03  0.11369576357E+03  0.19552881971E+03  0.82248508725E+02 0.  0.
          5    1    5    5  501    0  0.13583776035E+02 -0.19440793022E+02 -0.19022544258E+02  0.30763787067E+02  0.47000000000E+01 0. -1.
        -13    1    6    6    0    0  0.61080850764E+01  0.64956194114E+02  0.34389523524E+02  0.73751306330E+02  0.00000000000E+00 0.  1.
         14    1    6    6    0    0 -0.76782173454E+02  0.51427433297E+02  0.79306240043E+02  0.12177751338E+03  0.00000000000E+00 0. -1.
         -5    1    3    3    0  503  0.68875670435E+02 -0.40960667221E+02  0.15384835647E+03  0.17353109527E+03  0.47000000000E+01 0.  1.
         13    1    4    4    0    0 -0.84050531601E+01  0.10204104487E+02  0.28979833785E+02  0.31852777480E+02  0.00000000000E+00 0. -1.
        -14    1    4    4    0    0 -0.33803049320E+01 -0.66186271655E+02 -0.57398918098E+01  0.66520638715E+02  0.00000000000E+00 0.  1.
</event>
<event>
12    1  0.8407180E-002  0.2167879E+03  0.7818608E-02  0.1139295E+00
         21   -1    0    0  503  502  0.00000000000E+00  0.00000000000E+00  0.71478553122E+02  0.71478553122E+02  0.00000000000E+00 0. -1.
         21   -1    0    0  501  503 -0.00000000000E+00 -0.00000000000E+00 -0.62249733663E+03  0.62249733663E+03  0.00000000000E+00 0. -1.
          6    2    1    2  501    0 -0.13012811729E+03 -0.34634463034E+01 -0.22134193108E+03  0.29940799634E+03  0.15397264514E+03 0.  0.
         24    2    3    3    0    0 -0.14680786824E+03 -0.27964932088E+02 -0.16872516529E+03  0.23883447953E+03  0.78988224464E+02 0.  0.
         -6    2    1    2    0  502  0.13012811729E+03  0.34634463034E+01 -0.32967685243E+03  0.39456789341E+03  0.17335418400E+03 0.  0.
        -24    2    5    5    0    0  0.27525361813E+02 -0.13181444575E+02 -0.63914836108E+02  0.10916306313E+03  0.83066672343E+02 0.  0.
          5    1    3    3  501    0  0.16679750954E+02  0.24501485784E+02 -0.52616765784E+02  0.60573516813E+02  0.47000000000E+01 0. -1.
        -13    1    4    4    0    0 -0.19405318869E+02 -0.16332377100E+02  0.20596313680E+01  0.25447102458E+02  0.00000000000E+00 0.  1.
         14    1    4    4    0    0 -0.12740254938E+03 -0.11632554987E+02 -0.17078479666E+03  0.21338737707E+03  0.00000000000E+00 0. -1.
         -5    1    5    5    0  502  0.10260275548E+03  0.16644890878E+02 -0.26576201632E+03  0.28540483027E+03  0.47000000000E+01 0.  1.
         11    1    6    6    0    0  0.24287520191E+02  0.81888072300E+01  0.13373013763E+02  0.28909820096E+02  0.00000000000E+00 0. -1.
        -12    1    6    6    0    0  0.32378416225E+01 -0.21370251805E+02 -0.77287849871E+02  0.80253243039E+02  0.00000000000E+00 0.  1.
</event>
<event>
12    1  0.8407180E-002  0.2304022E+03  0.7818608E-02  0.1127210E+00
         21   -1    0    0  503  502  0.00000000000E+00  0.00000000000E+00  0.69719429334E+03  0.69719429334E+03  0.00000000000E+00 0. -1.
         21   -1    0    0  501  503 -0.00000000000E+00 -0.00000000000E+00 -0.83100937606E+02  0.83100937606E+02  0.00000000000E+00 0.  1.
          6    2    1    2  501    0  0.15328488743E+03 -0.11042967721E+02  0.43500542494E+03  0.49225491797E+03  0.17165949053E+03 0.  0.
         24    2    3    3    0    0  0.57617970449E+02  0.35631632369E+02  0.11525201052E+03  0.15521632474E+03  0.78864680252E+02 0.  0.
         -6    2    1    2    0  502 -0.15328488743E+03  0.11042967721E+02  0.17908793079E+03  0.28804031297E+03  0.16515608100E+03 0.  0.
        -24    2    5    5    0    0 -0.66804330564E+02 -0.18809888766E+02  0.16418555691E+03  0.19522732625E+03  0.79625255539E+02 0.  0.
          5    1    3    3  501    0  0.95666916982E+02 -0.46674600090E+02  0.31975341442E+03  0.33703859324E+03  0.47000000000E+01 0. -1.
        -13    1    4    4    0    0  0.83967101695E+01 -0.23411206928E+02  0.15588411165E+02  0.29352817823E+02  0.00000000000E+00 0.  1.
         14    1    4    4    0    0  0.49221260280E+02  0.59042839297E+02  0.99663599356E+02  0.12586350691E+03  0.00000000000E+00 0. -1.
         -5    1    5    5    0  502 -0.86480556867E+02  0.29852856487E+02  0.14902373880E+02  0.92812986719E+02  0.47000000000E+01 0.  1.
         13    1    6    6    0    0  0.80904365364E+01  0.16387178511E+02  0.56723637488E+02  0.59595015167E+02  0.00000000000E+00 0. -1.
        -14    1    6    6    0    0 -0.74894767101E+02 -0.35197067277E+02  0.10746191942E+03  0.13563231108E+03  0.00000000000E+00 0.  1.
</event>
<event>
12    1  0.8407180E-002  0.1883669E+03  0.7818608E-02  0.1160901E+00
         21   -1    0    0  501  502  0.00000000000E+00  0.00000000000E+00  0.14209525829E+03  0.14209525829E+03  0.00000000000E+00 0.  1.
         21   -1    0    0  502  503 -0.00000000000E+00 -0.00000000000E+00 -0.26889697578E+03  0.26889697578E+03  0.00000000000E+00 0.  1.
         -6    2    1    2    0  503 -0.60906493022E+02 -0.31820314855E+02 -0.12499603274E+03  0.22261664569E+03  0.17091526967E+03 0.  0.
        -24    2    3    3    0    0 -0.99190851834E+02 -0.54710778945E+02 -0.10235482891E+03  0.17237344131E+03  0.80024982637E+02 0.  0.
          6    2    1    2  501    0  0.60906493022E+02  0.31820314855E+02 -0.18056847409E+01  0.18837558838E+03  0.17538520026E+03 0.  0.
         24    2    5    5    0    0 -0.30618520341E+02  0.16076305888E+02 -0.27433488176E+02  0.91920540828E+02  0.80627837338E+02 0.  0.
          5    1    5    5  501    0  0.91525013363E+02  0.15744008967E+02  0.25627803435E+02  0.96455047552E+02  0.47000000000E+01 0. -1.
        -11    1    6    6    0    0  0.44267839653E+01  0.43190463509E+02 -0.14062950701E+02  0.45637475136E+02  0.00000000000E+00 0.  1.
         12    1    6    6    0    0 -0.35045304306E+02 -0.27114157622E+02 -0.13370537475E+02  0.46283065691E+02  0.00000000000E+00 0. -1.
         -5    1    3    3    0  503  0.38284358812E+02  0.22890464090E+02 -0.22641203831E+02  0.50243204384E+02  0.47000000000E+01 0.  1.
         11    1    4    4    0    0 -0.53556023792E+02  0.14434210486E+02 -0.34847675250E+02  0.65505378307E+02  0.00000000000E+00 0. -1.
        -12    1    4    4    0    0 -0.45634828042E+02 -0.69144989431E+02 -0.67507153659E+02  0.10686806300E+03  0.00000000000E+00 0.  1.
</event>
<event>
12    1  0.8407180E-002  0.1795233E+03  0.7818608E-02  0.1168827E+00
         21   -1    0    0  503  502  0.00000000000E+00  0.00000000000E+00  0.37075923615E+02  0.37075923615E+02  0.00000000000E+00 0. -1.
         21   -1    0    0  501  503 -0.00000000000E+00 -0.00000000000E+00 -0.95367990064E+03  0.95367990064E+03  0.00000000000E+00 0. -1.
          6    2    1    2  501    0  0.56699214738E+02  0.60904285271E+01 -0.61772451529E+03  0.64328236249E+03  0.17022551756E+03 0.  0.
         24    2    3    3    0    0  0.56479223718E+02 -0.50823586245E+02 -0.28636621761E+03  0.30703890171E+03  0.80587449063E+02 0.  0.
         -6    2    1    2    0  502 -0.56699214738E+02 -0.60904285271E+01 -0.29887946174E+03  0.34747346177E+03  0.16780041631E+03 0.  0.
        -24    2    5    5    0    0  0.26718411246E+02 -0.41992034835E+01 -0.20664492903E+03  0.22300910510E+03  0.79368932548E+02 0.  0.
          5    1    3    3  501    0  0.21999101988E+00  0.56914014772E+02 -0.33135829768E+03  0.33624346078E+03  0.47000000000E+01 0. -1.
        -11    1    4    4    0    0 -0.14886324730E+02  0.92033810532E+01 -0.44528928035E+02  0.47844856764E+02  0.00000000000E+00 0.  1.
         12    1    4    4    0    0  0.71365548449E+02 -0.60026967298E+02 -0.24183728957E+03  0.25919404495E+03  0.00000000000E+00 0. -1.
         -5    1    5    5    0  502 -0.83417625984E+02 -0.18912250436E+01 -0.92234532707E+02  0.12446435667E+03  0.47000000000E+01 0.  1.
         11    1    6    6    0    0  0.80687739519E+01 -0.33009343144E+02 -0.38300706806E+02  0.51202206883E+02  0.00000000000E+00 0. -1.
        -12    1    6    6    0    0  0.18649637294E+02  0.28810139660E+02 -0.16834422222E+03  0.17180689822E+03  0.00000000000E+00 0.  1.
</event>
<event>
12    1  0.8407180E-002  0.3381329E+03  0.7818608E-02  0.1067873E+00
         21   -1    0    0  501  502  0.00000000000E+00  0.00000000000E+00  0.16771549761E+04  0.16771549761E+04  0.00000000000E+00 0. -1.
         21   -1    0    0  502  503 -0.00000000000E+00 -0.00000000000E+00 -0.70639110708E+02  0.70639110708E+02  0.00000000000E+00 0. -1.
         -6    2    1    2    0  503  0.93780406414E+01 -0.29055760200E+03  0.62049663522E+03  0.70540845970E+03  0.16755104586E+03 0.  0.
        -24    2    3    3    0    0  0.29418078082E+02 -0.29129671402E+03  0.60976646044E+03  0.68218398903E+03  0.88547499669E+02 0.  0.
          6    2    1    2  501    0 -0.93780406414E+01  0.29055760200E+03  0.98601923016E+03  0.10423856271E+04  0.17269106984E+03 0.  0.
         24    2    5    5    0    0 -0.11833037608E+02  0.26727782131E+03  0.67401248325E+03  0.72946666743E+03  0.79065395554E+02 0.  0.
          5    1    5    5  501    0  0.24549969662E+01  0.23279780692E+02  0.31200674691E+03  0.31291895966E+03  0.47000000000E+01 0. -1.
        -13    1    6    6    0    0 -0.12492320090E+02  0.10422301521E+01  0.24932699928E+02  0.27906698670E+02  0.00000000000E+00 0.  1.
         14    1    6    6    0    0  0.65928248279E+00  0.26623559116E+03  0.64907978332E+03  0.70155996876E+03  0.00000000000E+00 0. -1.
         -5    1    3    3    0  503 -0.20040037440E+02  0.73911201162E+00  0.10730174785E+02  0.23224470674E+02  0.47000000000E+01 0.  1.
         13    1    4    4    0    0 -0.11551846353E+02 -0.17159444851E+03  0.42272077936E+03  0.45636712986E+03  0.00000000000E+00 0. -1.
        -14    1    4    4    0    0  0.40969924434E+02 -0.11970226550E+03  0.18704568108E+03  0.22581685917E+03  0.00000000000E+00 0.  1.
</event>
<event>
12    1  0.8407180E-002  0.2047476E+03  0.7818608E-02  0.1145839E+00
         21   -1    0    0  501  502  0.00000000000E+00  0.00000000000E+00  0.14255252713E+03  0.14255252713E+03  0.00000000000E+00 0. -1.
         21   -1    0    0  502  503 -0.00000000000E+00 -0.00000000000E+00 -0.43728684632E+03  0.43728684632E+03  0.00000000000E+00 0. -1.
         -6    2    1    2    0  503  0.74679063718E+02  0.83239952504E+02 -0.31340945189E+03  0.37424189447E+03  0.17124736141E+03 0.  0.
        -24    2    3    3    0    0  0.62568111952E+02  0.13077725945E+03 -0.21401444584E+03  0.26330079329E+03  0.50076586276E+02 0.  0.
          6    2    1    2  501    0 -0.74679063718E+02 -0.83239952504E+02  0.18675132696E+02  0.20559747898E+03  0.17151008872E+03 0.  0.
         24    2    5    5    0    0 -0.62906260260E+02 -0.36867971536E+02 -0.49381262662E+02  0.12227447814E+03  0.84829794280E+02 0.  0.
          5    1    5    5  501    0 -0.11772803459E+02 -0.46371980968E+02  0.68056395358E+02  0.83323000842E+02  0.47000000000E+01 0. -1.
        -13    1    6    6    0    0  0.15184256559E+02  0.73737606419E+01 -0.23370782768E+02  0.28829281649E+02  0.00000000000E+00 0.  1.
         14    1    6    6    0    0 -0.78090516818E+02 -0.44241732178E+02 -0.26010479894E+02  0.93445196492E+02  0.00000000000E+00 0. -1.
         -5    1    3    3    0  503  0.12110951766E+02 -0.47537306947E+02 -0.99395006044E+02  0.11094110118E+03  0.47000000000E+01 0.  1.
         11    1    4    4    0    0  0.34587287567E+02  0.31818311611E+02 -0.42743602254E+02  0.63527167013E+02  0.00000000000E+00 0. -1.
        -12    1    4    4    0    0  0.27980824385E+02  0.98958947840E+02 -0.17127084359E+03  0.19977362627E+03  0.00000000000E+00 0.  1.
</event>
<event>
12    1  0.8407180E-002  0.2209928E+03  0.7818608E-02  0.1133351E+00
         21   -1    0    0  503  502  0.00000000000E+00  0.00000000000E+00  0.15241850215E+03  0.15241850215E+03  0.00000000000E+00 0. -1.
         21   -1    0    0  501  503 -0.00000000000E+00 -0.00000000000E+00 -0.63170798132E+03  0.63170798132E+03  0.00000000000E+00 0.  1.
          6    2    1    2  501    0  0.96982467438E+02  0.99507778065E+02 -0.51587919116E+03  0.56122114668E+03  0.17184422806E+03 0.  0.
         24    2    3    3    0    0  0.10991223111E+03  0.19616504519E+02 -0.27513634098E+03  0.30719554897E+03  0.78762893430E+02 0.  0.
         -6    2    1    2    0  502 -0.96982467438E+02 -0.99507778065E+02  0.36589711990E+02  0.22290533679E+03  0.17041298443E+03 0.  0.
        -24    2    5    5    0    0  0.15033622509E+02 -0.37848022271E+02  0.31140968399E+02  0.94837742537E+02  0.79786934401E+02 0.  0.
          5    1    3    3  501    0 -0.12929763669E+02  0.79891273546E+02 -0.24074285019E+03  0.25402559771E+03  0.47000000000E+01 0. -1.
        -11    1    4    4    0    0  0.10414274870E+03  0.31469910722E+02 -0.17405993393E+03  0.20526307020E+03  0.00000000000E+00 0.  1.
         12    1    4    4    0    0  0.57694824066E+01 -0.11853406203E+02 -0.10107640705E+03  0.10193247877E+03  0.00000000000E+00 0. -1.
         -5    1    5    5    0  502 -0.11201608995E+03 -0.61659755794E+02  0.54487435912E+01  0.12806759426E+03  0.47000000000E+01 0.  1.
         11    1    6    6    0    0  0.36390665718E+02  0.41612536293E+01  0.30568593824E+02  0.47707813946E+02  0.00000000000E+00 0. -1.
        -12    1    6    6    0    0 -0.21357043208E+02 -0.42009275901E+02  0.57237457512E+00  0.47129928591E+02  0.00000000000E+00 0.  1.
</event>
<event>
12    1  0.8407180E-002  0.1788646E+03  0.7818608E-02  0.1169302E+00
         21   -1    0    0  503  502  0.00000000000E+00  0.00000000000E+00  0.12563865307E+03  0.12563865307E+03  0.00000000000E+00 0. -1.
         21   -1    0    0  501  503 -0.00000000000E+00 -0.00000000000E+00 -0.74158971979E+03  0.74158971979E+03  0.00000000000E+00 0. -1.
          6    2    1    2  501    0 -0.25603168298E+02 -0.41023578251E+02 -0.65969468430E+03  0.68309238341E+03  0.17052762706E+03 0.  0.
         24    2    3    3    0    0  0.38943192168E+02 -0.30986535377E+02 -0.22508125207E+03  0.24357230384E+03  0.78671211840E+02 0.  0.
         -6    2    1    2    0  502  0.25603168298E+02  0.41023578251E+02  0.43743617578E+02  0.18413598944E+03  0.17220366526E+03 0.  0.
        -24    2    5    5    0    0 -0.10918104082E+02  0.65913080072E+02 -0.18618445366E+02  0.10755656968E+03  0.82207238439E+02 0.  0.
          5    1    3    3  501    0 -0.64546360465E+02 -0.10037042874E+02 -0.43461343222E+03  0.43952007957E+03  0.47000000000E+01 0. -1.
        -11    1    4    4    0    0 -0.38664893815E+01 -0.29109260134E+02 -0.23852667021E+02  0.37831844915E+02  0.00000000000E+00 0.  1.
         12    1    4    4    0    0  0.42809681549E+02 -0.18772752432E+01 -0.20122858505E+03  0.20574045892E+03  0.00000000000E+00 0. -1.
         -5    1    5    5    0  502  0.36521272380E+02 -0.24889501821E+02  0.62362062944E+02  0.76579419766E+02  0.47000000000E+01 0.  1.
         13    1    6    6    0    0  0.88103468509E+01  0.70524782692E+02  0.10746189432E+02  0.71880788620E+02  0.00000000000E+00 0. -1.
        -14    1    6    6    0    0 -0.19728450933E+02 -0.46117026203E+01 -0.29364634798E+02  0.35675781058E+02  0.00000000000E+00 0.  1.
</event>
<event>
12    1  0.8407180E-002  0.1833443E+03  0.7818608E-02  0.1164782E+00
         21   -1    0    0  501  502  0.00000000000E+00  0.00000000000E+00  0.42379515961E+03  0.42379515961E+03  0.00000000000E+00 0.  1.
         21   -1    0    0  502  503 -0.00000000000E+00 -0.00000000000E+00 -0.80043071418E+02  0.80043071418E+02  0.00000000000E+00 0.  1.
         -6    2    1    2    0  503  0.28579124366E+02  0.55051010975E+02  0.14340852365E+03  0.23276843753E+03  0.17253336111E+03 0.  0.
        -24    2    3    3    0    0  0.44824732858E+02  0.98178617388E+01  0.15695095712E+03  0.18261422445E+03  0.81293941641E+02 0.  0.
          6    2    1    2  501    0 -0.28579124366E+02 -0.55051010975E+02  0.20034356454E+03  0.27106979350E+03  0.17173790769E+03 0.  0.
         24    2    5    5    0    0 -0.38559281330E+02 -0.19811825931E+01  0.19772297514E+03  0.21680223683E+03  0.80112993562E+02 0.  0.
          5    1    5    5  501    0  0.99801569639E+01 -0.53069828382E+02  0.26205894003E+01  0.54267556665E+02  0.47000000000E+01 0. -1.
        -11    1    6    6    0    0  0.20310059227E+01 -0.26456146054E+02  0.21015222553E+02  0.33848075691E+02  0.00000000000E+00 0.  1.
         12    1    6    6    0    0 -0.40590287252E+02  0.24474963460E+02  0.17670775258E+03  0.18295416114E+03  0.00000000000E+00 0. -1.
         -5    1    3    3    0  503 -0.16245608492E+02  0.45233149237E+02 -0.13542433465E+02  0.50154213076E+02  0.47000000000E+01 0.  1.
         11    1    4    4    0    0  0.15715844275E+02 -0.10912336022E+02 -0.24204540765E+01  0.19285368461E+02  0.00000000000E+00 0. -1.
        -12    1    4    4    0    0  0.29108888583E+02  0.20730197761E+02  0.15937141119E+03  0.16332885599E+03  0.00000000000E+00 0.  1.
</event>
<event>
12    1  0.8407180E-002  0.2078030E+03  0.7818608E-02  0.1143320E+00
         21   -1    0    0  501  502  0.00000000000E+00  0.00000000000E+00  0.14516826369E+03  0.14516826369E+03  0.00000000000E+00 0.  1.
         21   -1    0    0  502  503 -0.00000000000E+00 -0.00000000000E+00 -0.43415251889E+03  0.43415251889E+03  0.00000000000E+00 0. -1.
         -6    2    1    2    0  503  0.15600164657E+02  0.11571458248E+03 -0.30702939710E+03  0.37073574267E+03  0.17188574832E+03 0.  0.
        -24    2    3    3    0    0  0.35802826866E+02  0.13765233881E+03 -0.18876756622E+03  0.24868098711E+03  0.77324190910E+02 0.  0.
          6    2    1    2  501    0 -0.15600164657E+02 -0.11571458248E+03  0.18045141895E+02  0.20858503990E+03  0.17189782427E+03 0.  0.
         24    2    5    5    0    0  0.55605192619E+02 -0.50648992103E+02  0.22676889889E+02  0.11190372296E+03  0.79692810406E+02 0.  0.
          5    1    5    5  501    0 -0.71205357276E+02 -0.65065590378E+02 -0.46317479938E+01  0.96681316942E+02  0.47000000000E+01 0. -1.
        -11    1    6    6    0    0  0.62582234133E+01 -0.52760701410E+02 -0.80455545258E+01  0.53736281237E+02  0.00000000000E+00 0.  1.
         12    1    6    6    0    0  0.49346969206E+02  0.21117093064E+01  0.30722444415E+02  0.58167441725E+02  0.00000000000E+00 0. -1.
         -5    1    3    3    0  503 -0.20202662209E+02 -0.21937756330E+02 -0.11826183087E+03  0.12205475556E+03  0.47000000000E+01 0.  1.
         11    1    4    4    0    0 -0.47960001211E+01 -0.79190428964E+01 -0.20598251441E+02  0.22583197736E+02  0.00000000000E+00 0. -1.
        -12    1    4    4    0    0  0.40598826987E+02  0.14557138171E+03 -0.16816931478E+03  0.22609778937E+03  0.00000000000E+00 0.  1.
</event>
<event>
12    1  0.8407180E-002  0.2214635E+03  0.7818608E-02  0.1132904E+00
         21   -1    0    0  503  502  0.00000000000E+00  0.00000000000E+00  0.27980856319E+03  0.27980856319E+03  0.00000000000E+00 0.  1.
         21   -1    0    0  501  503 -0.00000000000E+00 -0.00000000000E+00 -0.17495370618E+03  0.17495370618E+03  0.00000000000E+00 0.  1.
          6    2    1    2  501    0  0.11658874168E+03  0.76663965878E+02  0.46183675090E+02  0.22565884513E+03  0.17122699609E+03 0.  0.
         24    2    3    3    0    0  0.46132634673E+01  0.72644016663E+02  0.11341123143E+02  0.10822477368E+03  0.79281430400E+02 0.  0.
         -6    2    1    2    0  502 -0.11658874168E+03 -0.76663965878E+02  0.58671181916E+02  0.22910342424E+03  0.17197608281E+03 0.  0.
        -24    2    5    5    0    0 -0.45582242208E+02 -0.20532686752E+02 -0.34322657152E+02  0.99247397928E+02  0.78566336121E+02 0.  0.
          5    1    3    3  501    0  0.11197547821E+03  0.40199492153E+01  0.34842551947E+02  0.11743407146E+03  0.47000000000E+01 0. -1.
        -13    1    4    4    0    0  0.34891688697E+02  0.88716401510E+01  0.10943288865E+02  0.37628333876E+02  0.00000000000E+00 0.  1.
         14    1    4    4    0    0 -0.30278425229E+02  0.63772376512E+02  0.39783427800E+00  0.70596439800E+02  0.00000000000E+00 0. -1.
         -5    1    5    5    0  502 -0.71006499472E+02 -0.56131279126E+02  0.92993839068E+02  0.12985602631E+03  0.47000000000E+01 0.  1.
         13    1    6    6    0    0  0.13818814470E+02 -0.20012623693E+01  0.14518993176E+02  0.20143630439E+02  0.00000000000E+00 0. -1.
        -14    1    6    6    0    0 -0.59401056678E+02 -0.18531424383E+02 -0.48841650328E+02  0.79103767489E+02  0.00000000000E+00 0.  1.
</event>
<event>
12    1  0.8407180E-002  0.2341513E+03  0.7818608E-02  0.1123964E+00
         21   -1    0    0  501  502  0.00000000000E+00  0.00000000000E+00  0.52678017132E+03  0.52678017132E+03  0.00000000000E+00 0. -1.
         21   -1    0    0  502  503 -0.00000000000E+00 -0.00000000000E+00 -0.10589630936E+03  0.10589630936E+03  0.00000000000E+00 0. -1.
         -6    2    1    2    0  503  0.11076835005E+03 -0.11338663938E+03  0.16371443539E+03  0.28570828702E+03  0.17233876974E+03 0.  0.
        -24    2    3    3    0    0  0.75516108823E+01 -0.44581428751E+02  0.16896378263E+02  0.93444187012E+02  0.80011235908E+02 0.  0.
          6    2    1    2  501    0 -0.11076835005E+03  0.11338663938E+03  0.25716942657E+03  0.34696819367E+03  0.17065947408E+03 0.  0.
         24    2    5    5    0    0 -0.58499962418E+02 -0.63834175507E+01  0.46641878310E+02  0.99136013639E+02  0.64726275696E+02 0.  0.
          5    1    5    5  501    0 -0.52268387629E+02  0.11977005693E+03  0.21052754826E+03  0.24783218003E+03  0.47000000000E+01 0. -1.
        -13    1    6    6    0    0  0.84944760691E+01 -0.76533702656E+00 -0.86072053577E+01  0.12117171639E+02  0.00000000000E+00 0.  1.
         14    1    6    6    0    0 -0.66994438487E+02 -0.56180805241E+01  0.55249083667E+02  0.87018842000E+02  0.00000000000E+00 0. -1.
         -5    1    3    3    0  503  0.10321673916E+03 -0.68805210627E+02  0.14681805712E+03  0.19226410001E+03  0.47000000000E+01 0.  1.
         13    1    4    4    0    0  0.35063590264E+02  0.33948373091E+01  0.14477394392E+02  0.38086417932E+02  0.00000000000E+00 0. -1.
        -14    1    4    4    0    0 -0.27511979381E+02 -0.47976266060E+02  0.24189838712E+01  0.55357769080E+02  0.00000000000E+00 0.  1.
</event>
<event>
12    1  0.8407180E-002  0.1810433E+03  0.7818608E-02  0.1166872E+00
         21   -1    0    0  503  502  0.00000000000E+00  0.00000000000E+00  0.21317612840E+04  0.21317612840E+04  0.00000000000E+00 0. -1.
         21   -1    0    0  501  503 -0.00000000000E+00 -0.00000000000E+00 -0.16653853472E+02  0.16653853472E+02  0.00000000000E+00 0. -1.
          6    2    1    2  501    0 -0.49403999361E+02  0.26258156027E+02  0.75770762046E+03  0.77903627643E+03  0.17218140428E+03 0.  0.
         24    2    3    3    0    0 -0.22374812853E+02  0.44773529790E+02  0.72943041051E+03  0.73550368414E+03  0.79947760364E+02 0.  0.
         -6    2    1    2    0  502  0.49403999361E+02 -0.26258156027E+02  0.13573998101E+04  0.13693788610E+04  0.17185451635E+03 0.  0.
        -24    2    5    5    0    0  0.19824208768E+02  0.18637401224E+02  0.11870925822E+04  0.11907249584E+04  0.88863804867E+02 0.  0.
          5    1    3    3  501    0 -0.27029186508E+02 -0.18515373763E+02  0.28277209952E+02  0.43532592290E+02  0.47000000000E+01 0. -1.
        -11    1    4    4    0    0  0.10408220235E+02 -0.13297250544E+02  0.49297433396E+02  0.52109354821E+02  0.00000000000E+00 0.  1.
         12    1    4    4    0    0 -0.32783033088E+02  0.58070780334E+02  0.68013297711E+03  0.68339432932E+03  0.00000000000E+00 0. -1.
         -5    1    5    5    0  502  0.29579790592E+02 -0.44895557251E+02  0.17030722782E+03  0.17865390262E+03  0.47000000000E+01 0.  1.
         13    1    6    6    0    0  0.43189464709E+02 -0.11367413005E+02  0.90229081343E+03  0.90339540620E+03  0.00000000000E+00 0. -1.
        -14    1    6    6    0    0 -0.23365255940E+02  0.30004814229E+02  0.28480176880E+03  0.28732955222E+03  0.00000000000E+00 0.  1.
</event>
<event>
12    1  0.8407180E-002  0.2114999E+03  0.7818608E-02  0.1140386E+00
         21   -1    0    0  501  502  0.00000000000E+00  0.00000000000E+00  0.47079596697E+03  0.47079596697E+03  0.00000000000E+00 0.  1.
         21   -1    0    0  502  503 -0.00000000000E+00 -0.00000000000E+00 -0.12162231680E+03  0.12162231680E+03  0.00000000000E+00 0.  1.
         -6    2    1    2    0  503  0.12097388862E+03  0.25453858494E+02  0.36030574187E+02  0.21454702026E+03  0.17160897700E+03 0.  0.
        -24    2    3    3    0    0 -0.46086859694E+01 -0.44563896328E+01  0.11499884954E+01  0.80739878298E+02  0.80476742473E+02 0.  0.
          6    2    1    2  501    0 -0.12097388862E+03 -0.25453858494E+02  0.31314307599E+03  0.37787126350E+03  0.17159698454E+03 0.  0.
         24    2    5    5    0    0 -0.48862105576E+02 -0.67962810703E+02  0.24012220512E+03  0.26669006971E+03  0.80364612177E+02 0.  0.
          5    1    5    5  501    0 -0.72111783041E+02  0.42508952209E+02  0.73020870865E+02  0.11118119379E+03  0.47000000000E+01 0. -1.
        -11    1    6    6    0    0 -0.69388416930E+02 -0.37736071583E+02  0.15210509333E+03  0.17139055668E+03  0.00000000000E+00 0.  1.
         12    1    6    6    0    0  0.20526311355E+02 -0.30226739120E+02  0.88017111796E+02  0.95299513034E+02  0.00000000000E+00 0. -1.
         -5    1    3    3    0  503  0.12558257459E+03  0.29910248127E+02  0.34880585692E+02  0.13380714196E+03  0.47000000000E+01 0.  1.
         13    1    4    4    0    0  0.20444800030E+02  0.30986880143E+02 -0.23286020190E+01  0.37196760298E+02  0.00000000000E+00 0. -1.
        -14    1    4    4    0    0 -0.25053486000E+02 -0.35443269776E+02  0.34785905143E+01  0.43543118000E+02  0.00000000000E+00 0.  1.
</event>
<event>
12    1  0.8407180E-002  0.2135917E+03  0.7818608E-02  0.1139282E+00
         21   -1    0    0  501  502  0.00000000000E+00  0.00000000000E+00  0.49902221513E+03  0.49902221513E+03  0.00000000000E+00 0.  1.
         21   -1    0    0  502  503 -0.00000000000E+00 -0.00000000000E+00 -0.36869402620E+03  0.36869402620E+03  0.00000000000E+00 0. -1.
         -6    2    1    2    0  503 -0.10719510155E+03 -0.48172366213E+02 -0.31196376515E+03  0.37655071056E+03  0.17509334709E+03 0.  0.
        -24    2    3    3    0    0 -0.74540183048E+02 -0.10134757829E+03 -0.21149449442E+03  0.25818639481E+03  0.78119925624E+02 0.  0.
          6    2    1    2  501    0  0.10719510155E+03  0.48172366213E+02  0.44229195409E+03  0.49116553077E+03  0.17835369159E+03 0.  0.
         24    2    5    5    0    0  0.11106345254E+03 -0.12443083590E+02  0.19819957567E+03  0.23958576987E+03  0.75022320059E+02 0.  0.
          5    1    5    5  501    0 -0.38683509953E+01  0.60615449802E+02  0.24409237842E+03  0.25157976091E+03  0.47000000000E+01 0. -1.
        -11    1    6    6    0    0  0.14972078910E+02 -0.23171603745E+02  0.91620581251E+02  0.95683944713E+02  0.00000000000E+00 0.  1.
         12    1    6    6    0    0  0.96091373633E+02  0.10728520155E+02  0.10657899442E+03  0.14390182515E+03  0.00000000000E+00 0. -1.
         -5    1    3    3    0  503 -0.32654918499E+02  0.53175212082E+02 -0.10046927073E+03  0.11836431575E+03  0.47000000000E+01 0.  1.
         11    1    4    4    0    0 -0.84377464459E+02 -0.55359227740E+02 -0.14947856015E+03  0.18035531750E+03  0.00000000000E+00 0. -1.
        -12    1    4    4    0    0  0.98372814112E+01 -0.45988350555E+02 -0.62015934266E+02  0.77831077310E+02  0.00000000000E+00 0.  1.
</event>
<event>
12    1  0.8407180E-002  0.1999969E+03  0.7818608E-02  0.1150103E+00
         21   -1    0    0  501  502  0.00000000000E+00  0.00000000000E+00  0.23903151043E+03  0.23903151043E+03  0.00000000000E+00 0. -1.
         21   -1    0    0  502  503 -0.00000000000E+00 -0.00000000000E+00 -0.17607006954E+03  0.17607006954E+03  0.00000000000E+00 0.  1.
         -6    2    1    2    0  503 -0.22525896554E+02  0.98985759738E+02 -0.18493141975E+02  0.19915342003E+03  0.17033640762E+03 0.  0.
        -24    2    3    3    0    0  0.38848739168E+02  0.92538869371E+02  0.12915317622E+02  0.12974888387E+03  0.81211455815E+02 0.  0.
          6    2    1    2  501    0  0.22525896554E+02 -0.98985759738E+02  0.81454582858E+02  0.21594815995E+03  0.17231703941E+03 0.  0.
         24    2    5    5    0    0  0.64698854417E+02 -0.11419970235E+03  0.77889516304E+02  0.17072845048E+03  0.76510870288E+02 0.  0.
          5    1    5    5  501    0 -0.42172957863E+02  0.15213942616E+02  0.35650665539E+01  0.45219709468E+02  0.47000000000E+01 0. -1.
        -13    1    6    6    0    0  0.62319395173E+01 -0.18111911389E+02 -0.15416258817E+02  0.24587383761E+02  0.00000000000E+00 0.  1.
         14    1    6    6    0    0  0.58466914899E+02 -0.96087790965E+02  0.93305775121E+02  0.14614106672E+03  0.00000000000E+00 0. -1.
         -5    1    3    3    0  503 -0.61374635722E+02  0.64468903673E+01 -0.31408459597E+02  0.69404536161E+02  0.47000000000E+01 0.  1.
         13    1    4    4    0    0  0.62277153182E+02  0.50144719243E+02  0.14296821756E+01  0.79968623019E+02  0.00000000000E+00 0. -1.
        -14    1    4    4    0    0 -0.23428414014E+02  0.42394150128E+02  0.11485635447E+02  0.49780260846E+02  0.00000000000E+00 0.  1.
</event>
<event>
12    1  0.8407180E-002  0.2313666E+03  0.7818608E-02  0.1125739E+00
         21   -1    0    0  501  502  0.00000000000E+00  0.00000000000E+00  0.22628082187E+03  0.22628082187E+03  0.00000000000E+00 0.  1.
         21   -1    0    0  502  503 -0.00000000000E+00 -0.00000000000E+00 -0.56162180416E+03  0.56162180416E+03  0.00000000000E+00 0.  1.
         -6    2    1    2    0  503 -0.22379501739E+01  0.15422806186E+03  0.13214195701E+03  0.26644326530E+03  0.17245061129E+03 0.  0.
        -24    2    3    3    0    0  0.22418543122E+02  0.17385566758E+02  0.81557900553E+02  0.11840729705E+03  0.81016960228E+02 0.  0.
          6    2    1    2  501    0  0.22379501739E+01 -0.15422806186E+03 -0.46748293931E+03  0.52145936072E+03  0.17201239158E+03 0.  0.
         24    2    5    5    0    0  0.54347413604E+02 -0.10449791821E+03 -0.39067475104E+03  0.41605503846E+03  0.81250093269E+02 0.  0.
          5    1    5    5  501    0 -0.52109463430E+02 -0.49730143646E+02 -0.76808188268E+02  0.10540432226E+03  0.47000000000E+01 0. -1.
        -11    1    6    6    0    0 -0.18704239752E+02 -0.40721382619E+02 -0.15088293998E+03  0.15739676351E+03  0.00000000000E+00 0.  1.
         12    1    6    6    0    0  0.73051653356E+02 -0.63776535595E+02 -0.23979181106E+03  0.25865827495E+03  0.00000000000E+00 0. -1.
         -5    1    3    3    0  503 -0.24656493296E+02  0.13684249510E+03  0.50584056461E+02  0.14803596825E+03  0.47000000000E+01 0.  1.
         13    1    4    4    0    0 -0.26548889643E+02  0.22582006608E+02  0.45788868243E+02  0.57544860923E+02  0.00000000000E+00 0. -1.
        -14    1    4    4    0    0  0.48967432766E+02 -0.51964398495E+01  0.35769032311E+02  0.60862436126E+02  0.00000000000E+00 0.  1.
</event>
<event>
12    1  0.8407180E-002  0.2078503E+03  0.7818608E-02  0.1143430E+00
         21   -1    0    0  501  502  0.00000000000E+00  0.00000000000E+00  0.25354546271E+03  0.25354546271E+03  0.00000000000E+00 0.  1.
         21   -1    0    0  502  503 -0.00000000000E+00 -0.00000000000E+00 -0.27174411327E+03  0.27174411327E+03  0.00000000000E+00 0.  1.
         -6    2    1    2    0  503  0.59730556275E+02 -0.10109160688E+03 -0.16997441464E+03  0.26792285025E+03  0.17059923716E+03 0.  0.
        -24    2    3    3    0    0 -0.68636253417E+01 -0.72200780205E+02 -0.32934144806E+02  0.11277263128E+03  0.79830736292E+02 0.  0.
          6    2    1    2  501    0 -0.59730556275E+02  0.10109160688E+03  0.15177576407E+03  0.25736672573E+03  0.17150654979E+03 0.  0.
         24    2    5    5    0    0 -0.55881011675E+02  0.85478956714E+02  0.18182709439E+03  0.22296111147E+03  0.78874745433E+02 0.  0.
          5    1    5    5  501    0 -0.38495445998E+01  0.15612650166E+02 -0.30051330317E+02  0.34405614261E+02  0.47000000000E+01 0. -1.
        -11    1    6    6    0    0  0.11273345193E+02 -0.54304019243E+01  0.38194572078E+02  0.40192075253E+02  0.00000000000E+00 0.  1.
         12    1    6    6    0    0 -0.67154356868E+02  0.90909358638E+02  0.14363252231E+03  0.18276903622E+03  0.00000000000E+00 0. -1.
         -5    1    3    3    0  503  0.66594181617E+02 -0.28890826675E+02 -0.13704026983E+03  0.15515021897E+03  0.47000000000E+01 0.  1.
         13    1    4    4    0    0  0.27841868841E+02 -0.34031640196E+01 -0.20449340841E+02  0.34712054488E+02  0.00000000000E+00 0. -1.
        -14    1    4    4    0    0 -0.34705494183E+02 -0.68797616185E+02 -0.12484803965E+02  0.78060576793E+02  0.00000000000E+00 0.  1.
</event>
<event>
12    1  0.8407180E-002  0.1739670E+03  0.7818608E-02  0.1176456E+00
         21   -1    0    0  503  502  0.00000000000E+00  0.00000000000E+00  0.36818981918E+03  0.36818981918E+03  0.00000000000E+00 0. -1.
         21   -1    0    0  501  503 -0.00000000000E+00 -0.00000000000E+00 -0.20205086130E+03  0.20205086130E+03  0.00000000000E+00 0. -1.
          6    2    1    2  501    0  0.43215518696E+01  0.21980473995E+02 -0.13985337740E+03  0.22321172232E+03  0.17251866207E+03 0.  0.
         24    2    3    3    0    0 -0.61339125981E+02  0.21795934170E+01 -0.10744303890E+03  0.14721225173E+03  0.79750871148E+02 0.  0.
         -6    2    1    2    0  502 -0.43215518696E+01 -0.21980473995E+02  0.30599233527E+03  0.34702895817E+03  0.16216032657E+03 0.  0.
        -24    2    5    5    0    0  0.38575842408E+02  0.30748145955E+02  0.20460062598E+03  0.22486978941E+03  0.79192562411E+02 0.  0.
          5    1    3    3  501    0  0.65660677850E+02  0.19800880578E+02 -0.32410338501E+02  0.75999470585E+02  0.47000000000E+01 0. -1.
        -11    1    4    4    0    0 -0.27943129119E+01  0.12357070060E+02  0.96355118554E+01  0.15916923504E+02  0.00000000000E+00 0.  1.
         12    1    4    4    0    0 -0.58544813069E+02 -0.10177476643E+02 -0.11707855075E+03  0.13129532823E+03  0.00000000000E+00 0. -1.
         -5    1    5    5    0  502 -0.42897394278E+02 -0.52728619950E+02  0.10139170929E+03  0.12215916876E+03  0.47000000000E+01 0.  1.
         11    1    6    6    0    0 -0.22816381220E+02  0.99004109385E+01  0.88094329041E+02  0.91538058740E+02  0.00000000000E+00 0. -1.
        -12    1    6    6    0    0  0.61392223628E+02  0.20847735017E+02  0.11650629694E+03  0.13333173067E+03  0.00000000000E+00 0.  1.
</event>
<event>
12    1  0.8407180E-002  0.2067199E+03  0.7818608E-02  0.1144692E+00
         21   -1    0    0  503  502  0.00000000000E+00  0.00000000000E+00  0.12165921717E+03  0.12165921717E+03  0.00000000000E+00 0.  1.
         21   -1    0    0  501  503 -0.00000000000E+00 -0.00000000000E+00 -0.72306270660E+03  0.72306270660E+03  0.00000000000E+00 0.  1.
          6    2    1    2  501    0 -0.35570146571E+02  0.10405210272E+03 -0.60439980393E+03  0.63798029353E+03  0.17212686175E+03 0.  0.
         24    2    3    3    0    0  0.42527241184E+02  0.81974758084E+02 -0.40709654359E+03  0.42458564116E+03  0.77568960727E+02 0.  0.
         -6    2    1    2    0  502  0.35570146571E+02 -0.10405210272E+03  0.29963144997E+01  0.20674163025E+03  0.17504584648E+03 0.  0.
        -24    2    5    5    0    0  0.14198731920E+02 -0.45265226799E+02  0.67756837983E+02  0.11658260659E+03  0.82158203009E+02 0.  0.
          5    1    3    3  501    0 -0.78097387755E+02  0.22077344631E+02 -0.19730326034E+03  0.21339465237E+03  0.47000000000E+01 0. -1.
        -13    1    4    4    0    0 -0.19104776416E+02  0.35484161281E+02 -0.18842948429E+03  0.19269091503E+03  0.00000000000E+00 0.  1.
         14    1    4    4    0    0  0.61632017600E+02  0.46490596804E+02 -0.21866705930E+03  0.23189472613E+03  0.00000000000E+00 0. -1.
         -5    1    5    5    0  502  0.21371414651E+02 -0.58786875916E+02 -0.64760523483E+02  0.90159023653E+02  0.47000000000E+01 0.  1.
         11    1    6    6    0    0 -0.93841190735E+01  0.10638999357E+02 -0.10435100599E+02  0.17610829697E+02  0.00000000000E+00 0. -1.
        -12    1    6    6    0    0  0.23582850994E+02 -0.55904226157E+02  0.78191938582E+02  0.98971776898E+02  0.00000000000E+00 0.  1.
</event>
<event>
12    1  0.8407180E-002  0.2010512E+03  0.7818608E-02  0.1148919E+00
         21   -1    0    0  501  502  0.00000000000E+00  0.00000000000E+00  0.44902081813E+02  0.44902081813E+02  0.00000000000E+00 0.  1.
         21   -1    0    0  502  503 -0.00000000000E+00 -0.00000000000E+00 -0.19162837267E+04  0.19162837267E+04  0.00000000000E+00 0.  1.
         -6    2    1    2    0  503 -0.61776565966E+02  0.84377529884E+02 -0.16505334149E+04  0.16627333393E+04  0.17171398307E+03 0.  0.
        -24    2    3    3    0    0  0.29990410120E+02  0.10763996849E+02 -0.87933666459E+03  0.88260088390E+03  0.68819054357E+02 0.  0.
          6    2    1    2  501    0  0.61776565966E+02 -0.84377529884E+02 -0.22084822995E+03  0.29845246926E+03  0.17135934198E+03 0.  0.
         24    2    5    5    0    0  0.42251988206E+02 -0.11964748574E+03 -0.12864922800E+03  0.19771556002E+03  0.80250030887E+02 0.  0.
          5    1    5    5  501    0  0.19524577760E+02  0.35269955858E+02 -0.92199001954E+02  0.10073690924E+03  0.47000000000E+01 0. -1.
        -13    1    6    6    0    0  0.66782854613E+01  0.10604726899E+02 -0.21928622521E+01  0.12722750260E+02  0.00000000000E+00 0.  1.
         14    1    6    6    0    0  0.35573702745E+02 -0.13025221264E+03 -0.12645636575E+03  0.18499280976E+03  0.00000000000E+00 0. -1.
         -5    1    3    3    0  503 -0.91766976086E+02  0.73613533036E+02 -0.77119675035E+03  0.78013245535E+03  0.47000000000E+01 0.  1.
         11    1    4    4    0    0  0.15875882971E+02  0.37077995474E+01 -0.41095698395E+02  0.44211399708E+02  0.00000000000E+00 0. -1.
        -12    1    4    4    0    0  0.14114527150E+02  0.70561973012E+01 -0.83824096620E+03  0.83838948419E+03  0.00000000000E+00 0.  1.
</event>
<event>
12    1  0.8407180E-002  0.1965550E+03  0.7818608E-02  0.1153044E+00
         21   -1    0    0  501  502  0.00000000000E+00  0.00000000000E+00  0.11280599045E+04  0.11280599045E+04  0.00000000000E+00 0. -1.
         21   -1    0    0  502  503 -0.00000000000E+00 -0.00000000000E+00 -0.22829218341E+03  0.22829218341E+03  0.00000000000E+00 0. -1.
         -6    2    1    2    0  503  0.27281668523E+01 -0.94649115930E+02 -0.17611547966E+03  0.26266176818E+03  0.17031924215E+03 0.  0.
        -24    2    3    3    0    0  0.50507547597E+02 -0.81272128910E+01 -0.67875847409E+02  0.11600974153E+03  0.78956098655E+02 0.  0.
          6    2    1    2  501    0 -0.27281668523E+01  0.94649115930E+02  0.10758832008E+04  0.10936903198E+04  0.17224388468E+03 0.  0.
         24    2    5    5    0    0  0.53738966862E+02  0.81712952259E+02  0.53138071878E+03  0.54609473504E+03  0.79303897882E+02 0.  0.
          5    1    5    5  501    0 -0.56467133714E+02  0.12936163671E+02  0.54450248200E+03  0.54759558474E+03  0.47000000000E+01 0. -1.
        -13    1    6    6    0    0  0.42299630639E+02  0.25707239428E+02  0.39682931744E+03  0.39990452372E+03  0.00000000000E+00 0.  1.
         14    1    6    6    0    0  0.11439336223E+02  0.56005712831E+02  0.13455140134E+03  0.14619021132E+03  0.00000000000E+00 0. -1.
         -5    1    3    3    0  503 -0.47779380744E+02 -0.86521903039E+02 -0.10823963225E+03  0.14665202665E+03  0.47000000000E+01 0.  1.
         13    1    4    4    0    0  0.31388261237E+02 -0.41315403075E+02 -0.54975187034E+02  0.75594025321E+02  0.00000000000E+00 0. -1.
        -14    1    4    4    0    0  0.19119286360E+02  0.33188190184E+02 -0.12900660374E+02  0.40415716209E+02  0.00000000000E+00 0.  1.
</event>
<event>
12    1  0.8407180E-002  0.2420859E+03  0.7818608E-02  0.1118487E+00
         21   -1    0    0  503  502  0.00000000000E+00  0.00000000000E+00  0.25150951571E+03  0.25150951571E+03  0.00000000000E+00 0. -1.
         21   -1    0    0  501  503 -0.00000000000E+00 -0.00000000000E+00 -0.25854491028E+03  0.25854491028E+03  0.00000000000E+00 0. -1.
          6    2    1    2  501    0 -0.15973839764E+03  0.56252233009E+02 -0.84341900824E+02  0.25592477306E+03  0.17234634847E+03 0.  0.
         24    2    3    3    0    0 -0.17561014415E+02  0.50006079773E+02 -0.16742114328E+02  0.98301031619E+02  0.81078956479E+02 0.  0.
         -6    2    1    2    0  502  0.15973839764E+03 -0.56252233009E+02  0.77306506257E+02  0.25412965293E+03  0.17298819379E+03 0.  0.
        -24    2    5    5    0    0  0.10305537562E+03  0.23885888306E+02  0.79920266895E+01  0.13387296684E+03  0.81652634094E+02 0.  0.
          5    1    3    3  501    0 -0.14217738322E+03  0.62461532363E+01 -0.67599786496E+02  0.15762374144E+03  0.47000000000E+01 0. -1.
        -11    1    4    4    0    0 -0.28951508696E+02 -0.11981780055E+02  0.47936838145E+01  0.31697512735E+02  0.00000000000E+00 0.  1.
         12    1    4    4    0    0  0.11390494282E+02  0.61987859828E+02 -0.21535798143E+02  0.66603518884E+02  0.00000000000E+00 0. -1.
         -5    1    5    5    0  502  0.56683022019E+02 -0.80138121315E+02  0.69314479568E+02  0.12025668610E+03  0.47000000000E+01 0.  1.
         13    1    6    6    0    0  0.66159002083E+02 -0.19651221321E+02  0.26424414092E+02  0.73901513625E+02  0.00000000000E+00 0. -1.
        -14    1    6    6    0    0  0.36896373537E+02  0.43537109626E+02 -0.18432387402E+02  0.59971453210E+02  0.00000000000E+00 0.  1.
</event>
<event>
12    1  0.8407180E-002  0.1746729E+03  0.7818608E-02  0.1173093E+00
         21   -1    0    0  503  502  0.00000000000E+00  0.00000000000E+00  0.39788872469E+03  0.39788872469E+03  0.00000000000E+00 0.  1.
         21   -1    0    0  501  503 -0.00000000000E+00 -0.00000000000E+00 -0.13208591599E+03  0.13208591599E+03  0.00000000000E+00 0.  1.
          6    2    1    2  501    0 -0.11017256825E+01  0.29805129035E+02 -0.38834077305E+02  0.17881332865E+03  0.17197837488E+03 0.  0.
         24    2    3    3    0    0  0.10275507706E+02  0.40547969382E+02  0.39989832080E+02  0.98313957538E+02  0.79477818902E+02 0.  0.
         -6    2    1    2    0  502  0.11017256825E+01 -0.29805129035E+02  0.30463688600E+03  0.35116131204E+03  0.17210774312E+03 0.  0.
        -24    2    5    5    0    0  0.58333772365E+02  0.15712234536E+02  0.16977435778E+03  0.19767734196E+03  0.81260664839E+02 0.  0.
          5    1    3    3  501    0 -0.11377233388E+02 -0.10742840347E+02 -0.78823909385E+02  0.80499371110E+02  0.47000000000E+01 0. -1.
        -13    1    4    4    0    0 -0.24115351693E+02  0.37009915385E+01 -0.10870162329E+02  0.26709697765E+02  0.00000000000E+00 0.  1.
         14    1    4    4    0    0  0.34390859398E+02  0.36846977843E+02  0.50859994409E+02  0.71604259773E+02  0.00000000000E+00 0. -1.
         -5    1    5    5    0  502 -0.57232046683E+02 -0.45517363571E+02  0.13486252822E+03  0.15348397008E+03  0.47000000000E+01 0.  1.
         11    1    6    6    0    0  0.70568044744E+02  0.18216486924E+01  0.16357425301E+03  0.17815640205E+03  0.00000000000E+00 0. -1.
        -12    1    6    6    0    0 -0.12234272379E+02  0.13890585843E+02  0.62001047728E+01  0.19520939908E+02  0.00000000000E+00 0.  1.
</event>
<event>
12    1  0.8407180E-002  0.1749935E+03  0.7818608E-02  0.1173022E+00
         21   -1    0    0  503  502  0.00000000000E+00  0.00000000000E+00  0.17672728766E+04  0.17672728766E+04  0.00000000000E+00 0.  1.
         21   -1    0    0  501  503 -0.00000000000E+00 -0.00000000000E+00 -0.19498877091E+02  0.19498877091E+02  0.00000000000E+00 0. -1.
          6    2    1    2  501    0 -0.14926092547E+02 -0.25437217260E+02  0.57070724074E+03  0.59693339820E+03  0.17249025189E+03 0.  0.
         24    2    3    3    0    0  0.15310770489E+02  0.22874734482E+02  0.49391677330E+03  0.50118801473E+03  0.80485862041E+02 0.  0.
         -6    2    1    2    0  502  0.14926092547E+02  0.25437217260E+02  0.11770667587E+04  0.11898383554E+04  0.17134560784E+03 0.  0.
        -24    2    5    5    0    0  0.73134635672E+02  0.37065411845E+02  0.83298014316E+03  0.84063764179E+03  0.78058991873E+02 0.  0.
          5    1    3    3  501    0 -0.30236863037E+02 -0.48311951742E+02  0.76790467436E+02  0.95745383474E+02  0.47000000000E+01 0. -1.
        -13    1    4    4    0    0 -0.29587993336E+02 -0.74943924741E+01  0.15712563976E+03  0.16006274375E+03  0.00000000000E+00 0.  1.
         14    1    4    4    0    0  0.44898763825E+02  0.30369126957E+02  0.33679113354E+03  0.34112527098E+03  0.00000000000E+00 0. -1.
         -5    1    5    5    0  502 -0.58208543125E+02 -0.11628194585E+02  0.34408661557E+03  0.34920071365E+03  0.47000000000E+01 0.  1.
         11    1    6    6    0    0  0.49920412809E+02  0.48025564929E+02  0.33975158716E+03  0.34674146489E+03  0.00000000000E+00 0. -1.
        -12    1    6    6    0    0  0.23214222863E+02 -0.10960153084E+02  0.49322855600E+03  0.49389617690E+03  0.00000000000E+00 0.  1.
</event>
<event>
12    1  0.8407180E-002  0.1763332E+03  0.7818608E-02  0.1171434E+00
         21   -1    0    0  501  502  0.00000000000E+00  0.00000000000E+00  0.26817672308E+02  0.26817672308E+02  0.00000000000E+00 0.  1.
         21   -1    0    0  502  503 -0.00000000000E+00 -0.00000000000E+00 -0.11983752456E+04  0.11983752456E+04  0.00000000000E+00 0. -1.
         -6    2    1    2    0  503  0.40871394509E+02 -0.11755264516E+02 -0.47387069887E+03  0.50556776846E+03  0.17098734493E+03 0.  0.
        -24    2    3    3    0    0 -0.14122301718E+02  0.47836233977E+02 -0.23281792145E+03  0.25119798877E+03  0.80053109423E+02 0.  0.
          6    2    1    2  501    0 -0.40871394509E+02  0.11755264516E+02 -0.69768687439E+03  0.71962514942E+03  0.17112779973E+03 0.  0.
         24    2    5    5    0    0 -0.43618147958E+02 -0.52793908099E+02 -0.52429805022E+03  0.53453080945E+03  0.78390058194E+02 0.  0.
          5    1    5    5  501    0  0.27467534485E+01  0.64549172615E+02 -0.17338882417E+03  0.18509433997E+03  0.47000000000E+01 0. -1.
        -11    1    6    6    0    0  0.18327928117E+02 -0.11033752948E+02 -0.49988395083E+02  0.54373672822E+02  0.00000000000E+00 0.  1.
         12    1    6    6    0    0 -0.61946076075E+02 -0.41760155152E+02 -0.47430965514E+03  0.48015713663E+03  0.00000000000E+00 0. -1.
         -5    1    3    3    0  503  0.54993696227E+02 -0.59591498493E+02 -0.24105277742E+03  0.25436977969E+03  0.47000000000E+01 0.  1.
         13    1    4    4    0    0  0.10346410972E+02 -0.17179288559E+02 -0.92213354098E+02  0.94368844697E+02  0.00000000000E+00 0. -1.
        -14    1    4    4    0    0 -0.24468712690E+02  0.65015522536E+02 -0.14060456735E+03  0.15682914407E+03  0.00000000000E+00 0.  1.
</event>
<event>
12    1  0.8407180E-002  0.2041351E+03  0.7818608E-02  0.1146579E+00
         21   -1    0    0  503  502  0.00000000000E+00  0.00000000000E+00  0.82318145984E+03  0.82318145984E+03  0.00000000000E+00 0. -1.
         21   -1    0    0  501  503 -0.00000000000E+00 -0.00000000000E+00 -0.54736421859E+02  0.54736421859E+02  0.00000000000E+00 0. -1.
          6    2    1    2  501    0  0.66856771565E+02 -0.82352331747E+02  0.50824040124E+03  0.54719505545E+03  0.17280737485E+03 0.  0.
         24    2    3    3    0    0  0.93002795448E+02 -0.94571154002E+02  0.30485585221E+03  0.34171931730E+03  0.79004924263E+02 0.  0.
         -6    2    1    2    0  502 -0.66856771565E+02  0.82352331747E+02  0.26020463674E+03  0.33072282625E+03  0.17441158326E+03 0.  0.
        -24    2    5    5    0    0  0.14455231969E+02  0.40163105048E+02  0.20396890825E+03  0.22313044768E+03  0.79761221215E+02 0.  0.
          5    1    3    3  501    0 -0.26146023883E+02  0.12218822255E+02  0.20338454903E+03  0.20547573815E+03  0.47000000000E+01 0. -1.
        -13    1    4    4    0    0  0.71071501629E+02 -0.29511222284E+02  0.10345810150E+03  0.12894048763E+03  0.00000000000E+00 0.  1.
         14    1    4    4    0    0  0.21931293819E+02 -0.65059931718E+02  0.20139775071E+03  0.21277882967E+03  0.00000000000E+00 0. -1.
         -5    1    5    5    0  502 -0.81312003534E+02  0.42189226699E+02  0.56235728481E+02  0.10759237857E+03  0.47000000000E+01 0.  1.
         13    1    6    6    0    0 -0.25350529080E+02  0.78115980182E+01  0.13267818108E+03  0.13530399152E+03  0.00000000000E+00 0. -1.
        -14    1    6    6    0    0  0.39805761049E+02  0.32351507030E+02  0.71290727177E+02  0.87826456158E+02  0.00000000000E+00 0.  1.
</event>
