<event>
12    1  0.1345781E-002  0.2235368E+03  0.7818608E-02  0.1131273E+00
          1   -1    0    0  502    0  0.00000000000E+00  0.00000000000E+00  0.57988921884E+03  0.57988921884E+03  0.00000000000E+00 0.  1.
         -1   -1    0    0    0  501 -0.00000000000E+00 -0.00000000000E+00 -0.86170203734E+02  0.86170203734E+02  0.00000000000E+00 0. -1.
          6    2    1    2  502    0 -0.14188699110E+03  0.78904106222E+01  0.24630940007E+03  0.33217893085E+03  0.17169841211E+03 0.  0.
         24    2    3    3    0    0 -0.14169377794E+03 -0.44729457514E+02  0.16826196780E+03  0.23793255407E+03  0.78879397827E+02 0.  0.
         -6    2    1    2    0  501  0.14188699110E+03 -0.78904106222E+01  0.24740961504E+03  0.33388049172E+03  0.17340844361E+03 0.  0.
        -24    2    5    5    0    0  0.33524360366E+02  0.52205501463E+02  0.10560411140E+03  0.14550621202E+03  0.78552735616E+02 0.  0.
          5    1    3    3  502    0 -0.19321315869E+00  0.52619868136E+02  0.78047432262E+02  0.94246376783E+02  0.47000000000E+01 0. -1.
        -11    1    4    4    0    0 -0.64361854190E+02 -0.12193114988E+02  0.13031294737E+03  0.14585124127E+03  0.00000000000E+00 0.  1.
         12    1    4    4    0    0 -0.77331923746E+02 -0.32536342526E+02  0.37949020438E+02  0.92081312802E+02  0.00000000000E+00 0. -1.
         -5    1    5    5    0  501  0.10836263073E+03 -0.60095912085E+02  0.14180550364E+03  0.18837427970E+03  0.47000000000E+01 0.  1.
         13    1    6    6    0    0  0.12189534590E+02  0.60291213935E+02  0.33845482560E+02  0.70207776784E+02  0.00000000000E+00 0. -1.
        -14    1    6    6    0    0  0.21334825777E+02 -0.80857124718E+01  0.71758628836E+02  0.75298435239E+02  0.00000000000E+00 0.  1.
</event>
<event>
12    1  0.1345781E-002  0.2025507E+03  0.7818608E-02  0.1147605E+00
         -2   -1    0    0    0  501 -0.00000000000E+00  0.00000000000E+00  0.43765400038E+02  0.43765400038E+02  0.00000000000E+00 0.  1.
          2   -1    0    0  502    0  0.00000000000E+00 -0.00000000000E+00 -0.95886078415E+03  0.95886078415E+03  0.00000000000E+00 0. -1.
          6    2    1    2  502    0 -0.75992949902E+02 -0.55966335653E+02 -0.39855476490E+03  0.45007676996E+03  0.18659056534E+03 0.  0.
         24    2    3    3    0    0 -0.47685468409E+02 -0.14703822623E+02 -0.38702794954E+03  0.39851257732E+03  0.80817908062E+02 0.  0.
         -6    2    1    2    0  501  0.75992949902E+02  0.55966335653E+02 -0.51654061922E+03  0.55254941423E+03  0.17201594317E+03 0.  0.
        -24    2    5    5    0    0  0.49151481281E+02 -0.32534338483E+02 -0.31846023756E+03  0.33389269388E+03  0.81197640502E+02 0.  0.
          5    1    3    3  502    0 -0.28307481493E+02 -0.41262513030E+02 -0.11526815361E+02  0.51564192638E+02  0.47000000000E+01 0. -1.
        -11    1    4    4    0    0 -0.34799891637E+02  0.12740820420E+02 -0.63166426514E+02  0.73234953414E+02  0.00000000000E+00 0.  1.
         12    1    4    4    0    0 -0.12885576772E+02 -0.27444643043E+02 -0.32386152302E+03  0.32527762391E+03  0.00000000000E+00 0. -1.
         -5    1    5    5    0  501  0.26841468620E+02  0.88500674136E+02 -0.19808038165E+03  0.21865672035E+03  0.47000000000E+01 0.  1.
         13    1    6    6    0    0  0.59790491659E+02 -0.45677648097E+02 -0.19051448178E+03  0.20483436772E+03  0.00000000000E+00 0. -1.
        -14    1    6    6    0    0 -0.10639010378E+02  0.13143309613E+02 -0.12794575578E+03  0.12905832616E+03  0.00000000000E+00 0.  1.
</event>
<event>
12    1  0.1345781E-002  0.1974084E+03  0.7818608E-02  0.1151944E+00
          2   -1    0    0  502    0  0.00000000000E+00  0.00000000000E+00  0.83206652246E+03  0.83206652246E+03  0.00000000000E+00 0. -1.
         -2   -1    0    0    0  501 -0.00000000000E+00 -0.00000000000E+00 -0.47515151777E+02  0.47515151777E+02  0.00000000000E+00 0.  1.
          6    2    1    2  502    0 -0.10209827048E+03 -0.54262771321E+01  0.44394192806E+03  0.48566202025E+03  0.16831417378E+03 0.  0.
         24    2    3    3    0    0 -0.34476871300E+02 -0.31180045877E+02  0.35949676995E+03  0.37435620296E+03  0.93508230527E+02 0.  0.
         -6    2    1    2    0  501  0.10209827048E+03  0.54262771321E+01  0.34060944262E+03  0.39391965399E+03  0.16942372939E+03 0.  0.
        -24    2    5    5    0    0  0.23068159526E+02 -0.46630226843E+01  0.63844668879E+02  0.10587732656E+03  0.81117092962E+02 0.  0.
          5    1    3    3  502    0 -0.67621399184E+02  0.25753768744E+02  0.84445158112E+02  0.11130581728E+03  0.47000000000E+01 0. -1.
        -11    1    4    4    0    0 -0.45255544005E+02 -0.10152499781E+01  0.71777836212E+02  0.84859606215E+02  0.00000000000E+00 0.  1.
         12    1    4    4    0    0  0.10778672705E+02 -0.30164795898E+02  0.28771893374E+03  0.28949659675E+03  0.00000000000E+00 0. -1.
         -5    1    5    5    0  501  0.79030110958E+02  0.10089299816E+02  0.27676477374E+03  0.28804232743E+03  0.47000000000E+01 0.  1.
         11    1    6    6    0    0 -0.21253010153E+02 -0.10556623107E+02  0.55545546889E+02  0.60402322068E+02  0.00000000000E+00 0. -1.
        -12    1    6    6    0    0  0.44321169680E+02  0.58936004229E+01  0.82991219906E+01  0.45475004492E+02  0.00000000000E+00 0.  1.
</event>
<event>
12    1  0.1345781E-002  0.1892138E+03  0.7818608E-02  0.1159172E+00
         -2   -1    0    0    0  501 -0.00000000000E+00  0.00000000000E+00  0.59156688738E+02  0.59156688738E+02  0.00000000000E+00 0. -1.
          2   -1    0    0  502    0  0.00000000000E+00 -0.00000000000E+00 -0.75289521588E+03  0.75289521588E+03  0.00000000000E+00 0.  1.
          6    2    1    2  502    0 -0.59780485720E+02 -0.40543118563E+01 -0.17751548110E+03  0.26448346034E+03  0.18668050472E+03 0.  0.
         24    2    3    3    0    0 -0.87100220497E+02  0.10931828798E+01 -0.19729222581E+03  0.23004403175E+03  0.80052424813E+02 0.  0.
         -6    2    1    2    0  501  0.59780485720E+02  0.40543118563E+01 -0.51622304604E+03  0.54756844429E+03  0.17249586660E+03 0.  0.
        -24    2    5    5    0    0  0.59268717567E+02  0.43887108872E+02 -0.19545934306E+03  0.22430638839E+03  0.81670936564E+02 0.  0.
          5    1    3    3  502    0  0.27319734776E+02 -0.51474947360E+01  0.19776744708E+02  0.34439428589E+02  0.47000000000E+01 0. -1.
        -11    1    4    4    0    0 -0.64947138649E+01 -0.19957687603E+02 -0.98981469675E+02  0.10118212264E+03  0.00000000000E+00 0.  1.
         12    1    4    4    0    0 -0.80605506632E+02  0.21050870483E+02 -0.98310756136E+02  0.12886190911E+03  0.00000000000E+00 0. -1.
         -5    1    5    5    0  501  0.51176815340E+00 -0.39832797016E+02 -0.32076370299E+03  0.32326205589E+03  0.47000000000E+01 0.  1.
         11    1    6    6    0    0  0.30197467449E+02  0.52201655588E+01 -0.93907402455E+01  0.32051882490E+02  0.00000000000E+00 0. -1.
        -12    1    6    6    0    0  0.29071250118E+02  0.38666943313E+02 -0.18606860281E+03  0.19225450590E+03  0.00000000000E+00 0.  1.
</event>
<event>
12    1  0.1345781E-002  0.2040202E+03  0.7818608E-02  0.1146391E+00
         -1   -1    0    0    0  501 -0.00000000000E+00  0.00000000000E+00  0.13759240396E+02  0.13759240396E+02  0.00000000000E+00 0.  1.
          1   -1    0    0  502    0  0.00000000000E+00 -0.00000000000E+00 -0.30262731618E+04  0.30262731618E+04  0.00000000000E+00 0. -1.
          6    2    1    2  502    0  0.90923066583E+02 -0.56899294778E+02 -0.14673493263E+04  0.14812159341E+04  0.17141197183E+03 0.  0.
         24    2    3    3    0    0  0.10754398570E+03 -0.42970970889E+02 -0.77335330035E+03  0.78686528258E+03  0.87575296533E+02 0.  0.
         -6    2    1    2    0  501 -0.90923066583E+02  0.56899294778E+02 -0.15451645951E+04  0.15588164682E+04  0.17570037461E+03 0.  0.
        -24    2    5    5    0    0 -0.43497988980E+02 -0.28814114272E+01 -0.12731448793E+04  0.12762572946E+04  0.77681532783E+02 0.  0.
          5    1    3    3  502    0 -0.16620919112E+02 -0.13928323889E+02 -0.69399602598E+03  0.69435065149E+03  0.47000000000E+01 0. -1.
        -13    1    4    4    0    0  0.57017942390E+02  0.21443999383E+02 -0.26115337073E+03  0.26816408019E+03  0.00000000000E+00 0.  1.
         14    1    4    4    0    0  0.50526043305E+02 -0.64414970272E+02 -0.51219992963E+03  0.51870120238E+03  0.00000000000E+00 0. -1.
         -5    1    5    5    0  501 -0.47425077603E+02  0.59780706205E+02 -0.27201971576E+03  0.28255917359E+03  0.47000000000E+01 0.  1.
         11    1    6    6    0    0 -0.12721750693E+02 -0.35011693191E+02 -0.84181439758E+03  0.84263820325E+03  0.00000000000E+00 0. -1.
        -12    1    6    6    0    0 -0.30776238287E+02  0.32130281764E+02 -0.43133048177E+03  0.43361909131E+03  0.00000000000E+00 0.  1.
</event>
<event>
12    1  0.1345781E-002  0.2007897E+03  0.7818608E-02  0.1149074E+00
          2   -1    0    0  502    0  0.00000000000E+00  0.00000000000E+00  0.32229639827E+04  0.32229639827E+04  0.00000000000E+00 0.  1.
         -2   -1    0    0    0  501 -0.00000000000E+00 -0.00000000000E+00 -0.16280214453E+02  0.16280214453E+02  0.00000000000E+00 0. -1.
          6    2    1    2  502    0 -0.48571902979E+02  0.91366040075E+02  0.23846429288E+04  0.23931060781E+04  0.17241757547E+03 0.  0.
         24    2    3    3    0    0 -0.67979016513E+02 -0.29263251206E+01  0.12290010073E+04  0.12334518077E+04  0.79562402870E+02 0.  0.
         -6    2    1    2    0  501  0.48571902979E+02 -0.91366040075E+02  0.82204083942E+03  0.84613811899E+03  0.17173116108E+03 0.  0.
        -24    2    5    5    0    0  0.89269551975E+02 -0.98928128759E+02  0.70208641954E+03  0.71915529862E+03  0.80642268446E+02 0.  0.
          5    1    3    3  502    0  0.19407113534E+02  0.94292365195E+02  0.11556419215E+04  0.11596542704E+04  0.47000000000E+01 0. -1.
        -11    1    4    4    0    0 -0.69518849975E+02  0.22249297583E+02  0.10675494574E+04  0.10700419364E+04  0.00000000000E+00 0.  1.
         12    1    4    4    0    0  0.15398334616E+01 -0.25175622704E+02  0.16145154990E+03  0.16340987127E+03  0.00000000000E+00 0. -1.
         -5    1    5    5    0  501 -0.40697648995E+02  0.75620886841E+01  0.11995441988E+03  0.12698282037E+03  0.47000000000E+01 0.  1.
         11    1    6    6    0    0  0.83622571333E+02 -0.68323916098E+02  0.64644397338E+03  0.65540117689E+03  0.00000000000E+00 0. -1.
        -12    1    6    6    0    0  0.56469806415E+01 -0.30604212661E+02  0.55642446158E+02  0.63754121729E+02  0.00000000000E+00 0.  1.
</event>
<event>
12    1  0.1345781E-002  0.2190876E+03  0.7818608E-02  0.1134565E+00
         -2   -1    0    0    0  501 -0.00000000000E+00  0.00000000000E+00  0.90762386917E+02  0.90762386917E+02  0.00000000000E+00 0.  1.
          2   -1    0    0  502    0  0.00000000000E+00 -0.00000000000E+00 -0.64859186663E+03  0.64859186663E+03  0.00000000000E+00 0. -1.
          6    2    1    2  502    0 -0.13175211829E+03  0.16543637734E+00 -0.12418912910E+03  0.25521673664E+03  0.17987216247E+03 0.  0.
         24    2    3    3    0    0 -0.11699993037E+03 -0.52877422283E+02 -0.48045251385E+02  0.16113617533E+03  0.84684799835E+02 0.  0.
         -6    2    1    2    0  501  0.13175211829E+03 -0.16543637734E+00 -0.43364035061E+03  0.48413751691E+03  0.17025432023E+03 0.  0.
        -24    2    5    5    0    0  0.82257285616E+02 -0.16083160405E+02 -0.41058449083E+03  0.42706935529E+03  0.82363104838E+02 0.  0.
          5    1    3    3  502    0 -0.14752187917E+02  0.53042858660E+02 -0.76143877718E+02  0.94080561314E+02  0.47000000000E+01 0. -1.
        -11    1    4    4    0    0 -0.70372308277E+02  0.13903065756E+02 -0.15262645396E+02  0.73338293913E+02  0.00000000000E+00 0.  1.
         12    1    4    4    0    0 -0.46627622098E+02 -0.66780488038E+02 -0.32782605988E+02  0.87797881413E+02  0.00000000000E+00 0. -1.
         -5    1    5    5    0  501  0.49494832675E+02  0.15917724028E+02 -0.23055859788E+02  0.57068161617E+02  0.47000000000E+01 0.  1.
         11    1    6    6    0    0  0.79940971476E+02 -0.31061762111E+02 -0.22378930580E+03  0.23966027075E+03  0.00000000000E+00 0. -1.
        -12    1    6    6    0    0  0.23163141404E+01  0.14978601706E+02 -0.18679518503E+03  0.18740908454E+03  0.00000000000E+00 0.  1.
</event>
<event>
12    1  0.1345781E-002  0.2152630E+03  0.7818608E-02  0.1137465E+00
          2   -1    0    0  502    0  0.00000000000E+00  0.00000000000E+00  0.32586602826E+02  0.32586602826E+02  0.00000000000E+00 0.  1.
         -2   -1    0    0    0  501 -0.00000000000E+00 -0.00000000000E+00 -0.15930144346E+04  0.15930144346E+04  0.00000000000E+00 0. -1.
          6    2    1    2  502    0 -0.12395173423E+03  0.34287448585E+02 -0.51507894844E+03  0.55839130937E+03  0.17307475177E+03 0.  0.
         24    2    3    3    0    0 -0.15567907045E+03  0.11711700521E+02 -0.40129761510E+03  0.43803944988E+03  0.80409246138E+02 0.  0.
         -6    2    1    2    0  501  0.12395173423E+03 -0.34287448585E+02 -0.10453488834E+04  0.10672097281E+04  0.17217042205E+03 0.  0.
        -24    2    5    5    0    0  0.14124533836E+03 -0.65688721433E+02 -0.93712895149E+03  0.95310998079E+03  0.77088974685E+02 0.  0.
          5    1    3    3  502    0  0.31727336219E+02  0.22575748064E+02 -0.11378133334E+03  0.12035185949E+03  0.47000000000E+01 0. -1.
        -11    1    4    4    0    0 -0.62017242860E+02  0.35715607574E+02 -0.23522156918E+03  0.24586770760E+03  0.00000000000E+00 0.  1.
         12    1    4    4    0    0 -0.93661827593E+02 -0.24003907053E+02 -0.16607604592E+03  0.19217174228E+03  0.00000000000E+00 0. -1.
         -5    1    5    5    0  501 -0.17293604127E+02  0.31401272848E+02 -0.10821993188E+03  0.11409974731E+03  0.47000000000E+01 0.  1.
         13    1    6    6    0    0  0.45849534290E+02 -0.63021348154E+02 -0.45508190861E+03  0.46170706477E+03  0.00000000000E+00 0. -1.
        -14    1    6    6    0    0  0.95395804071E+02 -0.26673732786E+01 -0.48204704288E+03  0.49140291601E+03  0.00000000000E+00 0.  1.
</event>
<event>
12    1  0.1345781E-002  0.1764793E+03  0.7818608E-02  0.1171255E+00
         -2   -1    0    0    0  501 -0.00000000000E+00  0.00000000000E+00  0.59470843848E+02  0.59470843848E+02  0.00000000000E+00 0.  1.
          2   -1    0    0  502    0  0.00000000000E+00 -0.00000000000E+00 -0.52406333743E+03  0.52406333743E+03  0.00000000000E+00 0. -1.
          6    2    1    2  502    0  0.12194619673E+02 -0.43108562452E+02 -0.23735777297E+03  0.29481824294E+03  0.16903262134E+03 0.  0.
         24    2    3    3    0    0  0.17382349162E+02 -0.53616479907E+02 -0.25479478249E+03  0.27328993210E+03  0.81179633040E+02 0.  0.
         -6    2    1    2    0  501 -0.12194619673E+02  0.43108562452E+02 -0.22723472061E+03  0.28871593833E+03  0.17237812475E+03 0.  0.
        -24    2    5    5    0    0 -0.63215000092E+02 -0.51994948705E+01 -0.97412229509E+02  0.14102464944E+03  0.79847594247E+02 0.  0.
          5    1    3    3  502    0 -0.51877294890E+01  0.10507917455E+02  0.17437009527E+02  0.21528310842E+02  0.47000000000E+01 0. -1.
        -11    1    4    4    0    0 -0.31988955823E+02 -0.29554325652E+02 -0.10131855505E+03  0.11028236965E+03  0.00000000000E+00 0.  1.
         12    1    4    4    0    0  0.49371304985E+02 -0.24062154255E+02 -0.15347622745E+03  0.16300756245E+03  0.00000000000E+00 0. -1.
         -5    1    5    5    0  501  0.51020380419E+02  0.48308057322E+02 -0.12982249110E+03  0.14769128890E+03  0.47000000000E+01 0.  1.
         13    1    6    6    0    0 -0.59208954957E+02 -0.30981274665E+02 -0.39798237300E+02  0.77778142297E+02  0.00000000000E+00 0. -1.
        -14    1    6    6    0    0 -0.40060451353E+01  0.25781779795E+02 -0.57613992209E+02  0.63246507139E+02  0.00000000000E+00 0.  1.
</event>
<event>
12    1  0.1345781E-002  0.1837205E+03  0.7818608E-02  0.1164250E+00
         -1   -1    0    0    0  501 -0.00000000000E+00  0.00000000000E+00  0.79226320757E+02  0.79226320757E+02  0.00000000000E+00 0. -1.
          1   -1    0    0  502    0  0.00000000000E+00 -0.00000000000E+00 -0.44046969621E+03  0.44046969621E+03  0.00000000000E+00 0.  1.
          6    2    1    2  502    0 -0.52742967545E+02  0.30429494079E+02 -0.22915872148E+03  0.29474213156E+03  0.17507549729E+03 0.  0.
         24    2    3    3    0    0 -0.76024362526E+02  0.66470520213E+02 -0.21280505040E+03  0.24858466765E+03  0.79437483326E+02 0.  0.
         -6    2    1    2    0  501  0.52742967545E+02 -0.30429494079E+02 -0.13208465397E+03  0.22495388541E+03  0.17161037267E+03 0.  0.
        -24    2    5    5    0    0  0.64969310822E+02 -0.32342775269E+01 -0.15498481492E+02  0.10452345368E+03  0.80333539321E+02 0.  0.
          5    1    3    3  502    0  0.23281394981E+02 -0.36041026134E+02 -0.16353671075E+02  0.46157463912E+02  0.47000000000E+01 0. -1.
        -11    1    4    4    0    0 -0.24858642107E+02  0.63181067157E+02 -0.16525061032E+03  0.17865487271E+03  0.00000000000E+00 0.  1.
         12    1    4    4    0    0 -0.51165720419E+02  0.32894530568E+01 -0.47554440086E+02  0.69929794933E+02  0.00000000000E+00 0. -1.
         -5    1    5    5    0  501 -0.12226343278E+02 -0.27195216552E+02 -0.11658617248E+03  0.12043043173E+03  0.47000000000E+01 0.  1.
         13    1    6    6    0    0  0.32754434209E+02 -0.38960077572E+01  0.32764782354E+02  0.46492610160E+02  0.00000000000E+00 0. -1.
        -14    1    6    6    0    0  0.32214876613E+02  0.66173023033E+00 -0.48263263846E+02  0.58030843516E+02  0.00000000000E+00 0.  1.
</event>
<event>
12    1  0.1345781E-002  0.2020404E+03  0.7818608E-02  0.1148029E+00
          1   -1    0    0  502    0  0.00000000000E+00  0.00000000000E+00  0.69395903609E+03  0.69395903609E+03  0.00000000000E+00 0. -1.
         -1   -1    0    0    0  501 -0.00000000000E+00 -0.00000000000E+00 -0.62380253293E+02  0.62380253293E+02  0.00000000000E+00 0.  1.
          6    2    1    2  502    0  0.33379348023E+02  0.10304039018E+03  0.22312161786E+03  0.29991594812E+03  0.16862626336E+03 0.  0.
         24    2    3    3    0    0 -0.44474615495E+02  0.87010972691E+02  0.13860505343E+03  0.18379824265E+03  0.70862771401E+02 0.  0.
         -6    2    1    2    0  501 -0.33379348023E+02 -0.10304039018E+03  0.40845716494E+03  0.45642334127E+03  0.17249205195E+03 0.  0.
        -24    2    5    5    0    0 -0.69700233902E+02 -0.10126123884E+03  0.38682823226E+03  0.41385254307E+03  0.80782950167E+02 0.  0.
          5    1    3    3  502    0  0.77853963517E+02  0.16029417485E+02  0.84516564432E+02  0.11611770547E+03  0.47000000000E+01 0. -1.
        -13    1    4    4    0    0  0.12668530143E+02 -0.16867064876E+01  0.54153970966E+01  0.13880315575E+02  0.00000000000E+00 0.  1.
         14    1    4    4    0    0 -0.57143145638E+02  0.88697679178E+02  0.13318965634E+03  0.16991792707E+03  0.00000000000E+00 0. -1.
         -5    1    5    5    0  501  0.36320885880E+02 -0.17791513336E+01  0.21628932680E+02  0.42570798201E+02  0.47000000000E+01 0.  1.
         13    1    6    6    0    0 -0.27548652752E+02 -0.13883434190E+01  0.16109197714E+03  0.16343647348E+03  0.00000000000E+00 0. -1.
        -14    1    6    6    0    0 -0.42151581150E+02 -0.99872895423E+02  0.22573625512E+03  0.25041606959E+03  0.00000000000E+00 0.  1.
</event>
<event>
12    1  0.1345781E-002  0.1906206E+03  0.7818608E-02  0.1157903E+00
         -2   -1    0    0    0  501 -0.00000000000E+00  0.00000000000E+00  0.15881008940E+03  0.15881008940E+03  0.00000000000E+00 0. -1.
          2   -1    0    0  502    0  0.00000000000E+00 -0.00000000000E+00 -0.28906951783E+03  0.28906951783E+03  0.00000000000E+00 0.  1.
          6    2    1    2  502    0  0.13060779275E+02  0.79343200823E+02 -0.16711739980E+03  0.25279073957E+03  0.17178185359E+03 0.  0.
         24    2    3    3    0    0  0.36531995436E+02 -0.15378276172E+02 -0.56415580965E+02  0.10514237728E+03  0.79379617389E+02 0.  0.
         -6    2    1    2    0  501 -0.13060779275E+02 -0.79343200823E+02  0.36857971360E+02  0.19508886766E+03  0.17388280180E+03 0.  0.
        -24    2    5    5    0    0  0.54157560520E+02 -0.68624407220E+02  0.82024924928E+01  0.12108600143E+03  0.83379783111E+02 0.  0.
          5    1    3    3  502    0 -0.23471216161E+02  0.94721476995E+02 -0.11070181883E+03  0.14764836229E+03  0.47000000000E+01 0. -1.
        -13    1    4    4    0    0 -0.35160758994E+01 -0.26315575054E+02 -0.57798577174E+02  0.63604620929E+02  0.00000000000E+00 0.  1.
         14    1    4    4    0    0  0.40048071335E+02  0.10937298883E+02  0.13829962092E+01  0.41537756355E+02  0.00000000000E+00 0. -1.
         -5    1    5    5    0  501 -0.67218339795E+02 -0.10718793603E+02  0.28655478868E+02  0.74002866230E+02  0.47000000000E+01 0.  1.
         11    1    6    6    0    0 -0.11285977554E+02 -0.22533902977E+02  0.28962874842E+02  0.38392684093E+02  0.00000000000E+00 0. -1.
        -12    1    6    6    0    0  0.65443538075E+02 -0.46090504243E+02 -0.20760382349E+02  0.82693317338E+02  0.00000000000E+00 0.  1.
</event>
<event>
12    1  0.1345781E-002  0.1901525E+03  0.7818608E-02  0.1158324E+00
          3   -1    0    0  502    0  0.00000000000E+00  0.00000000000E+00  0.53345737570E+03  0.53345737570E+03  0.00000000000E+00 0.  1.
         -3   -1    0    0    0  501 -0.00000000000E+00 -0.00000000000E+00 -0.67835693174E+02  0.67835693174E+02  0.00000000000E+00 0. -1.
          6    2    1    2  502    0 -0.77769880028E+02 -0.20520349135E+02  0.24132256404E+03  0.30720294602E+03  0.17224352284E+03 0.  0.
         24    2    3    3    0    0 -0.55671016047E+02  0.53636944428E+02  0.15846492981E+03  0.19373426520E+03  0.80284791185E+02 0.  0.
         -6    2    1    2    0  501  0.77769880028E+02  0.20520349135E+02  0.22429911849E+03  0.29409012285E+03  0.17236492346E+03 0.  0.
        -24    2    5    5    0    0  0.11996924541E+03  0.76507285079E+01  0.15699760065E+03  0.21347996297E+03  0.80463000734E+02 0.  0.
          5    1    3    3  502    0 -0.22098863981E+02 -0.74157293564E+02  0.82857634221E+02  0.11346868082E+03  0.47000000000E+01 0. -1.
        -11    1    4    4    0    0 -0.32672549980E+02 -0.16583073086E+02  0.41245846481E+02  0.55169862127E+02  0.00000000000E+00 0.  1.
         12    1    4    4    0    0 -0.22998466067E+02  0.70220017514E+02  0.11721908333E+03  0.13856440307E+03  0.00000000000E+00 0. -1.
         -5    1    5    5    0  501 -0.42199365384E+02  0.12869620628E+02  0.67301517835E+02  0.80610159886E+02  0.47000000000E+01 0.  1.
         13    1    6    6    0    0  0.57299917180E+02 -0.33083914463E+02  0.49870475285E+02  0.82854633004E+02  0.00000000000E+00 0. -1.
        -14    1    6    6    0    0  0.62669328231E+02  0.40734642970E+02  0.10712712537E+03  0.13062532997E+03  0.00000000000E+00 0.  1.
</event>
<event>
12    1  0.1345781E-002  0.2844327E+03  0.7818608E-02  0.1093292E+00
         -1   -1    0    0    0  501 -0.00000000000E+00  0.00000000000E+00  0.11088999145E+03  0.11088999145E+03  0.00000000000E+00 0. -1.
          1   -1    0    0  502    0  0.00000000000E+00 -0.00000000000E+00 -0.73052698112E+03  0.73052698112E+03  0.00000000000E+00 0.  1.
          6    2    1    2  502    0  0.22373151353E+03 -0.35097039182E+02 -0.29457798104E+03  0.40947869355E+03  0.17207272082E+03 0.  0.
         24    2    3    3    0    0  0.57259862885E+02 -0.58301238637E+02 -0.14415852872E+03  0.18386985734E+03  0.79678834774E+02 0.  0.
         -6    2    1    2    0  501 -0.22373151353E+03  0.35097039182E+02 -0.32505900863E+03  0.43193827901E+03  0.17210382181E+03 0.  0.
        -24    2    5    5    0    0 -0.22582288441E+03  0.29381316352E+01 -0.31879206524E+03  0.39877302994E+03  0.79918338358E+02 0.  0.
          5    1    3    3  502    0  0.16647165064E+03  0.23204199455E+02 -0.15041945232E+03  0.22560883621E+03  0.47000000000E+01 0. -1.
        -11    1    4    4    0    0  0.57824805741E+02 -0.20428920200E+01 -0.74387509310E+02  0.94241090338E+02  0.00000000000E+00 0.  1.
         12    1    4    4    0    0 -0.56494285643E+00 -0.56258346617E+02 -0.69771019410E+02  0.89628767000E+02  0.00000000000E+00 0. -1.
         -5    1    5    5    0  501  0.20913708835E+01  0.32158907547E+02 -0.62669433885E+01  0.33165249075E+02  0.47000000000E+01 0.  1.
         13    1    6    6    0    0 -0.13287161041E+03  0.27288777599E+02 -0.13498183991E+03  0.19136258605E+03  0.00000000000E+00 0. -1.
        -14    1    6    6    0    0 -0.92951274002E+02 -0.24350645964E+02 -0.18381022533E+03  0.20741044388E+03  0.00000000000E+00 0.  1.
</event>
<event>
12    1  0.1345781E-002  0.2265398E+03  0.7818608E-02  0.1129099E+00
          2   -1    0    0  502    0  0.00000000000E+00  0.00000000000E+00  0.36416014312E+03  0.36416014312E+03  0.00000000000E+00 0.  1.
         -2   -1    0    0    0  501 -0.00000000000E+00 -0.00000000000E+00 -0.20653821260E+03  0.20653821260E+03  0.00000000000E+00 0. -1.
          6    2    1    2  502    0 -0.92423521355E+02 -0.11990114592E+03  0.23908642441E+03  0.32784067260E+03  0.16552581727E+03 0.  0.
         24    2    3    3    0    0 -0.60431102824E+02  0.67854952814E-01  0.12078483417E+03  0.15627892783E+03  0.78626994896E+02 0.  0.
         -6    2    1    2    0  501  0.92423521355E+02  0.11990114592E+03 -0.81464493897E+02  0.24285768311E+03  0.17153716329E+03 0.  0.
        -24    2    5    5    0    0  0.27247727114E+02  0.63961167158E+02 -0.10676245437E+03  0.15319586190E+03  0.85072209937E+02 0.  0.
          5    1    3    3  502    0 -0.31992418531E+02 -0.11996900088E+03  0.11830159024E+03  0.17156174477E+03  0.47000000000E+01 0. -1.
        -11    1    4    4    0    0  0.50208621573E+01 -0.26760543997E+02  0.45119204275E+02  0.52697992051E+02  0.00000000000E+00 0.  1.
         12    1    4    4    0    0 -0.65451964981E+02  0.26828398950E+02  0.75665629896E+02  0.10358093578E+03  0.00000000000E+00 0. -1.
         -5    1    5    5    0  501  0.65175794241E+02  0.55939978766E+02  0.25297960472E+02  0.89661821213E+02  0.47000000000E+01 0.  1.
         11    1    6    6    0    0  0.17234359828E+01  0.76560281692E+02 -0.55554234475E+02  0.94608244527E+02  0.00000000000E+00 0. -1.
        -12    1    6    6    0    0  0.25524291132E+02 -0.12599114535E+02 -0.51208219894E+02  0.58587617374E+02  0.00000000000E+00 0.  1.
</event>
<event>
12    1  0.1345781E-002  0.1828360E+03  0.7818608E-02  0.1165086E+00
          2   -1    0    0  502    0  0.00000000000E+00  0.00000000000E+00  0.19019493323E+02  0.19019493323E+02  0.00000000000E+00 0. -1.
         -2   -1    0    0    0  501 -0.00000000000E+00 -0.00000000000E+00 -0.17690523102E+04  0.17690523102E+04  0.00000000000E+00 0.  1.
          6    2    1    2  502    0 -0.59101050538E+02 -0.10002183497E+02 -0.94785846551E+03  0.96537013882E+03  0.17294755401E+03 0.  0.
         24    2    3    3    0    0 -0.74767420410E+02 -0.64385635601E+02 -0.63065201274E+03  0.64312020680E+03  0.78396186111E+02 0.  0.
         -6    2    1    2    0  501  0.59101050538E+02  0.10002183497E+02 -0.80217435135E+03  0.82270166469E+03  0.17251481461E+03 0.  0.
        -24    2    5    5    0    0 -0.32924135936E+02 -0.12796657947E+01 -0.31504821361E+03  0.32680865290E+03  0.80392054574E+02 0.  0.
          5    1    3    3  502    0  0.15666369873E+02  0.54383452104E+02 -0.31720645277E+03  0.32224993202E+03  0.47000000000E+01 0. -1.
        -11    1    4    4    0    0 -0.21677967769E+02 -0.69147052000E+02 -0.38335919992E+03  0.39014808118E+03  0.00000000000E+00 0.  1.
         12    1    4    4    0    0 -0.53089452641E+02  0.47614163991E+01 -0.24729281282E+03  0.25297212562E+03  0.00000000000E+00 0. -1.
         -5    1    5    5    0  501  0.92025186473E+02  0.11281849291E+02 -0.48712613775E+03  0.49589301179E+03  0.47000000000E+01 0.  1.
         11    1    6    6    0    0 -0.17977520181E+02 -0.20565902691E+02 -0.29441429102E+02  0.40161490671E+02  0.00000000000E+00 0. -1.
        -12    1    6    6    0    0 -0.14946615755E+02  0.19286236896E+02 -0.28560678451E+03  0.28664716223E+03  0.00000000000E+00 0.  1.
</event>
<event>
12    1  0.1345781E-002  0.1878339E+03  0.7818608E-02  0.1160430E+00
         -3   -1    0    0    0  501 -0.00000000000E+00  0.00000000000E+00  0.97802521433E+02  0.97802521433E+02  0.00000000000E+00 0.  1.
          3   -1    0    0  502    0  0.00000000000E+00 -0.00000000000E+00 -0.37803989119E+03  0.37803989119E+03  0.00000000000E+00 0. -1.
          6    2    1    2  502    0  0.34251642089E+02  0.66529254291E+02 -0.19115280168E+03  0.26813527380E+03  0.17250453559E+03 0.  0.
         24    2    3    3    0    0  0.74860762809E+02  0.59870664643E+02 -0.18790829699E+03  0.22658946399E+03  0.82732259852E+02 0.  0.
         -6    2    1    2    0  501 -0.34251642089E+02 -0.66529254291E+02 -0.89084568079E+02  0.20770713883E+03  0.17206649468E+03 0.  0.
        -24    2    5    5    0    0  0.73795599834E+01 -0.83971432909E+02 -0.10842298160E+03  0.15837711939E+03  0.78880349619E+02 0.  0.
          5    1    3    3  502    0 -0.40609120721E+02  0.66585896485E+01 -0.32445046952E+01  0.41545809807E+02  0.47000000000E+01 0. -1.
        -13    1    4    4    0    0  0.72579000848E+02  0.67680753088E+02 -0.10957461576E+03  0.14783434013E+03  0.00000000000E+00 0.  1.
         14    1    4    4    0    0  0.22817619614E+01 -0.78100884451E+01 -0.78333681229E+02  0.78755123859E+02  0.00000000000E+00 0. -1.
         -5    1    5    5    0  501 -0.41631202072E+02  0.17442178618E+02  0.19338413522E+02  0.49330019445E+02  0.47000000000E+01 0.  1.
         13    1    6    6    0    0 -0.24480348361E+02 -0.16810318413E+02 -0.66985203329E+02  0.73272721569E+02  0.00000000000E+00 0. -1.
        -14    1    6    6    0    0  0.31859908345E+02 -0.67161114495E+02 -0.41437778271E+02  0.85104397818E+02  0.00000000000E+00 0.  1.
</event>
<event>
12    1  0.1345781E-002  0.3975170E+03  0.7818608E-02  0.1044643E+00
          1   -1    0    0  502    0  0.00000000000E+00  0.00000000000E+00  0.12668098816E+04  0.12668098816E+04  0.00000000000E+00 0. -1.
         -1   -1    0    0    0  501 -0.00000000000E+00 -0.00000000000E+00 -0.17828377529E+03  0.17828377529E+03  0.00000000000E+00 0.  1.
          6    2    1    2  502    0 -0.26815311041E+03  0.23780255653E+03  0.94077426703E+03  0.10215282419E+04  0.17322696388E+03 0.  0.
         24    2    3    3    0    0 -0.16884029410E+03  0.17516220017E+03  0.46806143443E+03  0.53442829137E+03  0.85692770559E+02 0.  0.
         -6    2    1    2    0  501  0.26815311041E+03 -0.23780255653E+03  0.14775183929E+03  0.42356541499E+03  0.17064849323E+03 0.  0.
        -24    2    5    5    0    0  0.26650759853E+03 -0.19801219593E+03  0.16603441593E+03  0.37949361998E+03  0.78821637395E+02 0.  0.
          5    1    3    3  502    0 -0.99312816311E+02  0.62640356362E+02  0.47271283259E+03  0.48709995055E+03  0.47000000000E+01 0. -1.
        -11    1    4    4    0    0 -0.15974441788E+03  0.14752389349E+03  0.45104126797E+03  0.50071928623E+03  0.00000000000E+00 0.  1.
         12    1    4    4    0    0 -0.90958762225E+01  0.27638306686E+02  0.17020166467E+02  0.33709005136E+02  0.00000000000E+00 0. -1.
         -5    1    5    5    0  501  0.16455118787E+01 -0.39790360605E+02 -0.18282576639E+02  0.44071795005E+02  0.47000000000E+01 0.  1.
         11    1    6    6    0    0  0.86252651506E+02 -0.53843873319E+02  0.91921670686E+02  0.13707033278E+03  0.00000000000E+00 0. -1.
        -12    1    6    6    0    0  0.18025494703E+03 -0.14416832261E+03  0.74112745243E+02  0.24242328721E+03  0.00000000000E+00 0.  1.
</event>
<event>
12    1  0.1345781E-002  0.1882676E+03  0.7818608E-02  0.1160033E+00
          2   -1    0    0  502    0  0.00000000000E+00  0.00000000000E+00  0.11236073578E+03  0.11236073578E+03  0.00000000000E+00 0. -1.
         -2   -1    0    0    0  501 -0.00000000000E+00 -0.00000000000E+00 -0.33863652229E+03  0.33863652229E+03  0.00000000000E+00 0.  1.
          6    2    1    2  502    0  0.61492978279E+02  0.34778991471E+02 -0.53006115601E+02  0.19356051490E+03  0.17223547838E+03 0.  0.
         24    2    3    3    0    0  0.42772423917E+02  0.20344796377E+01  0.35247386653E+02  0.97469761598E+02  0.80152085468E+02 0.  0.
         -6    2    1    2    0  501 -0.61492978279E+02 -0.34778991471E+02 -0.17326967090E+03  0.25743674317E+03  0.17680591973E+03 0.  0.
        -24    2    5    5    0    0  0.30514472633E+02 -0.36067312035E+02 -0.57515274552E+02  0.10949012757E+03  0.80300044770E+02 0.  0.
          5    1    3    3  502    0  0.18720554362E+02  0.32744511833E+02 -0.88253502254E+02  0.96090753306E+02  0.47000000000E+01 0. -1.
        -11    1    4    4    0    0  0.49096443064E+02 -0.14709213839E+02 -0.68664042215E+01  0.51710436086E+02  0.00000000000E+00 0.  1.
         12    1    4    4    0    0 -0.63240191476E+01  0.16743693476E+02  0.42113790875E+02  0.45759325511E+02  0.00000000000E+00 0. -1.
         -5    1    5    5    0  501 -0.92007450913E+02  0.12883205635E+01 -0.11575439635E+03  0.14794661560E+03  0.47000000000E+01 0.  1.
         11    1    6    6    0    0  0.29439085753E+01 -0.20327655038E+02  0.18165600032E+02  0.27420233069E+02  0.00000000000E+00 0. -1.
        -12    1    6    6    0    0  0.27570564058E+02 -0.15739656996E+02 -0.75680874584E+02  0.82069894497E+02  0.00000000000E+00 0.  1.
</event>
<event>
12    1  0.1345781E-002  0.2978641E+03  0.7818608E-02  0.1086313E+00
          2   -1    0    0  502    0  0.00000000000E+00  0.00000000000E+00  0.37744634638E+03  0.37744634638E+03  0.00000000000E+00 0.  1.
         -2   -1    0    0    0  501 -0.00000000000E+00 -0.00000000000E+00 -0.26109731468E+03  0.26109731468E+03  0.00000000000E+00 0. -1.
          6    2    1    2  502    0  0.17455947283E+03  0.16572078668E+03 -0.43661006487E+02  0.29357258668E+03  0.16230893836E+03 0.  0.
         24    2    3    3    0    0  0.25510846409E+02  0.38959709588E+02 -0.29901668702E+02  0.97370463654E+02  0.80113888593E+02 0.  0.
         -6    2    1    2    0  501 -0.17455947283E+03 -0.16572078668E+03  0.16001003819E+03  0.34497107438E+03  0.18832801476E+03 0.  0.
        -24    2    5    5    0    0 -0.19567225963E+03 -0.17932893987E+03  0.13194852271E+03  0.30701754687E+03  0.80017870375E+02 0.  0.
          5    1    3    3  502    0  0.14904862642E+03  0.12676107709E+03 -0.13759337785E+02  0.19620212303E+03  0.47000000000E+01 0. -1.
        -11    1    4    4    0    0  0.10574039163E+02  0.85328505220E+00  0.26003480321E+02  0.28084148347E+02  0.00000000000E+00 0.  1.
         12    1    4    4    0    0  0.14936807246E+02  0.38106424536E+02 -0.55905149023E+02  0.69286315307E+02  0.00000000000E+00 0. -1.
         -5    1    5    5    0  501  0.21112786795E+02  0.13608153184E+02  0.28061515480E+02  0.37953527509E+02  0.47000000000E+01 0.  1.
         13    1    6    6    0    0 -0.85286611936E+02 -0.12415638103E+03  0.95465134933E+02  0.17833172773E+03  0.00000000000E+00 0. -1.
        -14    1    6    6    0    0 -0.11038564769E+03 -0.55172558835E+02  0.36483387773E+02  0.12868581914E+03  0.00000000000E+00 0.  1.
</event>
<event>
12    1  0.1345781E-002  0.1740880E+03  0.7818608E-02  0.1173651E+00
          1   -1    0    0  502    0  0.00000000000E+00  0.00000000000E+00  0.58208717257E+03  0.58208717257E+03  0.00000000000E+00 0.  1.
         -1   -1    0    0    0  501 -0.00000000000E+00 -0.00000000000E+00 -0.52982220114E+03  0.52982220114E+03  0.00000000000E+00 0. -1.
          6    2    1    2  502    0  0.16440234578E+02 -0.24569045239E+02 -0.50180001412E+03  0.53112239153E+03  0.17150458102E+03 0.  0.
         24    2    3    3    0    0 -0.27819257632E+02 -0.20139132073E+02 -0.12381739665E+03  0.15050253407E+03  0.78363060889E+02 0.  0.
         -6    2    1    2    0  501 -0.16440234578E+02  0.24569045239E+02  0.55406498556E+03  0.58078698218E+03  0.17161465890E+03 0.  0.
        -24    2    5    5    0    0  0.10087136050E+02  0.79195956382E+02  0.36311270649E+03  0.38035578776E+03  0.80286598198E+02 0.  0.
          5    1    3    3  502    0  0.44259492210E+02 -0.44299131667E+01 -0.37798261748E+03  0.38061985746E+03  0.47000000000E+01 0. -1.
        -11    1    4    4    0    0  0.20643878538E+02  0.25221049930E+01 -0.68763961838E+01  0.21904692629E+02  0.00000000000E+00 0.  1.
         12    1    4    4    0    0 -0.48463136170E+02 -0.22661237066E+02 -0.11694100046E+03  0.12859784144E+03  0.00000000000E+00 0. -1.
         -5    1    5    5    0  501 -0.26527370628E+02 -0.54626911143E+02  0.19095227907E+03  0.20043119442E+03  0.47000000000E+01 0.  1.
         13    1    6    6    0    0  0.36759540491E+02  0.97906087727E+01  0.14551242427E+03  0.15040274417E+03  0.00000000000E+00 0. -1.
        -14    1    6    6    0    0 -0.26672404441E+02  0.69405347610E+02  0.21760028222E+03  0.22995304359E+03  0.00000000000E+00 0.  1.
</event>
<event>
12    1  0.1345781E-002  0.2358428E+03  0.7818608E-02  0.1122594E+00
         -2   -1    0    0    0  501 -0.00000000000E+00  0.00000000000E+00  0.17701575387E+02  0.17701575387E+02  0.00000000000E+00 0.  1.
          2   -1    0    0  502    0  0.00000000000E+00 -0.00000000000E+00 -0.31422379738E+04  0.31422379738E+04  0.00000000000E+00 0. -1.
          6    2    1    2  502    0 -0.15209954393E+03 -0.52147689802E+02 -0.15701909820E+04  0.15878737837E+04  0.17317557653E+03 0.  0.
         24    2    3    3    0    0 -0.17911246027E+02  0.12511168354E+02 -0.77839944745E+03  0.78217955426E+03  0.73632962981E+02 0.  0.
         -6    2    1    2    0  501  0.15209954393E+03  0.52147689802E+02 -0.15543454165E+04  0.15720657655E+04  0.17189370136E+03 0.  0.
        -24    2    5    5    0    0  0.37661179986E+02 -0.17977275383E+02 -0.41126602697E+03  0.42112431149E+03  0.80401454452E+02 0.  0.
          5    1    3    3  502    0 -0.13418829790E+03 -0.64658858156E+02 -0.79179153451E+03  0.80569422944E+03  0.47000000000E+01 0. -1.
        -13    1    4    4    0    0 -0.81879862774E+01  0.32154927223E+02 -0.16062409789E+03  0.16401549709E+03  0.00000000000E+00 0.  1.
         14    1    4    4    0    0 -0.97232597497E+01 -0.19643758869E+02 -0.61777534957E+03  0.61816405717E+03  0.00000000000E+00 0. -1.
         -5    1    5    5    0  501  0.11443836394E+03  0.70124965185E+02 -0.11430793895E+04  0.11509414540E+04  0.47000000000E+01 0.  1.
         13    1    6    6    0    0  0.11323538697E+02 -0.10298938289E+02 -0.37662425065E+03  0.37693516264E+03  0.00000000000E+00 0. -1.
        -14    1    6    6    0    0  0.26337641289E+02 -0.76783370942E+01 -0.34641776328E+02  0.44189148853E+02  0.00000000000E+00 0.  1.
</event>
<event>
12    1  0.1345781E-002  0.1869304E+03  0.7818608E-02  0.1161259E+00
         -2   -1    0    0    0  501 -0.00000000000E+00  0.00000000000E+00  0.24527386129E+02  0.24527386129E+02  0.00000000000E+00 0.  1.
          2   -1    0    0  502    0  0.00000000000E+00 -0.00000000000E+00 -0.14915006440E+04  0.14915006440E+04  0.00000000000E+00 0. -1.
          6    2    1    2  502    0 -0.61305829649E+02  0.23773142396E+02 -0.93352017743E+03  0.95474307369E+03  0.18907894656E+03 0.  0.
         24    2    3    3    0    0  0.38463066695E+02  0.32805074985E+02 -0.33854933145E+03  0.35137933094E+03  0.79348622841E+02 0.  0.
         -6    2    1    2    0  501  0.61305829649E+02 -0.23773142396E+02 -0.53345308044E+03  0.56128495645E+03  0.16169429876E+03 0.  0.
        -24    2    5    5    0    0  0.66100790965E+02 -0.42888085370E+02 -0.52835310351E+03  0.54039303304E+03  0.81602240994E+02 0.  0.
          5    1    3    3  502    0 -0.99768896344E+02 -0.90319325890E+01 -0.59497084599E+03  0.60336374275E+03  0.47000000000E+01 0. -1.
        -13    1    4    4    0    0 -0.18814210908E+02  0.29522409778E+02 -0.97427733209E+02  0.10352637543E+03  0.00000000000E+00 0.  1.
         14    1    4    4    0    0  0.57277277604E+02  0.32826652066E+01 -0.24112159824E+03  0.24785295551E+03  0.00000000000E+00 0. -1.
         -5    1    5    5    0  501 -0.47949613167E+01  0.19114942975E+02 -0.50999769315E+01  0.20891923407E+02  0.47000000000E+01 0.  1.
         13    1    6    6    0    0  0.14214302185E+02  0.24273399636E+02 -0.15305522133E+03  0.15561858852E+03  0.00000000000E+00 0. -1.
        -14    1    6    6    0    0  0.51886488780E+02 -0.67161485006E+02 -0.37529788218E+03  0.38477444452E+03  0.00000000000E+00 0.  1.
</event>
<event>
12    1  0.1345781E-002  0.1912198E+03  0.7818608E-02  0.1157366E+00
         -1   -1    0    0    0  501 -0.00000000000E+00  0.00000000000E+00  0.57687647473E+03  0.57687647473E+03  0.00000000000E+00 0. -1.
          1   -1    0    0  502    0  0.00000000000E+00 -0.00000000000E+00 -0.85047796006E+02  0.85047796006E+02  0.00000000000E+00 0.  1.
          6    2    1    2  502    0  0.74028897024E+02  0.28335220079E+02  0.41191282128E+03  0.45368427276E+03  0.17284121246E+03 0.  0.
         24    2    3    3    0    0  0.64684296279E+02  0.20905258560E+02  0.10848439485E+03  0.14998470764E+03  0.78137446713E+02 0.  0.
         -6    2    1    2    0  501 -0.74028897024E+02 -0.28335220079E+02  0.79915857450E+02  0.20823999798E+03  0.17519757474E+03 0.  0.
        -24    2    5    5    0    0 -0.30663551556E+01  0.45764292156E+02  0.23081618319E+02  0.90857542734E+02  0.74957047680E+02 0.  0.
          5    1    3    3  502    0  0.93446007447E+01  0.74299615190E+01  0.30342842642E+03  0.30369956512E+03  0.47000000000E+01 0. -1.
        -13    1    4    4    0    0  0.28211297352E+02 -0.10832508402E+02  0.95146581132E+02  0.99830318229E+02  0.00000000000E+00 0.  1.
         14    1    4    4    0    0  0.36472998927E+02  0.31737766962E+02  0.13337813722E+02  0.50154389413E+02  0.00000000000E+00 0. -1.
         -5    1    5    5    0  501 -0.70962541869E+02 -0.74099512235E+02  0.56834239131E+02  0.11738245525E+03  0.47000000000E+01 0.  1.
         13    1    6    6    0    0  0.22910328572E+02  0.25368534859E+02  0.40921886054E+02  0.53320225753E+02  0.00000000000E+00 0. -1.
        -14    1    6    6    0    0 -0.25976683728E+02  0.20395757298E+02 -0.17840267735E+02  0.37537316980E+02  0.00000000000E+00 0.  1.
</event>
<event>
12    1  0.1345781E-002  0.1961546E+03  0.7818608E-02  0.1153025E+00
          2   -1    0    0  502    0  0.00000000000E+00  0.00000000000E+00  0.13717590395E+04  0.13717590395E+04  0.00000000000E+00 0.  1.
         -2   -1    0    0    0  501 -0.00000000000E+00 -0.00000000000E+00 -0.38241177885E+02  0.38241177885E+02  0.00000000000E+00 0. -1.
          6    2    1    2  502    0  0.49558827028E+02 -0.65240053051E+02  0.10157981982E+04  0.10335024404E+04  0.17195631130E+03 0.  0.
         24    2    3    3    0    0  0.11740648597E+02  0.28713793991E+02  0.35217969894E+03  0.36218348301E+03  0.78638478026E+02 0.  0.
         -6    2    1    2    0  501 -0.49558827028E+02  0.65240053051E+02  0.31771966342E+03  0.37649777698E+03  0.18464140839E+03 0.  0.
        -24    2    5    5    0    0 -0.62236187882E+02  0.10084342946E+03  0.16288277748E+03  0.21704600642E+03  0.80842002408E+02 0.  0.
          5    1    3    3  502    0  0.37818178430E+02 -0.93953847042E+02  0.66361849922E+03  0.67131895735E+03  0.47000000000E+01 0. -1.
        -11    1    4    4    0    0 -0.23692871248E+02  0.34720080612E+02  0.25757857233E+03  0.26098574113E+03  0.00000000000E+00 0.  1.
         12    1    4    4    0    0  0.35433519845E+02 -0.60062866211E+01  0.94601126602E+02  0.10119774188E+03  0.00000000000E+00 0. -1.
         -5    1    5    5    0  501  0.12677360855E+02 -0.35603376413E+02  0.15483688594E+03  0.15945177057E+03  0.47000000000E+01 0.  1.
         11    1    6    6    0    0 -0.26811481489E+02  0.64811954352E+02  0.32672412009E+02  0.77375263961E+02  0.00000000000E+00 0. -1.
        -12    1    6    6    0    0 -0.35424706393E+02  0.36031475111E+02  0.13021036547E+03  0.13967074245E+03  0.00000000000E+00 0.  1.
</event>
<event>
12    1  0.1345781E-002  0.1822962E+03  0.7818608E-02  0.1165599E+00
          1   -1    0    0  502    0  0.00000000000E+00  0.00000000000E+00  0.15616148330E+03  0.15616148330E+03  0.00000000000E+00 0. -1.
         -1   -1    0    0    0  501 -0.00000000000E+00 -0.00000000000E+00 -0.25116254475E+03  0.25116254475E+03  0.00000000000E+00 0.  1.
          6    2    1    2  502    0 -0.19189768265E+02 -0.57558981064E+02 -0.12697093824E+03  0.22171995782E+03  0.17133837000E+03 0.  0.
         24    2    3    3    0    0 -0.70970306792E+02 -0.45802276666E+02 -0.12173634436E+03  0.16815751537E+03  0.79514649236E+02 0.  0.
         -6    2    1    2    0  501  0.19189768265E+02  0.57558981064E+02  0.31969876782E+02  0.18560407023E+03  0.17246887939E+03 0.  0.
        -24    2    5    5    0    0 -0.68136322485E+01 -0.25676340137E+02 -0.15579582679E+02  0.86168982721E+02  0.80477761894E+02 0.  0.
          5    1    3    3  502    0  0.51780538528E+02 -0.11756704398E+02 -0.52345938752E+01  0.53562442453E+02  0.47000000000E+01 0. -1.
        -11    1    4    4    0    0  0.31570364765E+01 -0.37815508559E+02 -0.61693778506E+02  0.72429979105E+02  0.00000000000E+00 0.  1.
         12    1    4    4    0    0 -0.74127343269E+02 -0.79867681072E+01 -0.60042565855E+02  0.95727536265E+02  0.00000000000E+00 0. -1.
         -5    1    5    5    0  501  0.26003400513E+02  0.83235321201E+02  0.47549459461E+02  0.99435087513E+02  0.47000000000E+01 0.  1.
         11    1    6    6    0    0  0.11206752257E+02 -0.98313683429E+01  0.30649727614E+02  0.34083029537E+02  0.00000000000E+00 0. -1.
        -12    1    6    6    0    0 -0.18020384506E+02 -0.15844971794E+02 -0.46229310292E+02  0.52085953183E+02  0.00000000000E+00 0.  1.
</event>
<event>
12    1  0.1345781E-002  0.2376105E+03  0.7818608E-02  0.1121395E+00
          1   -1    0    0  502    0  0.00000000000E+00  0.00000000000E+00  0.71943817037E+02  0.71943817037E+02  0.00000000000E+00 0. -1.
         -1   -1    0    0    0  501 -0.00000000000E+00 -0.00000000000E+00 -0.11315105954E+04  0.11315105954E+04  0.00000000000E+00 0.  1.
          6    2    1    2  502    0 -0.18710991254E+02  0.16209633135E+03 -0.19743547972E+03  0.30930772441E+03  0.17339313105E+03 0.  0.
         24    2    3    3    0    0  0.42446644558E+02  0.14708728485E+03 -0.12527287694E+03  0.21341685344E+03  0.80106632916E+02 0.  0.
         -6    2    1    2    0  501  0.18710991254E+02 -0.16209633135E+03 -0.86213129862E+03  0.89414668800E+03  0.17205406643E+03 0.  0.
        -24    2    5    5    0    0 -0.28473005638E+01 -0.25654822004E+02 -0.18693376094E+03  0.20494798639E+03  0.79957295681E+02 0.  0.
          5    1    3    3  502    0 -0.61157635812E+02  0.15009046499E+02 -0.72162602780E+02  0.95890870967E+02  0.47000000000E+01 0. -1.
        -13    1    4    4    0    0 -0.38498154414E+01  0.11769082513E+03 -0.80796831172E+02  0.14280784056E+03  0.00000000000E+00 0.  1.
         14    1    4    4    0    0  0.46296459999E+02  0.29396459721E+02 -0.44476045768E+02  0.70609012879E+02  0.00000000000E+00 0. -1.
         -5    1    5    5    0  501  0.21558291818E+02 -0.13644150935E+03 -0.67519753767E+03  0.68919870161E+03  0.47000000000E+01 0.  1.
         13    1    6    6    0    0  0.23861765114E+02 -0.36534954655E+02 -0.56637960244E+02  0.71498568423E+02  0.00000000000E+00 0. -1.
        -14    1    6    6    0    0 -0.26709065677E+02  0.10880132651E+02 -0.13029580070E+03  0.13344941797E+03  0.00000000000E+00 0.  1.
</event>
<event>
12    1  0.1345781E-002  0.2011154E+03  0.7818608E-02  0.1148801E+00
         -1   -1    0    0    0  501 -0.00000000000E+00  0.00000000000E+00  0.37036736633E+02  0.37036736633E+02  0.00000000000E+00 0.  1.
          1   -1    0    0  502    0  0.00000000000E+00 -0.00000000000E+00 -0.11800131187E+04  0.11800131187E+04  0.00000000000E+00 0. -1.
          6    2    1    2  502    0 -0.46152287858E+02 -0.89528482566E+02 -0.41098353157E+03  0.45847824904E+03  0.17649209263E+03 0.  0.
         24    2    3    3    0    0 -0.44952121821E+02 -0.12472009809E+03 -0.38428664568E+03  0.41404060827E+03  0.78597729751E+02 0.  0.
         -6    2    1    2    0  501  0.46152287858E+02  0.89528482566E+02 -0.73199285050E+03  0.75857160629E+03  0.17167401033E+03 0.  0.
        -24    2    5    5    0    0  0.20208280803E+02  0.13075917815E+03 -0.57836765762E+03  0.59733931533E+03  0.69273176470E+02 0.  0.
          5    1    3    3  502    0 -0.12001660375E+01  0.35191615523E+02 -0.26696885886E+02  0.44437640775E+02  0.47000000000E+01 0. -1.
        -11    1    4    4    0    0  0.17879098565E+01  0.16915464482E+01  0.30537676454E+01  0.39221738709E+01  0.00000000000E+00 0.  1.
         12    1    4    4    0    0 -0.46740031677E+02 -0.12641164454E+03 -0.38734041332E+03  0.41011843439E+03  0.00000000000E+00 0. -1.
         -5    1    5    5    0  501  0.25944007055E+02 -0.41230695582E+02 -0.15362519289E+03  0.16123229096E+03  0.47000000000E+01 0.  1.
         13    1    6    6    0    0  0.14126553925E+02 -0.14829258561E+01 -0.99554577595E+02  0.10056277897E+03  0.00000000000E+00 0. -1.
        -14    1    6    6    0    0  0.60817268782E+01  0.13224210400E+03 -0.47881308002E+03  0.49677653636E+03  0.00000000000E+00 0.  1.
</event>
<event>
12    1  0.1345781E-002  0.1852194E+03  0.7818608E-02  0.1162845E+00
          1   -1    0    0  502    0  0.00000000000E+00  0.00000000000E+00  0.78285615505E+02  0.78285615505E+02  0.00000000000E+00 0.  1.
         -1   -1    0    0    0  501 -0.00000000000E+00 -0.00000000000E+00 -0.43837267558E+03  0.43837267558E+03  0.00000000000E+00 0. -1.
          6    2    1    2  502    0  0.68755514103E+00  0.62321096847E+02 -0.18561352892E+03  0.26422581252E+03  0.17742183078E+03 0.  0.
         24    2    3    3    0    0  0.30049791285E+00 -0.27312047600E+02 -0.41452084327E+02  0.94405723880E+02  0.80300231402E+02 0.  0.
         -6    2    1    2    0  501 -0.68755514103E+00 -0.62321096847E+02 -0.17447353115E+03  0.25243247856E+03  0.17145480838E+03 0.  0.
        -24    2    5    5    0    0  0.22039668835E+02 -0.65030236031E+02 -0.19472468738E+03  0.22151217013E+03  0.80220066331E+02 0.  0.
          5    1    3    3  502    0  0.38705722818E+00  0.89633144447E+02 -0.14416144460E+03  0.16982008864E+03  0.47000000000E+01 0. -1.
        -11    1    4    4    0    0 -0.16422164596E+02  0.72712166293E+01  0.16823173905E+02  0.24608479464E+02  0.00000000000E+00 0.  1.
         12    1    4    4    0    0  0.16722662509E+02 -0.34583264230E+02 -0.58275258232E+02  0.69797244417E+02  0.00000000000E+00 0. -1.
         -5    1    5    5    0  501 -0.22727223976E+02  0.27091391839E+01  0.20251156230E+02  0.30920308431E+02  0.47000000000E+01 0.  1.
         13    1    6    6    0    0 -0.18833167702E+02 -0.30116843861E+02 -0.14140742002E+03  0.14580044899E+03  0.00000000000E+00 0. -1.
        -14    1    6    6    0    0  0.40872836537E+02 -0.34913392170E+02 -0.53317267354E+02  0.75711721137E+02  0.00000000000E+00 0.  1.
</event>
<event>
12    1  0.1345781E-002  0.1741716E+03  0.7818608E-02  0.1173566E+00
         -1   -1    0    0    0  501 -0.00000000000E+00  0.00000000000E+00  0.13605665697E+03  0.13605665697E+03  0.00000000000E+00 0.  1.
          1   -1    0    0  502    0  0.00000000000E+00 -0.00000000000E+00 -0.23390093874E+03  0.23390093874E+03  0.00000000000E+00 0. -1.
          6    2    1    2  502    0  0.67098254732E+01 -0.98617602311E+01 -0.89027554484E+02  0.19596700058E+03  0.17416912409E+03 0.  0.
         24    2    3    3    0    0 -0.52943897159E+02 -0.44146850255E+02 -0.37955437010E+02  0.11015042173E+03  0.77074636389E+02 0.  0.
         -6    2    1    2    0  501 -0.67098254732E+01  0.98617602311E+01 -0.88167272808E+01  0.17399059513E+03  0.17335719322E+03 0.  0.
        -24    2    5    5    0    0  0.22001211104E+02  0.33039815831E+01  0.59527735277E+02  0.99422615114E+02  0.76461333656E+02 0.  0.
          5    1    3    3  502    0  0.59653722632E+02  0.34285090024E+02 -0.51072117473E+02  0.85816578847E+02  0.47000000000E+01 0. -1.
        -13    1    4    4    0    0 -0.30316323775E+02 -0.10434822844E+02  0.21174349515E+02  0.38422885008E+02  0.00000000000E+00 0.  1.
         14    1    4    4    0    0 -0.22627573384E+02 -0.33712027411E+02 -0.59129786525E+02  0.71727536720E+02  0.00000000000E+00 0. -1.
         -5    1    5    5    0  501 -0.28711036577E+02  0.65577786480E+01 -0.68344462557E+02  0.74567980021E+02  0.47000000000E+01 0.  1.
         13    1    6    6    0    0 -0.20568255402E+02  0.11701510479E+02 -0.24236141000E+01  0.23787651904E+02  0.00000000000E+00 0. -1.
        -14    1    6    6    0    0  0.42569466506E+02 -0.83975288959E+01  0.61951349377E+02  0.75634963210E+02  0.00000000000E+00 0.  1.
</event>
<event>
12    1  0.1345781E-002  0.1951637E+03  0.7818608E-02  0.1153885E+00
          1   -1    0    0  502    0  0.00000000000E+00  0.00000000000E+00  0.48053251962E+03  0.48053251962E+03  0.00000000000E+00 0. -1.
         -1   -1    0    0    0  501 -0.00000000000E+00 -0.00000000000E+00 -0.79295076195E+02  0.79295076195E+02  0.00000000000E+00 0.  1.
          6    2    1    2  502    0  0.62693640861E+02  0.67218807182E+02  0.19553072223E+03  0.27655893571E+03  0.17263754209E+03 0.  0.
         24    2    3    3    0    0  0.63032586389E+02  0.11161843380E+03  0.14004753572E+03  0.20534155220E+03  0.78230806516E+02 0.  0.
         -6    2    1    2    0  501 -0.62693640861E+02 -0.67218807182E+02  0.20570672119E+03  0.28326866011E+03  0.17168872419E+03 0.  0.
        -24    2    5    5    0    0  0.20252149507E+02 -0.65925330959E+02  0.12049234011E+03  0.16425077085E+03  0.87770227742E+02 0.  0.
          5    1    3    3  502    0 -0.33894552842E+00 -0.44399626617E+02  0.55483186508E+02  0.71217383502E+02  0.47000000000E+01 0. -1.
        -11    1    4    4    0    0  0.43878288120E+01  0.36995161212E+02  0.13492336962E+01  0.37278887140E+02  0.00000000000E+00 0.  1.
         12    1    4    4    0    0  0.58644757577E+02  0.74623272587E+02  0.13869830203E+03  0.16806266506E+03  0.00000000000E+00 0. -1.
         -5    1    5    5    0  501 -0.82945790368E+02 -0.12934762234E+01  0.85214381087E+02  0.11901788926E+03  0.47000000000E+01 0.  1.
         13    1    6    6    0    0  0.39395828549E+02 -0.26401648889E+02  0.10897904959E+03  0.11885079563E+03  0.00000000000E+00 0. -1.
        -14    1    6    6    0    0 -0.19143679042E+02 -0.39523682070E+02  0.11513290516E+02  0.45399975222E+02  0.00000000000E+00 0.  1.
</event>
<event>
12    1  0.1345781E-002  0.1900344E+03  0.7818608E-02  0.1158430E+00
         -1   -1    0    0    0  501 -0.00000000000E+00  0.00000000000E+00  0.70634911918E+03  0.70634911918E+03  0.00000000000E+00 0.  1.
          1   -1    0    0  502    0  0.00000000000E+00 -0.00000000000E+00 -0.55841495058E+02  0.55841495058E+02  0.00000000000E+00 0. -1.
          6    2    1    2  502    0 -0.79577068944E+02 -0.18336927143E+01  0.43716480925E+03  0.47698427083E+03  0.17339276754E+03 0.  0.
         24    2    3    3    0    0 -0.14917490271E+02  0.57142373733E+02  0.28074495704E+03  0.29768480710E+03  0.79440110015E+02 0.  0.
         -6    2    1    2    0  501  0.79577068944E+02  0.18336927143E+01  0.21334281487E+03  0.28520634341E+03  0.17173127070E+03 0.  0.
        -24    2    5    5    0    0  0.75450930472E+02 -0.12976645472E+02  0.23414489759E+03  0.25891589302E+03  0.79701758785E+02 0.  0.
          5    1    3    3  502    0 -0.64659578674E+02 -0.58976066448E+02  0.15641985221E+03  0.17929946373E+03  0.47000000000E+01 0. -1.
        -13    1    4    4    0    0 -0.27586549620E+02  0.12369415018E+02  0.29758482593E+02  0.42421544457E+02  0.00000000000E+00 0.  1.
         14    1    4    4    0    0  0.12669059350E+02  0.44772958715E+02  0.25098647445E+03  0.25526326264E+03  0.00000000000E+00 0. -1.
         -5    1    5    5    0  501  0.41261384723E+01  0.14810338187E+02 -0.20802082726E+02  0.26290450389E+02  0.47000000000E+01 0.  1.
         11    1    6    6    0    0  0.54448010417E+02  0.21806778165E+02  0.19032002294E+03  0.19915278693E+03  0.00000000000E+00 0. -1.
        -12    1    6    6    0    0  0.21002920055E+02 -0.34783423638E+02  0.43824874657E+02  0.59763106090E+02  0.00000000000E+00 0.  1.
</event>
<event>
12    1  0.1345781E-002  0.2415627E+03  0.7818608E-02  0.1118756E+00
         -2   -1    0    0    0  501 -0.00000000000E+00  0.00000000000E+00  0.61237593470E+02  0.61237593470E+02  0.00000000000E+00 0. -1.
          2   -1    0    0  502    0  0.00000000000E+00 -0.00000000000E+00 -0.97465816308E+03  0.97465816308E+03  0.00000000000E+00 0.  1.
          6    2    1    2  502    0 -0.63921967791E+02  0.15691978004E+03 -0.53309260636E+03  0.58504234823E+03  0.17139716137E+03 0.  0.
         24    2    3    3    0    0 -0.10779620141E+03  0.99824073324E+02 -0.40716744068E+03  0.43990756448E+03  0.78412204946E+02 0.  0.
         -6    2    1    2    0  501  0.63921967791E+02 -0.15691978004E+03 -0.38032796325E+03  0.45085340833E+03  0.17294392397E+03 0.  0.
        -24    2    5    5    0    0  0.10707054795E+03 -0.93645360051E+02 -0.27452889201E+03  0.32015916335E+03  0.83079610202E+02 0.  0.
          5    1    3    3  502    0  0.43874233617E+02  0.57095706714E+02 -0.12592516568E+03  0.14513478375E+03  0.47000000000E+01 0. -1.
        -13    1    4    4    0    0  0.96713020890E+01  0.16385986024E+02 -0.83132602017E+02  0.85282261580E+02  0.00000000000E+00 0.  1.
         14    1    4    4    0    0 -0.11746750350E+03  0.83438087299E+02 -0.32403483866E+03  0.35462530290E+03  0.00000000000E+00 0. -1.
         -5    1    5    5    0  501 -0.43148580162E+02 -0.63274419987E+02 -0.10579907124E+03  0.13069424498E+03  0.47000000000E+01 0.  1.
         11    1    6    6    0    0  0.55633975490E+02 -0.91779600510E+02 -0.22218661718E+03  0.24674992838E+03  0.00000000000E+00 0. -1.
        -12    1    6    6    0    0  0.51436572463E+02 -0.18657595411E+01 -0.52342274824E+02  0.73409234972E+02  0.00000000000E+00 0.  1.
</event>
<event>
12    1  0.1345781E-002  0.2623731E+03  0.7818608E-02  0.1105726E+00
          1   -1    0    0  502    0  0.00000000000E+00  0.00000000000E+00  0.11125068164E+04  0.11125068164E+04  0.00000000000E+00 0.  1.
         -1   -1    0    0    0  501 -0.00000000000E+00 -0.00000000000E+00 -0.74838206846E+02  0.74838206846E+02  0.00000000000E+00 0. -1.
          6    2    1    2  502    0  0.91693619627E+02 -0.17535147826E+03  0.27181828398E+03  0.37780552615E+03  0.17232520208E+03 0.  0.
         24    2    3    3    0    0  0.11406555349E+03 -0.11744459115E+03  0.25459769259E+03  0.31321179760E+03  0.80482685085E+02 0.  0.
         -6    2    1    2    0  501 -0.91693619627E+02  0.17535147826E+03  0.76585032555E+03  0.80953949708E+03  0.17225450755E+03 0.  0.
        -24    2    5    5    0    0 -0.10350973740E+03  0.61230058965E+02  0.48728012643E+03  0.50823107565E+03  0.79959482167E+02 0.  0.
          5    1    3    3  502    0 -0.22371933861E+02 -0.57906887116E+02  0.17220591388E+02  0.64593728550E+02  0.47000000000E+01 0. -1.
        -13    1    4    4    0    0  0.11786804470E+02 -0.65274709022E+01 -0.37930518533E+01  0.13997281105E+02  0.00000000000E+00 0.  1.
         14    1    4    4    0    0  0.10227874902E+03 -0.11091712025E+03  0.25839074445E+03  0.29921451649E+03  0.00000000000E+00 0. -1.
         -5    1    5    5    0  501  0.11816117775E+02  0.11412141930E+03  0.27857019912E+03  0.30130842143E+03  0.47000000000E+01 0.  1.
         13    1    6    6    0    0  0.50169311186E-01  0.13179676198E+02  0.77309505573E+01  0.15279855306E+02  0.00000000000E+00 0. -1.
        -14    1    6    6    0    0 -0.10355990671E+03  0.48050382767E+02  0.47954917587E+03  0.49295122035E+03  0.00000000000E+00 0.  1.
</event>
<event>
12    1  0.1345781E-002  0.2011767E+03  0.7818608E-02  0.1148750E+00
          2   -1    0    0  502    0  0.00000000000E+00  0.00000000000E+00  0.32935897702E+03  0.32935897702E+03  0.00000000000E+00 0.  1.
         -2   -1    0    0    0  501 -0.00000000000E+00 -0.00000000000E+00 -0.12619861007E+03  0.12619861007E+03  0.00000000000E+00 0. -1.
          6    2    1    2  502    0 -0.91470300693E+02  0.52273226629E+02  0.64384207106E+02  0.21070352904E+03  0.17073764932E+03 0.  0.
         24    2    3    3    0    0 -0.12364096244E+03  0.50793671876E+02  0.79683255136E+02  0.17474116774E+03  0.79485658199E+02 0.  0.
         -6    2    1    2    0  501  0.91470300693E+02 -0.52273226629E+02  0.13877615985E+03  0.24485405805E+03  0.17203308132E+03 0.  0.
        -24    2    5    5    0    0  0.87236510862E+02 -0.47045984706E+02  0.16821739086E+03  0.21429059754E+03  0.88316680772E+02 0.  0.
          5    1    3    3  502    0  0.32170661746E+02  0.14795547530E+01 -0.15299048030E+02  0.35962361297E+02  0.47000000000E+01 0. -1.
        -13    1    4    4    0    0 -0.40503349995E+02  0.16684603676E+02  0.72352496420E+02  0.84580027778E+02  0.00000000000E+00 0.  1.
         14    1    4    4    0    0 -0.83137612444E+02  0.34109068199E+02  0.73307587152E+01  0.90161139964E+02  0.00000000000E+00 0. -1.
         -5    1    5    5    0  501  0.42337898306E+01 -0.52272419224E+01 -0.29441231013E+02  0.30563460504E+02  0.47000000000E+01 0.  1.
         13    1    6    6    0    0  0.15349898067E+02  0.26046886223E+02  0.38202114922E+02  0.48718181792E+02  0.00000000000E+00 0. -1.
        -14    1    6    6    0    0  0.71886612795E+02 -0.73092870930E+02  0.13001527594E+03  0.16557241575E+03  0.00000000000E+00 0.  1.
</event>
<event>
12    1  0.1345781E-002  0.1869877E+03  0.7818608E-02  0.1161207E+00
         -2   -1    0    0    0  501 -0.00000000000E+00  0.00000000000E+00  0.49641558922E+02  0.49641558922E+02  0.00000000000E+00 0.  1.
          2   -1    0    0  502    0  0.00000000000E+00 -0.00000000000E+00 -0.15839920016E+04  0.15839920016E+04  0.00000000000E+00 0. -1.
          6    2    1    2  502    0 -0.39827873283E+02  0.60167495882E+02 -0.13750206077E+04  0.13876135970E+04  0.17199835983E+03 0.  0.
         24    2    3    3    0    0 -0.42851723918E+02 -0.28384775166E+02 -0.82830953868E+03  0.83374923506E+03  0.79994558506E+02 0.  0.
         -6    2    1    2    0  501  0.39827873283E+02 -0.60167495882E+02 -0.15932983492E+03  0.24601996352E+03  0.17301282930E+03 0.  0.
        -24    2    5    5    0    0  0.55608983163E+02 -0.57859805482E+02 -0.18352625899E+03  0.21666139063E+03  0.82584225803E+02 0.  0.
          5    1    3    3  502    0  0.30238506344E+01  0.88552271048E+02 -0.54671106904E+03  0.55386436191E+03  0.47000000000E+01 0. -1.
        -11    1    4    4    0    0 -0.24421218221E+02 -0.36559889675E+02 -0.18608906491E+03  0.19121234665E+03  0.00000000000E+00 0.  1.
         12    1    4    4    0    0 -0.18430505697E+02  0.81751145098E+01 -0.64222047377E+03  0.64253688841E+03  0.00000000000E+00 0. -1.
         -5    1    5    5    0  501 -0.15781109879E+02 -0.23076903997E+01  0.24196424072E+02  0.29358572886E+02  0.47000000000E+01 0.  1.
         11    1    6    6    0    0 -0.70865568092E+01 -0.43789483331E+02 -0.41364283837E+02  0.60652634858E+02  0.00000000000E+00 0. -1.
        -12    1    6    6    0    0  0.62695539972E+02 -0.14070322151E+02 -0.14216197515E+03  0.15600875577E+03  0.00000000000E+00 0.  1.
</event>
<event>
12    1  0.1345781E-002  0.1731115E+03  0.7818608E-02  0.1174641E+00
          4   -1    0    0  502    0  0.00000000000E+00  0.00000000000E+00  0.73344334579E+02  0.73344334579E+02  0.00000000000E+00 0. -1.
         -4   -1    0    0    0  501 -0.00000000000E+00 -0.00000000000E+00 -0.66422786075E+03  0.66422786075E+03  0.00000000000E+00 0.  1.
          6    2    1    2  502    0 -0.61280074582E+01 -0.21363793137E+02 -0.52429343809E+03  0.55215281348E+03  0.17174153859E+03 0.  0.
         24    2    3    3    0    0 -0.31798465943E+02 -0.43582306885E+02 -0.18139709617E+03  0.20754778436E+03  0.85209250582E+02 0.  0.
         -6    2    1    2    0  501  0.61280074582E+01  0.21363793137E+02 -0.66590088081E+02  0.18541938185E+03  0.17161626730E+03 0.  0.
        -24    2    5    5    0    0  0.48892411706E+02 -0.32346258741E+02 -0.63121328039E+02  0.11651592591E+03  0.78453238055E+02 0.  0.
          5    1    3    3  502    0  0.25670458484E+02  0.22218513748E+02 -0.34289634192E+03  0.34460502911E+03  0.47000000000E+01 0. -1.
        -11    1    4    4    0    0  0.19083914996E+02 -0.18062646173E+02 -0.12383861945E+03  0.12659565026E+03  0.00000000000E+00 0.  1.
         12    1    4    4    0    0 -0.50882380939E+02 -0.25519660713E+02 -0.57558476724E+02  0.80952134102E+02  0.00000000000E+00 0. -1.
         -5    1    5    5    0  501 -0.42764404247E+02  0.53710051878E+02 -0.34687600421E+01  0.68903455934E+02  0.47000000000E+01 0.  1.
         13    1    6    6    0    0  0.50035017804E+02  0.11510427133E+02 -0.20297438919E+02  0.55208504472E+02  0.00000000000E+00 0. -1.
        -14    1    6    6    0    0 -0.11426060980E+01 -0.43856685874E+02 -0.42823889119E+02  0.61307421442E+02  0.00000000000E+00 0.  1.
</event>
<event>
12    1  0.1345781E-002  0.1799744E+03  0.7818608E-02  0.1167828E+00
          2   -1    0    0  502    0  0.00000000000E+00  0.00000000000E+00  0.29006997314E+04  0.29006997314E+04  0.00000000000E+00 0. -1.
         -2   -1    0    0    0  501 -0.00000000000E+00 -0.00000000000E+00 -0.12305159094E+02  0.12305159094E+02  0.00000000000E+00 0.  1.
          6    2    1    2  502    0  0.49125591415E+01  0.51428023524E+02  0.18871514745E+04  0.18957126651E+04  0.17238574800E+03 0.  0.
         24    2    3    3    0    0  0.34799796484E+02  0.69800818041E+02  0.77312806077E+03  0.78112706370E+03  0.79682565599E+02 0.  0.
         -6    2    1    2    0  501 -0.49125591415E+01 -0.51428023524E+02  0.10012430978E+04  0.10172922254E+04  0.17241448918E+03 0.  0.
        -24    2    5    5    0    0 -0.59750852556E+02 -0.12072151574E+02  0.42079567571E+03  0.43291441702E+03  0.81424753905E+02 0.  0.
          5    1    3    3  502    0 -0.29887237342E+02 -0.18372794517E+02  0.11140234137E+04  0.11145856014E+04  0.47000000000E+01 0. -1.
        -11    1    4    4    0    0  0.22862648122E+02  0.24228602314E+01  0.53210916038E+02  0.57965269916E+02  0.00000000000E+00 0.  1.
         12    1    4    4    0    0  0.11937148361E+02  0.67377957809E+02  0.71991714474E+03  0.72316179379E+03  0.00000000000E+00 0. -1.
         -5    1    5    5    0  501  0.54838293415E+02 -0.39355871950E+02  0.58044742208E+03  0.58437780834E+03  0.47000000000E+01 0.  1.
         11    1    6    6    0    0 -0.65085330782E+02 -0.14240470273E+02  0.42183418909E+03  0.42706319715E+03  0.00000000000E+00 0. -1.
        -12    1    6    6    0    0  0.53344782254E+01  0.21683186982E+01 -0.10385133849E+01  0.58512198698E+01  0.00000000000E+00 0.  1.
</event>
<event>
12    1  0.1345781E-002  0.1796517E+03  0.7818608E-02  0.1168141E+00
         -2   -1    0    0    0  501 -0.00000000000E+00  0.00000000000E+00  0.32699327606E+02  0.32699327606E+02  0.00000000000E+00 0. -1.
          2   -1    0    0  502    0  0.00000000000E+00 -0.00000000000E+00 -0.98708433255E+03  0.98708433255E+03  0.00000000000E+00 0.  1.
          6    2    1    2  502    0  0.40116731065E+02 -0.26764101270E+02 -0.47513366885E+03  0.50819986984E+03  0.17375107251E+03 0.  0.
         24    2    3    3    0    0  0.59369219664E+02 -0.60287695994E+01 -0.46297142929E+03  0.47704505692E+03  0.98327980202E+02 0.  0.
         -6    2    1    2    0  501 -0.40116731065E+02  0.26764101270E+02 -0.47925133609E+03  0.51158379032E+03  0.17236723047E+03 0.  0.
        -24    2    5    5    0    0  0.19124829534E+02 -0.55299971985E+01 -0.40035394254E+03  0.40766382108E+03  0.74230530991E+02 0.  0.
          5    1    3    3  502    0 -0.19252488600E+02 -0.20735331670E+02 -0.12162239567E+02  0.31154812919E+02  0.47000000000E+01 0. -1.
        -13    1    4    4    0    0  0.23654806481E+02 -0.48111982873E+02 -0.15115641929E+03  0.16038259213E+03  0.00000000000E+00 0.  1.
         14    1    4    4    0    0  0.35714413183E+02  0.42083213274E+02 -0.31181501000E+03  0.31666246479E+03  0.00000000000E+00 0. -1.
         -5    1    5    5    0  501 -0.59241560598E+02  0.32294098468E+02 -0.78897393547E+02  0.10391996924E+03  0.47000000000E+01 0.  1.
         11    1    6    6    0    0  0.34836213211E+02  0.18749474068E+02 -0.31650276726E+03  0.31896568187E+03  0.00000000000E+00 0. -1.
        -12    1    6    6    0    0 -0.15711383677E+02 -0.24279471267E+02 -0.83851175285E+02  0.88698139207E+02  0.00000000000E+00 0.  1.
</event>
<event>
12    1  0.1345781E-002  0.2318159E+03  0.7818608E-02  0.1125368E+00
          2   -1    0    0  502    0  0.00000000000E+00  0.00000000000E+00  0.83825446729E+03  0.83825446729E+03  0.00000000000E+00 0. -1.
         -2   -1    0    0    0  501 -0.00000000000E+00 -0.00000000000E+00 -0.20196936102E+03  0.20196936102E+03  0.00000000000E+00 0.  1.
          6    2    1    2  502    0 -0.15427574152E+03 -0.58796552172E+01  0.74806734626E+03  0.78330897989E+03  0.17358752452E+03 0.  0.
         24    2    3    3    0    0 -0.17668773235E+03  0.18182570260E+02  0.68060255389E+03  0.70811006875E+03  0.81552881453E+02 0.  0.
         -6    2    1    2    0  501  0.15427574152E+03  0.58796552172E+01 -0.11178224000E+03  0.25691484842E+03  0.17226257688E+03 0.  0.
        -24    2    5    5    0    0  0.16076854062E+03  0.17839534104E+01 -0.13986578835E+03  0.22742405491E+03  0.79432712787E+02 0.  0.
          5    1    3    3  502    0  0.22411990830E+02 -0.24062225477E+02  0.67464792364E+02  0.75198911140E+02  0.47000000000E+01 0. -1.
        -13    1    4    4    0    0 -0.87319337016E+02 -0.26586532249E+02  0.25244602468E+03  0.26844087932E+03  0.00000000000E+00 0.  1.
         14    1    4    4    0    0 -0.89368395331E+02  0.44769102508E+02  0.42815652922E+03  0.43966918943E+03  0.00000000000E+00 0. -1.
         -5    1    5    5    0  501 -0.64927991013E+01  0.40957018068E+01  0.28083548353E+02  0.29490793505E+02  0.47000000000E+01 0.  1.
         13    1    6    6    0    0  0.89971387398E+01 -0.88476429639E+01  0.82608476371E+01  0.15082138284E+02  0.00000000000E+00 0. -1.
        -14    1    6    6    0    0  0.15177140188E+03  0.10631596374E+02 -0.14812663599E+03  0.21234191663E+03  0.00000000000E+00 0.  1.
</event>
<event>
12    1  0.1345781E-002  0.1705378E+03  0.7818608E-02  0.1177288E+00
         -1   -1    0    0    0  501 -0.00000000000E+00  0.00000000000E+00  0.63019063515E+02  0.63019063515E+02  0.00000000000E+00 0.  1.
          1   -1    0    0  502    0  0.00000000000E+00 -0.00000000000E+00 -0.46289747905E+03  0.46289747905E+03  0.00000000000E+00 0. -1.
          6    2    1    2  502    0  0.22296601248E+02 -0.17583560659E+02 -0.18203161116E+03  0.24650288883E+03  0.16377376685E+03 0.  0.
         24    2    3    3    0    0 -0.11221598134E+02 -0.25945772922E+02 -0.19186727419E+03  0.21027822112E+03  0.81269748214E+02 0.  0.
         -6    2    1    2    0  501 -0.22296601248E+02  0.17583560659E+02 -0.21784680438E+03  0.27941365373E+03  0.17265120817E+03 0.  0.
        -24    2    5    5    0    0  0.70011292633E+01 -0.32496580644E+02 -0.42542209453E+02  0.94697199221E+02  0.77798948519E+02 0.  0.
          5    1    3    3  502    0  0.33518199383E+02  0.83622122631E+01  0.98356630292E+01  0.36224667714E+02  0.47000000000E+01 0. -1.
        -11    1    4    4    0    0 -0.36177734246E+02 -0.19627118260E+02 -0.44248974062E+02  0.60431977726E+02  0.00000000000E+00 0.  1.
         12    1    4    4    0    0  0.24956136112E+02 -0.63186546623E+01 -0.14761830013E+03  0.14984624339E+03  0.00000000000E+00 0. -1.
         -5    1    5    5    0  501 -0.29297730512E+02  0.50080141304E+02 -0.17530459493E+03  0.18471645451E+03  0.47000000000E+01 0.  1.
         13    1    6    6    0    0  0.25318359752E+02  0.14630240098E+00 -0.50443820629E+02  0.56441295030E+02  0.00000000000E+00 0. -1.
        -14    1    6    6    0    0 -0.18317230489E+02 -0.32642883045E+02  0.79016111768E+01  0.38255904191E+02  0.00000000000E+00 0.  1.
</event>
<event>
12    1  0.1345781E-002  0.2110376E+03  0.7818608E-02  0.1140747E+00
         -1   -1    0    0    0  501 -0.00000000000E+00  0.00000000000E+00  0.39457122589E+02  0.39457122589E+02  0.00000000000E+00 0. -1.
          1   -1    0    0  502    0  0.00000000000E+00 -0.00000000000E+00 -0.11314830964E+04  0.11314830964E+04  0.00000000000E+00 0.  1.
          6    2    1    2  502    0  0.97461548255E+02 -0.74147490659E+02 -0.51814909259E+03  0.55961520115E+03  0.17231972446E+03 0.  0.
         24    2    3    3    0    0  0.95332930630E+02 -0.86390858848E+02 -0.52377890261E+03  0.54518551513E+03  0.79568580092E+02 0.  0.
         -6    2    1    2    0  501 -0.97461548255E+02  0.74147490659E+02 -0.57387688124E+03  0.61132501786E+03  0.17142636579E+03 0.  0.
        -24    2    5    5    0    0 -0.63773185440E+02 -0.21583150407E+02 -0.35581762423E+03  0.37076070007E+03  0.79526495225E+02 0.  0.
          5    1    3    3  502    0  0.21286176252E+01  0.12243368188E+02  0.56298100157E+01  0.14429686012E+02  0.47000000000E+01 0. -1.
        -11    1    4    4    0    0  0.49979956340E+02  0.36473870404E+01 -0.15703500263E+03  0.16483716668E+03  0.00000000000E+00 0.  1.
         12    1    4    4    0    0  0.45352974290E+02 -0.90038245888E+02 -0.36674389997E+03  0.38034834845E+03  0.00000000000E+00 0. -1.
         -5    1    5    5    0  501 -0.33688362815E+02  0.95730641066E+02 -0.21805925701E+03  0.24056431779E+03  0.47000000000E+01 0.  1.
         11    1    6    6    0    0 -0.21481567534E+02 -0.13401547383E+02 -0.20199373978E+02  0.32389410694E+02  0.00000000000E+00 0. -1.
        -12    1    6    6    0    0 -0.42291617906E+02 -0.81816030237E+01 -0.33561825025E+03  0.33837128938E+03  0.00000000000E+00 0.  1.
</event>
<event>
12    1  0.1345781E-002  0.1960683E+03  0.7818608E-02  0.1153099E+00
         -2   -1    0    0    0  501 -0.00000000000E+00  0.00000000000E+00  0.27263413967E+02  0.27263413967E+02  0.00000000000E+00 0.  1.
          2   -1    0    0  502    0  0.00000000000E+00 -0.00000000000E+00 -0.14531601757E+04  0.14531601757E+04  0.00000000000E+00 0. -1.
          6    2    1    2  502    0 -0.65654367156E+02  0.69286275732E+02 -0.58669512373E+03  0.61870131651E+03  0.17166556705E+03 0.  0.
         24    2    3    3    0    0 -0.10080881058E+03  0.12075341891E+02 -0.37489396383E+03  0.39646102498E+03  0.79546401799E+02 0.  0.
         -6    2    1    2    0  501  0.65654367156E+02 -0.69286275732E+02 -0.83920163805E+03  0.86172227320E+03  0.17086486737E+03 0.  0.
        -24    2    5    5    0    0 -0.14656498870E+02 -0.92076723976E+01 -0.28857756718E+03  0.30201857374E+03  0.87399155665E+02 0.  0.
          5    1    3    3  502    0  0.35154443428E+02  0.57210933841E+02 -0.21180115990E+03  0.22224029153E+03  0.47000000000E+01 0. -1.
        -11    1    4    4    0    0 -0.85515029867E+02 -0.13913624919E+02 -0.18616665167E+03  0.20533979518E+03  0.00000000000E+00 0.  1.
         12    1    4    4    0    0 -0.15293780717E+02  0.25988966810E+02 -0.18872731215E+03  0.19112122979E+03  0.00000000000E+00 0. -1.
         -5    1    5    5    0  501  0.80310866026E+02 -0.60078603335E+02 -0.55062407087E+03  0.55970369947E+03  0.47000000000E+01 0.  1.
         11    1    6    6    0    0  0.29765785525E+02  0.16915361261E+02 -0.15742031680E+03  0.16110024077E+03  0.00000000000E+00 0. -1.
        -12    1    6    6    0    0 -0.44422284396E+02 -0.26123033658E+02 -0.13115725038E+03  0.14091833297E+03  0.00000000000E+00 0.  1.
</event>
<event>
12    1  0.1345781E-002  0.2224860E+03  0.7818608E-02  0.1132043E+00
         -2   -1    0    0    0  501 -0.00000000000E+00  0.00000000000E+00  0.34754660692E+02  0.34754660692E+02  0.00000000000E+00 0. -1.
          2   -1    0    0  502    0  0.00000000000E+00 -0.00000000000E+00 -0.18173900810E+04  0.18173900810E+04  0.00000000000E+00 0.  1.
          6    2    1    2  502    0  0.14176256140E+03 -0.11550257163E+02 -0.46172879942E+03  0.51269101588E+03  0.17154754818E+03 0.  0.
         24    2    3    3    0    0  0.11550607433E+03  0.54996371651E+02 -0.29347733637E+03  0.32980170034E+03  0.79208335919E+02 0.  0.
         -6    2    1    2    0  501 -0.14176256140E+03  0.11550257163E+02 -0.13209066209E+04  0.13394537258E+04  0.17062224429E+03 0.  0.
        -24    2    5    5    0    0 -0.14378823928E+02  0.41063184038E+02 -0.52294969330E+03  0.53084072956E+03  0.80140893312E+02 0.  0.
          5    1    3    3  502    0  0.26256487077E+02 -0.66546628814E+02 -0.16825146305E+03  0.18288931554E+03  0.47000000000E+01 0. -1.
        -11    1    4    4    0    0  0.29575163189E+02  0.57297225601E+02 -0.12281697281E+03  0.13871435091E+03  0.00000000000E+00 0.  1.
         12    1    4    4    0    0  0.85930911139E+02 -0.23008539499E+01 -0.17066036356E+03  0.19108734942E+03  0.00000000000E+00 0. -1.
         -5    1    5    5    0  501 -0.12738373748E+03 -0.29512926875E+02 -0.79795692756E+03  0.80861299623E+03  0.47000000000E+01 0.  1.
         13    1    6    6    0    0 -0.44703844714E+02  0.35098466281E+02 -0.26371087367E+03  0.26976612270E+03  0.00000000000E+00 0. -1.
        -14    1    6    6    0    0  0.30325020786E+02  0.59647177565E+01 -0.25923881963E+03  0.26107460686E+03  0.00000000000E+00 0.  1.
</event>
<event>
12    1  0.1345781E-002  0.1807784E+03  0.7818608E-02  0.1167052E+00
         -4   -1    0    0    0  501 -0.00000000000E+00  0.00000000000E+00  0.80604494399E+02  0.80604494399E+02  0.00000000000E+00 0. -1.
          4   -1    0    0  502    0  0.00000000000E+00 -0.00000000000E+00 -0.45036768217E+03  0.45036768217E+03  0.00000000000E+00 0.  1.
          6    2    1    2  502    0 -0.44223598907E+02  0.23857813171E+02 -0.27055637573E+03  0.32654095283E+03  0.17579339999E+03 0.  0.
         24    2    3    3    0    0 -0.43054801934E+02  0.83018870587E+02 -0.16286318383E+03  0.20357221542E+03  0.78558140241E+02 0.  0.
         -6    2    1    2    0  501  0.44223598907E+02 -0.23857813171E+02 -0.99206812044E+02  0.20443122374E+03  0.17153778515E+03 0.  0.
        -24    2    5    5    0    0  0.38019597590E+02 -0.74812362413E+02 -0.99985127532E+02  0.15287977860E+03  0.79579027434E+02 0.  0.
          5    1    3    3  502    0 -0.11687969733E+01 -0.59161057416E+02 -0.10769319190E+03  0.12296873742E+03  0.47000000000E+01 0. -1.
        -11    1    4    4    0    0 -0.23239262747E+02  0.32037600548E+02 -0.13786477213E+03  0.14343349182E+03  0.00000000000E+00 0.  1.
         12    1    4    4    0    0 -0.19815539187E+02  0.50981270039E+02 -0.24998411706E+02  0.60138723597E+02  0.00000000000E+00 0. -1.
         -5    1    5    5    0  501  0.62040013164E+01  0.50954549242E+02  0.77831548725E+00  0.51551445138E+02  0.47000000000E+01 0.  1.
         13    1    6    6    0    0 -0.21359343922E+02 -0.60606516582E+01 -0.80064496126E+01  0.23602040308E+02  0.00000000000E+00 0. -1.
        -14    1    6    6    0    0  0.59378941512E+02 -0.68751710754E+02 -0.91978677919E+02  0.12927773829E+03  0.00000000000E+00 0.  1.
</event>
<event>
12    1  0.1345781E-002  0.7241595E+03  0.7818608E-02  0.9676786E-01
         -1   -1    0    0    0  501 -0.00000000000E+00  0.00000000000E+00  0.65993560062E+03  0.65993560062E+03  0.00000000000E+00 0. -1.
          1   -1    0    0  502    0  0.00000000000E+00 -0.00000000000E+00 -0.81849345805E+03  0.81849345805E+03  0.00000000000E+00 0.  1.
          6    2    1    2  502    0  0.32922494294E+03 -0.62294797736E+03  0.46868936033E+02  0.72625583927E+03  0.16969856024E+03 0.  0.
         24    2    3    3    0    0  0.11632503926E+03 -0.32614513311E+03 -0.12509431233E+02  0.35616642056E+03  0.82437070848E+02 0.  0.
         -6    2    1    2    0  501 -0.32922494294E+03  0.62294797736E+03 -0.20542679346E+03  0.75217321940E+03  0.16465460503E+03 0.  0.
        -24    2    5    5    0    0 -0.31587454862E+03  0.57493413491E+03 -0.15031480938E+03  0.67772200796E+03  0.79916132316E+02 0.  0.
          5    1    3    3  502    0  0.21289990367E+03 -0.29680284425E+03  0.59378367266E+02  0.37008941871E+03  0.47000000000E+01 0. -1.
        -11    1    4    4    0    0  0.11915023353E+03 -0.23579985547E+03 -0.22886711963E+02  0.26518324150E+03  0.00000000000E+00 0.  1.
         12    1    4    4    0    0 -0.28251942704E+01 -0.90345277644E+02  0.10377280730E+02  0.90983179053E+02  0.00000000000E+00 0. -1.
         -5    1    5    5    0  501 -0.13350394315E+02  0.48013842456E+02 -0.55111984081E+02  0.74451211442E+02  0.47000000000E+01 0.  1.
         13    1    6    6    0    0 -0.14267872711E+03  0.18068245183E+03 -0.51965058710E+02  0.23601638692E+03  0.00000000000E+00 0. -1.
        -14    1    6    6    0    0 -0.17319582151E+03  0.39425168308E+03 -0.98349750671E+02  0.44170562104E+03  0.00000000000E+00 0.  1.
</event>
<event>
12    1  0.1345781E-002  0.1686435E+03  0.7818608E-02  0.1179270E+00
         -1   -1    0    0    0  501 -0.00000000000E+00  0.00000000000E+00  0.10186334651E+04  0.10186334651E+04  0.00000000000E+00 0.  1.
          1   -1    0    0  502    0  0.00000000000E+00 -0.00000000000E+00 -0.34671327777E+02  0.34671327777E+02  0.00000000000E+00 0. -1.
          6    2    1    2  502    0 -0.50578710533E+02 -0.72661480378E+01  0.23950380345E+03  0.28782168598E+03  0.15122251217E+03 0.  0.
         24    2    3    3    0    0 -0.26589935793E-01  0.39684269196E+02  0.11881041400E+03  0.14872156796E+03  0.80170745126E+02 0.  0.
         -6    2    1    2    0  501  0.50578710533E+02  0.72661480378E+01  0.74445833391E+03  0.76548310693E+03  0.17069028445E+03 0.  0.
        -24    2    5    5    0    0  0.72614450126E+01 -0.61065769857E+02  0.38807182603E+03  0.39999840206E+03  0.74948133156E+02 0.  0.
          5    1    3    3  502    0 -0.50552120597E+02 -0.46950417234E+02  0.12069338946E+03  0.13910011802E+03  0.47000000000E+01 0. -1.
        -13    1    4    4    0    0  0.22396176822E+02  0.37473794293E+02  0.21176105051E+02  0.48521144051E+02  0.00000000000E+00 0.  1.
         14    1    4    4    0    0 -0.22422766758E+02  0.22104749033E+01  0.97634308944E+02  0.10020042391E+03  0.00000000000E+00 0. -1.
         -5    1    5    5    0  501  0.43317265521E+02  0.68331917895E+02  0.35638650788E+03  0.36548470487E+03  0.47000000000E+01 0.  1.
         11    1    6    6    0    0  0.16576379974E+02 -0.29093478992E+02  0.49314242331E+02  0.59607897041E+02  0.00000000000E+00 0. -1.
        -12    1    6    6    0    0 -0.93149349616E+01 -0.31972290864E+02  0.33875758370E+03  0.34039050502E+03  0.00000000000E+00 0.  1.
</event>
<event>
12    1  0.1345781E-002  0.2987796E+03  0.7818608E-02  0.1085852E+00
          2   -1    0    0  502    0  0.00000000000E+00  0.00000000000E+00  0.91716102578E+02  0.91716102578E+02  0.00000000000E+00 0. -1.
         -2   -1    0    0    0  501 -0.00000000000E+00 -0.00000000000E+00 -0.99067309270E+03  0.99067309270E+03  0.00000000000E+00 0.  1.
          6    2    1    2  502    0  0.21233533282E+03 -0.12369330058E+03 -0.37634093579E+03  0.47987698268E+03  0.16811630613E+03 0.  0.
         24    2    3    3    0    0  0.11286138175E+03  0.26964974346E+00 -0.19354470013E+03  0.23759938619E+03  0.79095847959E+02 0.  0.
         -6    2    1    2    0  501 -0.21233533282E+03  0.12369330058E+03 -0.52261605433E+03  0.60251221259E+03  0.17177630774E+03 0.  0.
        -24    2    5    5    0    0 -0.18338975216E+03  0.36719506226E+02 -0.34684640400E+03  0.40422114491E+03  0.90067656182E+02 0.  0.
          5    1    3    3  502    0  0.99473951074E+02 -0.12396295033E+03 -0.18279623565E+03  0.24227759650E+03  0.47000000000E+01 0. -1.
        -13    1    4    4    0    0  0.67452348579E+02  0.36785298042E+02 -0.86285922168E+02  0.11553457424E+03  0.00000000000E+00 0.  1.
         14    1    4    4    0    0  0.45409033171E+02 -0.36515648298E+02 -0.10725877797E+03  0.12206481194E+03  0.00000000000E+00 0. -1.
         -5    1    5    5    0  501 -0.28945580667E+02  0.86973794356E+02 -0.17576965033E+03  0.19829106768E+03  0.47000000000E+01 0.  1.
         13    1    6    6    0    0 -0.11577934851E+03  0.29237935430E+01 -0.12765773815E+03  0.17236561206E+03  0.00000000000E+00 0. -1.
        -14    1    6    6    0    0 -0.67610403646E+02  0.33795712683E+02 -0.21918866585E+03  0.23185553285E+03  0.00000000000E+00 0.  1.
</event>
<event>
12    1  0.1345781E-002  0.1779670E+03  0.7818608E-02  0.1169785E+00
         -1   -1    0    0    0  501 -0.00000000000E+00  0.00000000000E+00  0.76950410479E+03  0.76950410479E+03  0.00000000000E+00 0. -1.
          1   -1    0    0  502    0  0.00000000000E+00 -0.00000000000E+00 -0.44622346495E+02  0.44622346495E+02  0.00000000000E+00 0.  1.
          6    2    1    2  502    0  0.44413138542E+02  0.19592543159E+02  0.24847237028E+03  0.30545533644E+03  0.17090362531E+03 0.  0.
         24    2    3    3    0    0  0.48805342715E+02 -0.50065546926E+02  0.18538452623E+03  0.21125498061E+03  0.73298866285E+02 0.  0.
         -6    2    1    2    0  501 -0.44413138542E+02 -0.19592543159E+02  0.47640938802E+03  0.50867111485E+03  0.17153426325E+03 0.  0.
        -24    2    5    5    0    0 -0.40448928167E+02  0.32709975608E+02  0.42402831874E+03  0.43439369667E+03  0.78688057002E+02 0.  0.
          5    1    3    3  502    0 -0.43922041731E+01  0.69658090086E+02  0.63087844048E+02  0.94200355830E+02  0.47000000000E+01 0. -1.
        -13    1    4    4    0    0  0.82758937078E+01  0.10705642219E+02  0.17733538563E+01  0.13647196631E+02  0.00000000000E+00 0.  1.
         14    1    4    4    0    0  0.40529449007E+02 -0.60771189146E+02  0.18361117237E+03  0.19760778398E+03  0.00000000000E+00 0. -1.
         -5    1    5    5    0  501 -0.39642103751E+01 -0.52302518768E+02  0.52381069275E+02  0.74277418181E+02  0.47000000000E+01 0.  1.
         13    1    6    6    0    0 -0.19224048123E+02 -0.19832381544E+02  0.24644962735E+03  0.24799255272E+03  0.00000000000E+00 0. -1.
        -14    1    6    6    0    0 -0.21224880044E+02  0.52542357153E+02  0.17757869140E+03  0.18640114395E+03  0.00000000000E+00 0.  1.
</event>
<event>
12    1  0.1345781E-002  0.2441453E+03  0.7818608E-02  0.1117062E+00
          1   -1    0    0  502    0  0.00000000000E+00  0.00000000000E+00  0.99400358456E+03  0.99400358456E+03  0.00000000000E+00 0. -1.
         -1   -1    0    0    0  501 -0.00000000000E+00 -0.00000000000E+00 -0.88600182002E+02  0.88600182002E+02  0.00000000000E+00 0.  1.
          6    2    1    2  502    0  0.47772664196E+01  0.17321793942E+03  0.76002635094E+03  0.79818063705E+03  0.17153716340E+03 0.  0.
         24    2    3    3    0    0  0.29735923002E+02  0.42011863924E+02  0.18849484261E+03  0.21123232263E+03  0.80246910260E+02 0.  0.
         -6    2    1    2    0  501 -0.47772664196E+01 -0.17321793942E+03  0.14537705162E+03  0.28442312951E+03  0.17243767759E+03 0.  0.
        -24    2    5    5    0    0 -0.21587224194E+02 -0.14293819461E+02  0.51974277722E+02  0.99259367513E+02  0.80503260624E+02 0.  0.
          5    1    3    3  502    0 -0.24958656582E+02  0.13120607550E+03  0.57153150832E+03  0.58694831441E+03  0.47000000000E+01 0. -1.
        -11    1    4    4    0    0 -0.25561660188E+02  0.51724894813E+01  0.32458588208E+02  0.41637880199E+02  0.00000000000E+00 0.  1.
         12    1    4    4    0    0  0.55297583190E+02  0.36839374443E+02  0.15603625441E+03  0.16959444244E+03  0.00000000000E+00 0. -1.
         -5    1    5    5    0  501  0.16809957774E+02 -0.15892411996E+03  0.93402773897E+02  0.18516376200E+03  0.47000000000E+01 0.  1.
         11    1    6    6    0    0 -0.40200947337E+02 -0.37220267828E+02  0.37345112471E+02  0.66303257307E+02  0.00000000000E+00 0. -1.
        -12    1    6    6    0    0  0.18613723143E+02  0.22926448367E+02  0.14629165251E+02  0.32956110206E+02  0.00000000000E+00 0.  1.
</event>
<event>
12    1  0.1345781E-002  0.1796805E+03  0.7818608E-02  0.1168113E+00
          2   -1    0    0  502    0  0.00000000000E+00  0.00000000000E+00  0.21087983422E+03  0.21087983422E+03  0.00000000000E+00 0.  1.
         -2   -1    0    0    0  501 -0.00000000000E+00 -0.00000000000E+00 -0.16067252150E+03  0.16067252150E+03  0.00000000000E+00 0. -1.
          6    2    1    2  502    0 -0.51942254808E+02 -0.16434312616E+02 -0.15166591251E+02  0.18080998096E+03  0.17173857825E+03 0.  0.
         24    2    3    3    0    0  0.21287955478E+02  0.32199647095E+02  0.89162326218E+01  0.89541157467E+02  0.80300220142E+02 0.  0.
         -6    2    1    2    0  501  0.51942254808E+02  0.16434312616E+02  0.65373903973E+02  0.19074237477E+03  0.17070682982E+03 0.  0.
        -24    2    5    5    0    0  0.25864403551E+02 -0.11709037396E+02  0.10513846348E+03  0.13528597145E+03  0.80262872117E+02 0.  0.
          5    1    3    3  502    0 -0.73230210286E+02 -0.48633959711E+02 -0.24082823873E+02  0.91268823491E+02  0.47000000000E+01 0. -1.
        -11    1    4    4    0    0 -0.16969071085E+02  0.45137790141E+02  0.95115374962E+01  0.49151183280E+02  0.00000000000E+00 0.  1.
         12    1    4    4    0    0  0.38257026563E+02 -0.12938143046E+02 -0.59530487445E+00  0.40389974187E+02  0.00000000000E+00 0. -1.
         -5    1    5    5    0  501  0.26077851257E+02  0.28143350012E+02 -0.39764559507E+02  0.55456403317E+02  0.47000000000E+01 0.  1.
         11    1    6    6    0    0  0.90863632332E+01  0.24088546014E+02  0.31922133088E+01  0.25942441514E+02  0.00000000000E+00 0. -1.
        -12    1    6    6    0    0  0.16778040318E+02 -0.35797583410E+02  0.10194625017E+03  0.10934352994E+03  0.00000000000E+00 0.  1.
</event>
<event>
12    1  0.1345781E-002  0.2847262E+03  0.7818608E-02  0.1093135E+00
         -1   -1    0    0    0  501 -0.00000000000E+00  0.00000000000E+00  0.45404927319E+02  0.45404927319E+02  0.00000000000E+00 0.  1.
          1   -1    0    0  502    0  0.00000000000E+00 -0.00000000000E+00 -0.19544622496E+04  0.19544622496E+04  0.00000000000E+00 0. -1.
          6    2    1    2  502    0 -0.85361274572E+02  0.20942418534E+03 -0.12462367352E+04  0.12781808445E+04  0.17174176722E+03 0.  0.
         24    2    3    3    0    0 -0.98222020259E+02  0.21077742816E+03 -0.93846041609E+03  0.97009711786E+03  0.79408916567E+02 0.  0.
         -6    2    1    2    0  501  0.85361274572E+02 -0.20942418534E+03 -0.66282058712E+03  0.72168633241E+03  0.17422684945E+03 0.  0.
        -24    2    5    5    0    0  0.12170859828E+02 -0.17817953526E+03 -0.54703113300E+03  0.58110769728E+03  0.80913649967E+02 0.  0.
          5    1    3    3  502    0  0.12860745687E+02 -0.13532428131E+01 -0.30777631911E+03  0.30808372668E+03  0.47000000000E+01 0. -1.
        -13    1    4    4    0    0 -0.97285231875E+02  0.12626766354E+03 -0.55519245538E+03  0.57762150385E+03  0.00000000000E+00 0.  1.
         14    1    4    4    0    0 -0.93678838418E+00  0.84509764616E+02 -0.38326796071E+03  0.39247561401E+03  0.00000000000E+00 0. -1.
         -5    1    5    5    0  501  0.73190414744E+02 -0.31244650087E+02 -0.11578945412E+03  0.14057863513E+03  0.47000000000E+01 0.  1.
         11    1    6    6    0    0 -0.59651838117E+01 -0.22390209808E+02 -0.18656237856E+03  0.18799581380E+03  0.00000000000E+00 0. -1.
        -12    1    6    6    0    0  0.18136043640E+02 -0.15578932545E+03 -0.36046875445E+03  0.39311188348E+03  0.00000000000E+00 0.  1.
</event>
<event>
12    1  0.1345781E-002  0.1928200E+03  0.7818608E-02  0.1155942E+00
         -2   -1    0    0    0  501 -0.00000000000E+00  0.00000000000E+00  0.73856408231E+02  0.73856408231E+02  0.00000000000E+00 0. -1.
          2   -1    0    0  502    0  0.00000000000E+00 -0.00000000000E+00 -0.62619188257E+03  0.62619188257E+03  0.00000000000E+00 0.  1.
          6    2    1    2  502    0  0.73236088881E+02 -0.14345113940E+02 -0.11585451931E+03  0.22088042174E+03  0.17261687071E+03 0.  0.
         24    2    3    3    0    0  0.57586426703E+02 -0.62133249879E+02 -0.30351495377E+02  0.12157546232E+03  0.81747431070E+02 0.  0.
         -6    2    1    2    0  501 -0.73236088881E+02  0.14345113940E+02 -0.43648095503E+03  0.47916786907E+03  0.18307625633E+03 0.  0.
        -24    2    5    5    0    0 -0.20874546769E+02 -0.22244853545E+02 -0.79178906632E+02  0.11617007210E+03  0.79344856062E+02 0.  0.
          5    1    3    3  502    0  0.15649662178E+02  0.47788135939E+02 -0.85503023934E+02  0.99304959417E+02  0.47000000000E+01 0. -1.
        -11    1    4    4    0    0  0.14260206642E+02  0.18510691391E+02 -0.17366525100E+02  0.29113491430E+02  0.00000000000E+00 0.  1.
         12    1    4    4    0    0  0.43326220061E+02 -0.80643941270E+02 -0.12984970277E+02  0.92461970893E+02  0.00000000000E+00 0. -1.
         -5    1    5    5    0  501 -0.52361542112E+02  0.36589967485E+02 -0.35730204840E+03  0.36299779697E+03  0.47000000000E+01 0.  1.
         13    1    6    6    0    0 -0.39587026984E+02 -0.11344259553E+01 -0.91128154987E+01  0.40638196736E+02  0.00000000000E+00 0. -1.
        -14    1    6    6    0    0  0.18712480215E+02 -0.21110427590E+02 -0.70066091134E+02  0.75531875361E+02  0.00000000000E+00 0.  1.
</event>
<event>
12    1  0.1345781E-002  0.2407096E+03  0.7818608E-02  0.1119321E+00
          2   -1    0    0  502    0  0.00000000000E+00  0.00000000000E+00  0.94827199668E+03  0.94827199668E+03  0.00000000000E+00 0. -1.
         -2   -1    0    0    0  501 -0.00000000000E+00 -0.00000000000E+00 -0.74485685659E+02  0.74485685659E+02  0.00000000000E+00 0.  1.
          6    2    1    2  502    0  0.12416366813E+03  0.11306753045E+03  0.21982450290E+03  0.32583289019E+03  0.17217252200E+03 0.  0.
         24    2    3    3    0    0  0.11043216862E+03  0.74550419122E+02  0.69531163672E+02  0.17000510140E+03  0.79461455581E+02 0.  0.
         -6    2    1    2    0  501 -0.12416366813E+03 -0.11306753045E+03  0.65396180813E+03  0.69692479215E+03  0.17273458398E+03 0.  0.
        -24    2    5    5    0    0 -0.11378704342E+03 -0.14493885829E+03  0.49243627555E+03  0.53189133023E+03  0.80374982472E+02 0.  0.
          5    1    3    3  502    0  0.13731499504E+02  0.38517111325E+02  0.15029333922E+03  0.15582778879E+03  0.47000000000E+01 0. -1.
        -11    1    4    4    0    0  0.38343839967E+02  0.19076751758E+01 -0.10823249253E+02  0.39887742633E+02  0.00000000000E+00 0.  1.
         12    1    4    4    0    0  0.72088328658E+02  0.72642743946E+02  0.80354412925E+02  0.13011735877E+03  0.00000000000E+00 0. -1.
         -5    1    5    5    0  501 -0.10376624713E+02  0.31871327841E+02  0.16152553258E+03  0.16503346192E+03  0.47000000000E+01 0.  1.
         11    1    6    6    0    0 -0.45650312608E+02 -0.50069616609E+02  0.29332723089E+03  0.30105112843E+03  0.00000000000E+00 0. -1.
        -12    1    6    6    0    0 -0.68136730808E+02 -0.94869241679E+02  0.19910904467E+03  0.23084020181E+03  0.00000000000E+00 0.  1.
</event>
<event>
12    1  0.1345781E-002  0.1794457E+03  0.7818608E-02  0.1168341E+00
         -2   -1    0    0    0  501 -0.00000000000E+00  0.00000000000E+00  0.56806274432E+03  0.56806274432E+03  0.00000000000E+00 0.  1.
          2   -1    0    0  502    0  0.00000000000E+00 -0.00000000000E+00 -0.69684543215E+02  0.69684543215E+02  0.00000000000E+00 0. -1.
          6    2    1    2  502    0 -0.84899719819E+01  0.39247665368E+02  0.38408710746E+03  0.42291679706E+03  0.17240432784E+03 0.  0.
         24    2    3    3    0    0  0.52589476153E+02  0.28058169110E+02  0.31198025329E+03  0.32764144752E+03  0.80401031314E+02 0.  0.
         -6    2    1    2    0  501  0.84899719819E+01 -0.39247665368E+02  0.11429109364E+03  0.21483049047E+03  0.17741822536E+03 0.  0.
        -24    2    5    5    0    0  0.17137708938E+01 -0.37177034427E+02 -0.85341187127E+01  0.91711331916E+02  0.83385060533E+02 0.  0.
          5    1    3    3  502    0 -0.61079448135E+02  0.11189496258E+02  0.72106854174E+02  0.95275349539E+02  0.47000000000E+01 0. -1.
        -11    1    4    4    0    0  0.35825523272E+02  0.55439081637E+02  0.17732722633E+03  0.18921391357E+03  0.00000000000E+00 0.  1.
         12    1    4    4    0    0  0.16763952881E+02 -0.27380912527E+02  0.13465302696E+03  0.13842753395E+03  0.00000000000E+00 0. -1.
         -5    1    5    5    0  501  0.67762010881E+01 -0.20706309410E+01  0.12282521236E+03  0.12311915856E+03  0.47000000000E+01 0.  1.
         13    1    6    6    0    0 -0.13928711688E+01  0.24551826298E+02  0.10931518837E+02  0.26911528548E+02  0.00000000000E+00 0. -1.
        -14    1    6    6    0    0  0.31066420625E+01 -0.61728860725E+02 -0.19465637550E+02  0.64799803368E+02  0.00000000000E+00 0.  1.
</event>
<event>
12    1  0.1345781E-002  0.2182212E+03  0.7818608E-02  0.1135216E+00
         -4   -1    0    0    0  501 -0.00000000000E+00  0.00000000000E+00  0.57923773839E+03  0.57923773839E+03  0.00000000000E+00 0. -1.
          4   -1    0    0  502    0  0.00000000000E+00 -0.00000000000E+00 -0.82478539314E+02  0.82478539314E+02  0.00000000000E+00 0.  1.
          6    2    1    2  502    0 -0.34867764668E+02 -0.12827301065E+03  0.22878833092E+03  0.31566914847E+03  0.17214291926E+03 0.  0.
         24    2    3    3    0    0 -0.41965510545E+02 -0.57992257846E+02  0.38842331727E+02  0.11295917135E+03  0.78274143959E+02 0.  0.
         -6    2    1    2    0  501  0.34867764668E+02  0.12827301065E+03  0.26797086815E+03  0.34604712924E+03  0.17398420388E+03 0.  0.
        -24    2    5    5    0    0 -0.35124094945E+02  0.59202309915E+02  0.75967810122E+02  0.13027668083E+03  0.80388368867E+02 0.  0.
          5    1    3    3  502    0  0.70977458772E+01 -0.70280752808E+02  0.18994599920E+03  0.20270997712E+03  0.47000000000E+01 0. -1.
        -11    1    4    4    0    0 -0.38643463232E+02 -0.71508866039E+02  0.11253099183E+02  0.82057707828E+02  0.00000000000E+00 0.  1.
         12    1    4    4    0    0 -0.33220473129E+01  0.13516608193E+02  0.27589232544E+02  0.30901463521E+02  0.00000000000E+00 0. -1.
         -5    1    5    5    0  501  0.69991859612E+02  0.69070700739E+02  0.19200305803E+03  0.21577044841E+03  0.47000000000E+01 0.  1.
         11    1    6    6    0    0 -0.34844545623E+02  0.69784494067E+02  0.85710958509E+02  0.11588954388E+03  0.00000000000E+00 0. -1.
        -12    1    6    6    0    0 -0.27954932142E+00 -0.10582184152E+02 -0.97431483863E+01  0.14387136954E+02  0.00000000000E+00 0.  1.
</event>
<event>
12    1  0.1345781E-002  0.1985229E+03  0.7818608E-02  0.1150991E+00
          2   -1    0    0  502    0  0.00000000000E+00  0.00000000000E+00  0.10728018972E+04  0.10728018972E+04  0.00000000000E+00 0. -1.
         -2   -1    0    0    0  501 -0.00000000000E+00 -0.00000000000E+00 -0.36775932969E+02  0.36775932969E+02  0.00000000000E+00 0.  1.
          6    2    1    2  502    0 -0.98289277870E+01 -0.97594332283E+02  0.53693593075E+03  0.57257508459E+03  0.17297621874E+03 0.  0.
         24    2    3    3    0    0 -0.61902692086E+01 -0.12377184062E+03  0.30472932593E+03  0.33882201167E+03  0.81133257945E+02 0.  0.
         -6    2    1    2    0  501  0.98289277870E+01  0.97594332283E+02  0.49909003349E+03  0.53700274559E+03  0.17222028255E+03 0.  0.
        -24    2    5    5    0    0  0.72850831810E+01  0.13517264113E+03  0.34397445864E+03  0.37731075455E+03  0.75632413361E+02 0.  0.
          5    1    3    3  502    0 -0.36386585784E+01  0.26177508341E+02  0.23220660482E+03  0.23375307292E+03  0.47000000000E+01 0. -1.
        -11    1    4    4    0    0  0.16818079676E+02 -0.12378526956E+03  0.26331903278E+03  0.29144905865E+03  0.00000000000E+00 0.  1.
         12    1    4    4    0    0 -0.23008348884E+02  0.13428939916E-01  0.41410293155E+02  0.47372953021E+02  0.00000000000E+00 0. -1.
         -5    1    5    5    0  501  0.25438446061E+01 -0.37578308852E+02  0.15511557485E+03  0.15969199104E+03  0.47000000000E+01 0.  1.
         11    1    6    6    0    0  0.93123011851E+01  0.86666712317E+02  0.29785959203E+03  0.31035169492E+03  0.00000000000E+00 0. -1.
        -12    1    6    6    0    0 -0.20272180041E+01  0.48505928818E+02  0.46114866616E+02  0.66959059629E+02  0.00000000000E+00 0.  1.
</event>
<event>
12    1  0.1345781E-002  0.2042976E+03  0.7818608E-02  0.1146163E+00
          2   -1    0    0  502    0  0.00000000000E+00  0.00000000000E+00  0.17275237084E+03  0.17275237084E+03  0.00000000000E+00 0. -1.
         -2   -1    0    0    0  501 -0.00000000000E+00 -0.00000000000E+00 -0.28754748371E+03  0.28754748371E+03  0.00000000000E+00 0.  1.
          6    2    1    2  502    0 -0.76260881656E+02  0.68453168331E+02 -0.14840271189E+03  0.24948042385E+03  0.17238201374E+03 0.  0.
         24    2    3    3    0    0  0.24482875592E+02  0.40307404484E+02 -0.43530387893E+02  0.10128533963E+03  0.78356411988E+02 0.  0.
         -6    2    1    2    0  501  0.76260881656E+02 -0.68453168331E+02  0.33607599017E+02  0.21081943070E+03  0.18114580680E+03 0.  0.
        -24    2    5    5    0    0  0.67052488832E+02 -0.10653114452E+03 -0.13461669026E+02  0.14940011156E+03  0.79336345950E+02 0.  0.
          5    1    3    3  502    0 -0.10074375725E+03  0.28145763847E+02 -0.10487232400E+03  0.14819508422E+03  0.47000000000E+01 0. -1.
        -13    1    4    4    0    0  0.24203201329E+02 -0.86064778928E+01 -0.45588257463E+02  0.52327388954E+02  0.00000000000E+00 0.  1.
         14    1    4    4    0    0  0.27967426352E+00  0.48913882377E+02  0.20578695692E+01  0.48957950672E+02  0.00000000000E+00 0. -1.
         -5    1    5    5    0  501  0.92083928237E+01  0.38077976194E+02  0.47069268042E+02  0.61419319139E+02  0.47000000000E+01 0.  1.
         13    1    6    6    0    0  0.77136579014E+02 -0.58896533773E+02 -0.23107008111E+02  0.99763657392E+02  0.00000000000E+00 0. -1.
        -14    1    6    6    0    0 -0.10084090181E+02 -0.47634610752E+02  0.96453390849E+01  0.49636454168E+02  0.00000000000E+00 0.  1.
</event>
<event>
12    1  0.1345781E-002  0.2004217E+03  0.7818608E-02  0.1149384E+00
          2   -1    0    0  502    0  0.00000000000E+00  0.00000000000E+00  0.13495807201E+03  0.13495807201E+03  0.00000000000E+00 0.  1.
         -2   -1    0    0    0  501 -0.00000000000E+00 -0.00000000000E+00 -0.55881611997E+03  0.55881611997E+03  0.00000000000E+00 0. -1.
          6    2    1    2  502    0 -0.69324583900E+02 -0.79126794001E+02  0.24783283496E+02  0.20271353171E+03  0.17149815549E+03 0.  0.
         24    2    3    3    0    0 -0.78292804341E+02 -0.31735232211E+01  0.21593302553E+02  0.12602197873E+03  0.96309054334E+02 0.  0.
         -6    2    1    2    0  501  0.69324583900E+02  0.79126794001E+02 -0.44864133145E+03  0.49106066028E+03  0.16968965885E+03 0.  0.
        -24    2    5    5    0    0 -0.21601435928E+02  0.55175089715E+02 -0.17009099790E+03  0.19703072381E+03  0.79870182152E+02 0.  0.
          5    1    3    3  502    0  0.89682204409E+01 -0.75953270780E+02  0.31899809426E+01  0.76691552980E+02  0.47000000000E+01 0. -1.
        -13    1    4    4    0    0 -0.65837367025E+02 -0.41001450761E+02  0.33453374018E+02  0.84467781399E+02  0.00000000000E+00 0.  1.
         14    1    4    4    0    0 -0.12455437316E+02  0.37827927540E+02 -0.11860071465E+02  0.41554197331E+02  0.00000000000E+00 0. -1.
         -5    1    5    5    0  501  0.90926019828E+02  0.23951704286E+02 -0.27855033355E+03  0.29402993647E+03  0.47000000000E+01 0.  1.
         11    1    6    6    0    0 -0.16862853985E+01  0.34685387463E+02 -0.16423139949E+03  0.16786265886E+03  0.00000000000E+00 0. -1.
        -12    1    6    6    0    0 -0.19915150529E+02  0.20489702252E+02 -0.58595984118E+01  0.29168064943E+02  0.00000000000E+00 0.  1.
</event>
<event>
12    1  0.1345781E-002  0.2578500E+03  0.7818608E-02  0.1108442E+00
          2   -1    0    0  502    0  0.00000000000E+00  0.00000000000E+00  0.68502360075E+03  0.68502360075E+03  0.00000000000E+00 0. -1.
         -2   -1    0    0    0  501 -0.00000000000E+00 -0.00000000000E+00 -0.11094764554E+03  0.11094764554E+03  0.00000000000E+00 0.  1.
          6    2    1    2  502    0 -0.40159203121E+01 -0.19189900089E+03  0.42900960036E+03  0.50115383140E+03  0.17396715601E+03 0.  0.
         24    2    3    3    0    0  0.17434663173E+02 -0.21098441825E+03  0.40390204407E+03  0.46272389424E+03  0.78473873814E+02 0.  0.
         -6    2    1    2    0  501  0.40159203121E+01  0.19189900089E+03  0.14506635485E+03  0.29481741488E+03  0.17038693214E+03 0.  0.
        -24    2    5    5    0    0 -0.49346523236E+02  0.16303177466E+03  0.13832002747E+03  0.23359266445E+03  0.80116564952E+02 0.  0.
          5    1    3    3  502    0 -0.21450583485E+02  0.19085417359E+02  0.25107556283E+02  0.38429937160E+02  0.47000000000E+01 0. -1.
        -11    1    4    4    0    0  0.22009787426E+01 -0.11343004191E+03  0.13542671891E+03  0.17666809250E+03  0.00000000000E+00 0.  1.
         12    1    4    4    0    0  0.15233684430E+02 -0.97554376342E+02  0.26847532517E+03  0.28605580174E+03  0.00000000000E+00 0. -1.
         -5    1    5    5    0  501  0.53362443548E+02  0.28867226232E+02  0.67463273808E+01  0.61224750427E+02  0.47000000000E+01 0.  1.
         13    1    6    6    0    0  0.12479474027E+02 -0.13208559706E+01  0.11096628057E+02  0.16751629375E+02  0.00000000000E+00 0. -1.
        -14    1    6    6    0    0 -0.61825997263E+02  0.16435263063E+03  0.12722339942E+03  0.21684103507E+03  0.00000000000E+00 0.  1.
</event>
<event>
12    1  0.1345781E-002  0.2503811E+03  0.7818608E-02  0.1113064E+00
          3   -1    0    0  502    0  0.00000000000E+00  0.00000000000E+00  0.11331279774E+04  0.11331279774E+04  0.00000000000E+00 0.  1.
         -3   -1    0    0    0  501 -0.00000000000E+00 -0.00000000000E+00 -0.59310780629E+02  0.59310780629E+02  0.00000000000E+00 0. -1.
          6    2    1    2  502    0 -0.95116209648E+02 -0.15542622150E+03  0.38174672353E+03  0.45636453921E+03  0.17127062813E+03 0.  0.
         24    2    3    3    0    0 -0.12157007474E+03 -0.14826454964E+03  0.37374606485E+03  0.42743018141E+03  0.79049220318E+02 0.  0.
         -6    2    1    2    0  501  0.95116209648E+02  0.15542622150E+03  0.69207047322E+03  0.73607421879E+03  0.17216071562E+03 0.  0.
        -24    2    5    5    0    0  0.12241613949E+03  0.79132022451E+02  0.50769784783E+03  0.53462584831E+03  0.82583925826E+02 0.  0.
          5    1    3    3  502    0  0.26453865096E+02 -0.71616718557E+01  0.80006586760E+01  0.28934357804E+02  0.47000000000E+01 0. -1.
        -11    1    4    4    0    0 -0.58094396258E+02 -0.11455163270E+03  0.18285545690E+03  0.22345727455E+03  0.00000000000E+00 0.  1.
         12    1    4    4    0    0 -0.63475678486E+02 -0.33712916940E+02  0.19089060795E+03  0.20397290686E+03  0.00000000000E+00 0. -1.
         -5    1    5    5    0  501 -0.27299929841E+02  0.76294199048E+02  0.18437262539E+03  0.20144837048E+03  0.47000000000E+01 0.  1.
         13    1    6    6    0    0  0.56437541152E+02  0.53416910019E+02  0.13952848009E+03  0.15970835634E+03  0.00000000000E+00 0. -1.
        -14    1    6    6    0    0  0.65978598337E+02  0.25715112432E+02  0.36816936774E+03  0.37491749197E+03  0.00000000000E+00 0.  1.
</event>
<event>
12    1  0.1345781E-002  0.1733464E+03  0.7818608E-02  0.1174402E+00
          2   -1    0    0  502    0  0.00000000000E+00  0.00000000000E+00  0.14844883249E+03  0.14844883249E+03  0.00000000000E+00 0. -1.
         -2   -1    0    0    0  501 -0.00000000000E+00 -0.00000000000E+00 -0.20884162497E+03  0.20884162497E+03  0.00000000000E+00 0.  1.
          6    2    1    2  502    0  0.14145362853E+02  0.19539703929E+02 -0.61417666965E+02  0.18335130185E+03  0.17106629929E+03 0.  0.
         24    2    3    3    0    0  0.50866546156E+02  0.49055967472E+02 -0.14740348510E+01  0.10696423391E+03  0.80282508028E+02 0.  0.
         -6    2    1    2    0  501 -0.14145362853E+02 -0.19539703929E+02  0.10248744899E+01  0.17393915561E+03  0.17225529939E+03 0.  0.
        -24    2    5    5    0    0 -0.44929833729E+02  0.29327752907E+02  0.38157270844E+02  0.10511607196E+03  0.81942688606E+02 0.  0.
          5    1    3    3  502    0 -0.36721183303E+02 -0.29516263543E+02 -0.59943632114E+02  0.76387067936E+02  0.47000000000E+01 0. -1.
        -13    1    4    4    0    0 -0.74382215420E+01  0.60234792846E+01 -0.28159347121E+02  0.29741524384E+02  0.00000000000E+00 0.  1.
         14    1    4    4    0    0  0.58304767698E+02  0.43032488187E+02  0.26685312270E+02  0.77222709528E+02  0.00000000000E+00 0. -1.
         -5    1    5    5    0  501  0.30784470876E+02 -0.48867456836E+02 -0.37132396354E+02  0.68823083654E+02  0.47000000000E+01 0.  1.
         11    1    6    6    0    0  0.23198347693E+02 -0.30791846012E+00  0.13468730236E+02  0.26826569733E+02  0.00000000000E+00 0. -1.
        -12    1    6    6    0    0 -0.68128181422E+02  0.29635671367E+02  0.24688540608E+02  0.78289502224E+02  0.00000000000E+00 0.  1.
</event>
<event>
12    1  0.1345781E-002  0.2391202E+03  0.7818608E-02  0.1120380E+00
         -2   -1    0    0    0  501 -0.00000000000E+00  0.00000000000E+00  0.37850672765E+02  0.37850672765E+02  0.00000000000E+00 0. -1.
          2   -1    0    0  502    0  0.00000000000E+00 -0.00000000000E+00 -0.15267529076E+04  0.15267529076E+04  0.00000000000E+00 0.  1.
          6    2    1    2  502    0  0.16336804959E+03  0.27864283553E+02 -0.82581875911E+03  0.85983092457E+03  0.17282088421E+03 0.  0.
         24    2    3    3    0    0  0.99626814274E+02  0.84280488261E+02 -0.50600860692E+03  0.52885304513E+03  0.81315006253E+02 0.  0.
         -6    2    1    2    0  501 -0.16336804959E+03 -0.27864283553E+02 -0.66308347570E+03  0.70477265577E+03  0.17192807408E+03 0.  0.
        -24    2    5    5    0    0 -0.12953884914E+03 -0.31230415122E+02 -0.27680628107E+03  0.31697385905E+03  0.78070851282E+02 0.  0.
          5    1    3    3  502    0  0.63741235312E+02 -0.56416204708E+02 -0.31981015219E+03  0.33097787943E+03  0.47000000000E+01 0. -1.
        -11    1    4    4    0    0  0.10312467853E+03  0.86768361894E+02 -0.38752021099E+03  0.41028692628E+03  0.00000000000E+00 0.  1.
         12    1    4    4    0    0 -0.34978642598E+01 -0.24878736326E+01 -0.11848839593E+03  0.11856611886E+03  0.00000000000E+00 0. -1.
         -5    1    5    5    0  501 -0.33829200447E+02  0.33661315689E+01 -0.38627719463E+03  0.38779879672E+03  0.47000000000E+01 0.  1.
         11    1    6    6    0    0 -0.81667333072E+02  0.44247913817E+01 -0.21943942242E+03  0.23418537995E+03  0.00000000000E+00 0. -1.
        -12    1    6    6    0    0 -0.47871516067E+02 -0.35655206503E+02 -0.57366858648E+02  0.82788479105E+02  0.00000000000E+00 0.  1.
</event>
<event>
12    1  0.1345781E-002  0.2627257E+03  0.7818608E-02  0.1105517E+00
         -2   -1    0    0    0  501 -0.00000000000E+00  0.00000000000E+00  0.39636839703E+03  0.39636839703E+03  0.00000000000E+00 0.  1.
          2   -1    0    0  502    0  0.00000000000E+00 -0.00000000000E+00 -0.17418011521E+03  0.17418011521E+03  0.00000000000E+00 0. -1.
          6    2    1    2  502    0 -0.11775173804E+02 -0.19766581756E+03  0.10697716720E+03  0.28376938590E+03  0.17283089980E+03 0.  0.
         24    2    3    3    0    0  0.58741120185E+02 -0.88927912306E+02  0.54446949772E+02  0.14384800262E+03  0.79806545666E+02 0.  0.
         -6    2    1    2    0  501  0.11775173804E+02  0.19766581756E+03  0.11521111462E+03  0.28677912633E+03  0.17250575706E+03 0.  0.
        -24    2    5    5    0    0  0.56873824391E+02  0.18969410955E+03  0.74572051896E+02  0.22537017069E+03  0.77538608548E+02 0.  0.
          5    1    3    3  502    0 -0.70516293988E+02 -0.10873790525E+03  0.52530217424E+02  0.13992138328E+03  0.47000000000E+01 0. -1.
        -13    1    4    4    0    0  0.41186821649E+02 -0.58495827737E+02 -0.82132473310E+01  0.72010926754E+02  0.00000000000E+00 0.  1.
         14    1    4    4    0    0  0.17554298535E+02 -0.30432084569E+02  0.62660197103E+02  0.71837075868E+02  0.00000000000E+00 0. -1.
         -5    1    5    5    0  501 -0.45098650587E+02  0.79717080109E+01  0.40639062728E+02  0.61408955640E+02  0.47000000000E+01 0.  1.
         11    1    6    6    0    0  0.28201541994E+02  0.60737115405E+02  0.64345183751E+02  0.92868869006E+02  0.00000000000E+00 0. -1.
        -12    1    6    6    0    0  0.28672282397E+02  0.12895699414E+03  0.10226868145E+02  0.13250130169E+03  0.00000000000E+00 0.  1.
</event>
<event>
12    1  0.1345781E-002  0.2004503E+03  0.7818608E-02  0.1149360E+00
         -2   -1    0    0    0  501 -0.00000000000E+00  0.00000000000E+00  0.89058376806E+02  0.89058376806E+02  0.00000000000E+00 0.  1.
          2   -1    0    0  502    0  0.00000000000E+00 -0.00000000000E+00 -0.48743885916E+03  0.48743885916E+03  0.00000000000E+00 0. -1.
          6    2    1    2  502    0 -0.90776022013E+02 -0.50085197573E+02 -0.27817669961E+03  0.34310284501E+03  0.17201300200E+03 0.  0.
         24    2    3    3    0    0 -0.51822578019E+01  0.22067309727E+02 -0.74056825943E+02  0.11025248618E+03  0.78468944719E+02 0.  0.
         -6    2    1    2    0  501  0.90776022013E+02  0.50085197573E+02 -0.12020378274E+03  0.23339439095E+03  0.17109990986E+03 0.  0.
        -24    2    5    5    0    0  0.42460312373E+02  0.61754900758E+01  0.67312228934E+01  0.90576129286E+02  0.79484030033E+02 0.  0.
          5    1    3    3  502    0 -0.85593764211E+02 -0.72152507300E+02 -0.20411987367E+03  0.23285035883E+03  0.47000000000E+01 0. -1.
        -11    1    4    4    0    0  0.13737351943E+02 -0.25319161007E+02 -0.15964007179E+02  0.32933634444E+02  0.00000000000E+00 0.  1.
         12    1    4    4    0    0 -0.18919609745E+02  0.47386470734E+02 -0.58092818765E+02  0.77318851735E+02  0.00000000000E+00 0. -1.
         -5    1    5    5    0  501  0.48315709639E+02  0.43909707497E+02 -0.12693500563E+03  0.14281826167E+03  0.47000000000E+01 0.  1.
         11    1    6    6    0    0  0.19203045414E+02 -0.34146609979E+02 -0.11117578745E+02  0.40722825091E+02  0.00000000000E+00 0. -1.
        -12    1    6    6    0    0  0.23257266959E+02  0.40322100055E+02  0.17848801639E+02  0.49853304195E+02  0.00000000000E+00 0.  1.
</event>
<event>
12    1  0.1345781E-002  0.1893371E+03  0.7818608E-02  0.1159061E+00
         -2   -1    0    0    0  501 -0.00000000000E+00  0.00000000000E+00  0.47007508706E+02  0.47007508706E+02  0.00000000000E+00 0. -1.
          2   -1    0    0  502    0  0.00000000000E+00 -0.00000000000E+00 -0.83095307243E+03  0.83095307243E+03  0.00000000000E+00 0.  1.
          6    2    1    2  502    0  0.66541197785E+02  0.43263499221E+02 -0.51900153950E+03  0.55266648383E+03  0.17256356216E+03 0.  0.
         24    2    3    3    0    0  0.10008239625E+03  0.33293923242E+02 -0.48799384156E+03  0.50567742371E+03  0.80291320128E+02 0.  0.
         -6    2    1    2    0  501 -0.66541197785E+02 -0.43263499221E+02 -0.26494402422E+03  0.32529409730E+03  0.17123507935E+03 0.  0.
        -24    2    5    5    0    0 -0.97732187805E+02 -0.24875052577E+02 -0.12136553272E+03  0.17714590780E+03  0.80502989667E+02 0.  0.
          5    1    3    3  502    0 -0.33541198464E+02  0.99695759797E+01 -0.31007697936E+02  0.46989060120E+02  0.47000000000E+01 0. -1.
        -11    1    4    4    0    0 -0.94481923569E+01 -0.12866814138E+01 -0.11510886808E+03  0.11550314021E+03  0.00000000000E+00 0.  1.
         12    1    4    4    0    0  0.10953058861E+03  0.34580604655E+02 -0.37288497348E+03  0.39017428350E+03  0.00000000000E+00 0. -1.
         -5    1    5    5    0  501  0.31190990021E+02 -0.18388446645E+02 -0.14357849150E+03  0.14814818950E+03  0.47000000000E+01 0.  1.
         11    1    6    6    0    0 -0.17504480529E+02 -0.41534022758E+02 -0.28628215595E+02  0.53395286433E+02  0.00000000000E+00 0. -1.
        -12    1    6    6    0    0 -0.80227707276E+02  0.16658970181E+02 -0.92737317125E+02  0.12375062137E+03  0.00000000000E+00 0.  1.
</event>
<event>
12    1  0.1345781E-002  0.1858613E+03  0.7818608E-02  0.1162248E+00
         -2   -1    0    0    0  501 -0.00000000000E+00  0.00000000000E+00  0.17436040035E+03  0.17436040035E+03  0.00000000000E+00 0.  1.
          2   -1    0    0  502    0  0.00000000000E+00 -0.00000000000E+00 -0.38356421740E+03  0.38356421740E+03  0.00000000000E+00 0. -1.
          6    2    1    2  502    0  0.25335940392E+01  0.70490810694E+02  0.89313723318E+02  0.20637211501E+03  0.17215439346E+03 0.  0.
         24    2    3    3    0    0  0.29145575636E+02 -0.17056473692E+02  0.37653721599E+02  0.10118860705E+03  0.87640992538E+02 0.  0.
         -6    2    1    2    0  501 -0.25335940392E+01 -0.70490810694E+02 -0.29851754037E+03  0.35155250275E+03  0.17175874589E+03 0.  0.
        -24    2    5    5    0    0 -0.59317504652E+02 -0.58431707251E+02 -0.13395625510E+03  0.17698921597E+03  0.80299897382E+02 0.  0.
          5    1    3    3  502    0 -0.26611981597E+02  0.87547284386E+02  0.51660001719E+02  0.10518350795E+03  0.47000000000E+01 0. -1.
        -11    1    4    4    0    0  0.31016368819E+01  0.13595685136E+02  0.55470720228E+02  0.57196709768E+02  0.00000000000E+00 0.  1.
         12    1    4    4    0    0  0.26043938754E+02 -0.30652158827E+02 -0.17816998628E+02  0.43991897285E+02  0.00000000000E+00 0. -1.
         -5    1    5    5    0  501  0.56783910613E+02 -0.12059103443E+02 -0.16456128528E+03  0.17456328678E+03  0.47000000000E+01 0.  1.
         11    1    6    6    0    0 -0.41988544121E+01 -0.29206061820E+02 -0.10338658361E+03  0.10751469711E+03  0.00000000000E+00 0. -1.
        -12    1    6    6    0    0 -0.55118650240E+02 -0.29225645432E+02 -0.30569671487E+02  0.69474518854E+02  0.00000000000E+00 0.  1.
</event>
<event>
12    1  0.1345781E-002  0.2015978E+03  0.7818608E-02  0.1148398E+00
         -2   -1    0    0    0  501 -0.00000000000E+00  0.00000000000E+00  0.41164332018E+02  0.41164332018E+02  0.00000000000E+00 0.  1.
          2   -1    0    0  502    0  0.00000000000E+00 -0.00000000000E+00 -0.15003885777E+04  0.15003885777E+04  0.00000000000E+00 0. -1.
          6    2    1    2  502    0  0.84919729452E+02 -0.61968771458E+02 -0.27896825850E+03  0.34420981984E+03  0.17206284241E+03 0.  0.
         24    2    3    3    0    0 -0.14998406911E+01 -0.13626219483E+02 -0.20429708580E+03  0.22010011649E+03  0.80739325177E+02 0.  0.
         -6    2    1    2    0  501 -0.84919729452E+02  0.61968771458E+02 -0.11802559872E+04  0.11973430899E+04  0.17197322614E+03 0.  0.
        -24    2    5    5    0    0 -0.78979818792E+02  0.10738429468E+03 -0.90422740245E+03  0.91750077379E+03  0.80070444172E+02 0.  0.
          5    1    3    3  502    0  0.86419570143E+02 -0.48342551975E+02 -0.74671172699E+02  0.12410970336E+03  0.47000000000E+01 0. -1.
        -11    1    4    4    0    0  0.26305872315E+02  0.92183889791E+01 -0.25701394317E+02  0.37914895272E+02  0.00000000000E+00 0.  1.
         12    1    4    4    0    0 -0.27805713006E+02 -0.22844608462E+02 -0.17859569149E+03  0.18218522121E+03  0.00000000000E+00 0. -1.
         -5    1    5    5    0  501 -0.59399106597E+01 -0.45415523220E+02 -0.27602858477E+03  0.27984231613E+03  0.47000000000E+01 0.  1.
         13    1    6    6    0    0 -0.83691744977E+01  0.37739307047E+01 -0.31252030763E+03  0.31265512680E+03  0.00000000000E+00 0. -1.
        -14    1    6    6    0    0 -0.70610644295E+02  0.10361036397E+03 -0.59170709482E+03  0.60484564698E+03  0.00000000000E+00 0.  1.
</event>
<event>
12    1  0.1345781E-002  0.3320300E+03  0.7818608E-02  0.1070242E+00
          2   -1    0    0  502    0  0.00000000000E+00  0.00000000000E+00  0.43463576238E+03  0.43463576238E+03  0.00000000000E+00 0. -1.
         -2   -1    0    0    0  501 -0.00000000000E+00 -0.00000000000E+00 -0.28952825293E+03  0.28952825293E+03  0.00000000000E+00 0.  1.
          6    2    1    2  502    0  0.16818585487E+03  0.22844795562E+03  0.20019991013E+03  0.38853925246E+03  0.17437831425E+03 0.  0.
         24    2    3    3    0    0  0.51016335015E+02  0.17757100763E+03  0.15127901083E+03  0.25167251213E+03  0.79495817848E+02 0.  0.
         -6    2    1    2    0  501 -0.16818585487E+03 -0.22844795562E+03 -0.55092400681E+02  0.33562476285E+03  0.17068643362E+03 0.  0.
        -24    2    5    5    0    0 -0.18909241218E+03 -0.23098283468E+03 -0.56014143787E+02  0.31402732410E+03  0.79790762101E+02 0.  0.
          5    1    3    3  502    0  0.11716951986E+03  0.50876947990E+02  0.48920899299E+02  0.13686674033E+03  0.47000000000E+01 0. -1.
        -11    1    4    4    0    0  0.54835868998E+02  0.83917258032E+02  0.44755643896E+02  0.10978226808E+03  0.00000000000E+00 0.  1.
         12    1    4    4    0    0 -0.38195339835E+01  0.93653749594E+02  0.10652336693E+03  0.14189024405E+03  0.00000000000E+00 0. -1.
         -5    1    5    5    0  501  0.20906557305E+02  0.25348790649E+01  0.92174310677E+00  0.21597438750E+02  0.47000000000E+01 0.  1.
         13    1    6    6    0    0 -0.15182146386E+03 -0.13503728204E+03 -0.16799902859E+02  0.20388001659E+03  0.00000000000E+00 0. -1.
        -14    1    6    6    0    0 -0.37270948320E+02 -0.95945552637E+02 -0.39214240929E+02  0.11014730751E+03  0.00000000000E+00 0.  1.
</event>
<event>
12    1  0.1345781E-002  0.1943631E+03  0.7818608E-02  0.1154584E+00
         -1   -1    0    0    0  501 -0.00000000000E+00  0.00000000000E+00  0.42638876485E+03  0.42638876485E+03  0.00000000000E+00 0.  1.
          1   -1    0    0  502    0  0.00000000000E+00 -0.00000000000E+00 -0.95306573763E+02  0.95306573763E+02  0.00000000000E+00 0. -1.
          6    2    1    2  502    0 -0.73043628014E+02 -0.53419882251E+02  0.23524148615E+03  0.30555005853E+03  0.17272297488E+03 0.  0.
         24    2    3    3    0    0 -0.60999655510E+02  0.32315466358E+02  0.94281062102E+02  0.14005825082E+03  0.77214944229E+02 0.  0.
         -6    2    1    2    0  501  0.73043628014E+02  0.53419882251E+02  0.95840704941E+02  0.21614528008E+03  0.17130173953E+03 0.  0.
        -24    2    5    5    0    0 -0.25556522241E+02  0.18565688744E+02  0.26099467846E+02  0.90356828358E+02  0.80531693025E+02 0.  0.
          5    1    3    3  502    0 -0.12043972504E+02 -0.85735348608E+02  0.14096042405E+03  0.16549180772E+03  0.47000000000E+01 0. -1.
        -13    1    4    4    0    0 -0.17247004778E+02  0.52533351001E+02  0.53162631936E+02  0.76703830253E+02  0.00000000000E+00 0.  1.
         14    1    4    4    0    0 -0.43752650732E+02 -0.20217884643E+02  0.41118430166E+02  0.63354420563E+02  0.00000000000E+00 0. -1.
         -5    1    5    5    0  501  0.98600150255E+02  0.34854193507E+02  0.69741237094E+02  0.12578845172E+03  0.47000000000E+01 0.  1.
         11    1    6    6    0    0 -0.20816405934E+02 -0.30638753997E+02  0.99683070669E+01  0.38359133831E+02  0.00000000000E+00 0. -1.
        -12    1    6    6    0    0 -0.47401163075E+01  0.49204442741E+02  0.16131160779E+02  0.51997694527E+02  0.00000000000E+00 0.  1.
</event>
<event>
12    1  0.1345781E-002  0.2446562E+03  0.7818608E-02  0.1116729E+00
         -1   -1    0    0    0  501 -0.00000000000E+00  0.00000000000E+00  0.57734239543E+02  0.57734239543E+02  0.00000000000E+00 0.  1.
          1   -1    0    0  502    0  0.00000000000E+00 -0.00000000000E+00 -0.10444303169E+04  0.10444303169E+04  0.00000000000E+00 0. -1.
          6    2    1    2  502    0 -0.13601168103E+03 -0.10811998809E+03 -0.44782184089E+03  0.51069351456E+03  0.17341959357E+03 0.  0.
         24    2    3    3    0    0 -0.14955266950E+03 -0.13274473312E+03 -0.41127080561E+03  0.46434910156E+03  0.80555865366E+02 0.  0.
         -6    2    1    2    0  501  0.13601168103E+03  0.10811998809E+03 -0.53887423644E+03  0.59147104186E+03  0.17106560570E+03 0.  0.
        -24    2    5    5    0    0  0.22875266348E+02  0.73577429093E+02 -0.36192447813E+03  0.37857119762E+03  0.79936899589E+02 0.  0.
          5    1    3    3  502    0  0.13540988478E+02  0.24624745024E+02 -0.36551035281E+02  0.46344413003E+02  0.47000000000E+01 0. -1.
        -11    1    4    4    0    0 -0.72650357266E+02 -0.18990356812E+02 -0.10910844901E+03  0.13245135601E+03  0.00000000000E+00 0.  1.
         12    1    4    4    0    0 -0.76902312239E+02 -0.11375437631E+03 -0.30216235660E+03  0.33189774555E+03  0.00000000000E+00 0. -1.
         -5    1    5    5    0  501  0.11313641468E+03  0.34542559001E+02 -0.17694975831E+03  0.21289984423E+03  0.47000000000E+01 0.  1.
         11    1    6    6    0    0  0.35780480361E+02  0.57022146154E+02 -0.13676137379E+03  0.15243175945E+03  0.00000000000E+00 0. -1.
        -12    1    6    6    0    0 -0.12905214012E+02  0.16555282938E+02 -0.22516310434E+03  0.22613943818E+03  0.00000000000E+00 0.  1.
</event>
<event>
12    1  0.1345781E-002  0.1816199E+03  0.7818608E-02  0.1166244E+00
         -2   -1    0    0    0  501 -0.00000000000E+00  0.00000000000E+00  0.15188669579E+02  0.15188669579E+02  0.00000000000E+00 0.  1.
          2   -1    0    0  502    0  0.00000000000E+00 -0.00000000000E+00 -0.22351716951E+04  0.22351716951E+04  0.00000000000E+00 0. -1.
          6    2    1    2  502    0  0.15095102391E+02  0.57002965464E+02 -0.92229522773E+03  0.94006781476E+03  0.17210987501E+03 0.  0.
         24    2    3    3    0    0  0.52469473004E+02  0.19760002889E+02 -0.29700358265E+03  0.31253645041E+03  0.79526105258E+02 0.  0.
         -6    2    1    2    0  501 -0.15095102391E+02 -0.57002965464E+02 -0.12976877978E+04  0.13102925499E+04  0.17145187557E+03 0.  0.
        -24    2    5    5    0    0 -0.43409393618E+02 -0.41793443031E+02 -0.40717890798E+03  0.41919143248E+03  0.79345615038E+02 0.  0.
          5    1    3    3  502    0 -0.37374370613E+02  0.37242962575E+02 -0.62529164508E+03  0.62753136436E+03  0.47000000000E+01 0. -1.
        -11    1    4    4    0    0 -0.22696808676E+01 -0.21400540067E+01  0.44150358781E+01  0.54059064177E+01  0.00000000000E+00 0.  1.
         12    1    4    4    0    0  0.54739153872E+02  0.21900056895E+02 -0.30141861853E+03  0.30713054399E+03  0.00000000000E+00 0. -1.
         -5    1    5    5    0  501  0.28314291227E+02 -0.15209522433E+02 -0.89050888982E+03  0.89110111744E+03  0.47000000000E+01 0.  1.
         11    1    6    6    0    0  0.18404349379E+02 -0.23337948558E+02 -0.72566896156E+02  0.78417691478E+02  0.00000000000E+00 0. -1.
        -12    1    6    6    0    0 -0.61813742997E+02 -0.18455494474E+02 -0.33461201182E+03  0.34077374100E+03  0.00000000000E+00 0.  1.
</event>
<event>
12    1  0.1345781E-002  0.1942497E+03  0.7818608E-02  0.1154683E+00
         -1   -1    0    0    0  501 -0.00000000000E+00  0.00000000000E+00  0.28889729230E+02  0.28889729230E+02  0.00000000000E+00 0.  1.
          1   -1    0    0  502    0  0.00000000000E+00 -0.00000000000E+00 -0.13807487973E+04  0.13807487973E+04  0.00000000000E+00 0. -1.
          6    2    1    2  502    0 -0.60385898169E+02 -0.61060481242E+02 -0.52071039678E+03  0.55666571867E+03  0.17709479370E+03 0.  0.
         24    2    3    3    0    0 -0.66441875228E+02 -0.94972177302E+02 -0.49072643092E+03  0.51075486814E+03  0.81387149322E+02 0.  0.
         -6    2    1    2    0  501  0.60385898169E+02  0.61060481242E+02 -0.83114867127E+03  0.85297280785E+03  0.17140495355E+03 0.  0.
        -24    2    5    5    0    0  0.69966402392E+02  0.79665173021E+02 -0.40136793417E+03  0.42265723457E+03  0.79379355635E+02 0.  0.
          5    1    3    3  502    0  0.60559770593E+01  0.33911696059E+02 -0.29983965858E+02  0.45910850529E+02  0.47000000000E+01 0. -1.
        -11    1    4    4    0    0 -0.70469555132E+01 -0.29310048156E+02 -0.33633738306E+02  0.45165992266E+02  0.00000000000E+00 0.  1.
         12    1    4    4    0    0 -0.59394919715E+02 -0.65662129145E+02 -0.45709269262E+03  0.46558887587E+03  0.00000000000E+00 0. -1.
         -5    1    5    5    0  501 -0.95805042233E+01 -0.18604691778E+02 -0.42978073711E+03  0.43031557328E+03  0.47000000000E+01 0.  1.
         13    1    6    6    0    0  0.83323152192E+02  0.43934151930E+02 -0.29325125010E+03  0.30800852761E+03  0.00000000000E+00 0. -1.
        -14    1    6    6    0    0 -0.13356749800E+02  0.35731021091E+02 -0.10811668406E+03  0.11464870696E+03  0.00000000000E+00 0.  1.
</event>
<event>
12    1  0.1345781E-002  0.2290329E+03  0.7818608E-02  0.1127322E+00
          2   -1    0    0  502    0  0.00000000000E+00  0.00000000000E+00  0.97365950481E+03  0.97365950481E+03  0.00000000000E+00 0. -1.
         -2   -1    0    0    0  501 -0.00000000000E+00 -0.00000000000E+00 -0.53876189416E+02  0.53876189416E+02  0.00000000000E+00 0.  1.
          6    2    1    2  502    0  0.99627543036E+02  0.11306951371E+03  0.46196854882E+03  0.51558902583E+03  0.17235643648E+03 0.  0.
         24    2    3    3    0    0  0.33955116415E+02  0.11547459806E+03  0.39932716826E+03  0.42467871504E+03  0.80015567050E+02 0.  0.
         -6    2    1    2    0  501 -0.99627543036E+02 -0.11306951371E+03  0.45781476658E+03  0.51194666840E+03  0.17258235288E+03 0.  0.
        -24    2    5    5    0    0 -0.10013089757E+03 -0.14152987922E+02  0.19854869902E+03  0.23441159633E+03  0.72805953724E+02 0.  0.
          5    1    3    3  502    0  0.65672426622E+02 -0.24050843507E+01  0.62641380555E+02  0.90910310784E+02  0.47000000000E+01 0. -1.
        -13    1    4    4    0    0  0.35055919868E+02  0.64520768835E+02  0.11956913218E+03  0.14031615908E+03  0.00000000000E+00 0.  1.
         14    1    4    4    0    0 -0.11008034531E+01  0.50953829228E+02  0.27975803608E+03  0.28436255596E+03  0.00000000000E+00 0. -1.
         -5    1    5    5    0  501  0.50335453095E+00 -0.98916525789E+02  0.25926606756E+03  0.27753507207E+03  0.47000000000E+01 0.  1.
         11    1    6    6    0    0 -0.36341558068E+02 -0.25858924323E+02  0.14037042408E+03  0.14728628167E+03  0.00000000000E+00 0. -1.
        -12    1    6    6    0    0 -0.63789339499E+02  0.11705936401E+02  0.58178274934E+02  0.87125314663E+02  0.00000000000E+00 0.  1.
</event>
<event>
12    1  0.1345781E-002  0.2567864E+03  0.7818608E-02  0.1109090E+00
          2   -1    0    0  502    0  0.00000000000E+00  0.00000000000E+00  0.95836113185E+03  0.95836113185E+03  0.00000000000E+00 0.  1.
         -2   -1    0    0    0  501 -0.00000000000E+00 -0.00000000000E+00 -0.93197395935E+02  0.93197395935E+02  0.00000000000E+00 0. -1.
          6    2    1    2  502    0  0.18445361897E+03  0.46923469850E+02  0.70156589886E+03  0.74708200990E+03  0.17237131287E+03 0.  0.
         24    2    3    3    0    0  0.16804221430E+03 -0.18934595363E+02  0.46378565637E+03  0.49976004833E+03  0.77886238600E+02 0.  0.
         -6    2    1    2    0  501 -0.18445361897E+03 -0.46923469850E+02  0.16359783705E+03  0.30447651788E+03  0.17238546366E+03 0.  0.
        -24    2    5    5    0    0 -0.10382200220E+03  0.33897341210E+02  0.12190116399E+03  0.18284525682E+03  0.81513534323E+02 0.  0.
          5    1    3    3  502    0  0.16411404671E+02  0.65858065212E+02  0.23778024250E+03  0.24732196158E+03  0.47000000000E+01 0. -1.
        -13    1    4    4    0    0  0.26567486727E+02  0.16775360229E+02  0.15608838676E+03  0.15921943519E+03  0.00000000000E+00 0.  1.
         14    1    4    4    0    0  0.14147472757E+03 -0.35709955592E+02  0.30769726961E+03  0.34054061313E+03  0.00000000000E+00 0. -1.
         -5    1    5    5    0  501 -0.80631616765E+02 -0.80820811060E+02  0.41696673062E+02  0.12163126106E+03  0.47000000000E+01 0.  1.
         13    1    6    6    0    0 -0.29291088899E+02  0.25467461737E+02 -0.10416502384E+01  0.38828398518E+02  0.00000000000E+00 0. -1.
        -14    1    6    6    0    0 -0.74530913303E+02  0.84298794731E+01  0.12294281422E+03  0.14401685830E+03  0.00000000000E+00 0.  1.
</event>
<event>
12    1  0.1345781E-002  0.2408375E+03  0.7818608E-02  0.1119236E+00
         -2   -1    0    0    0  501 -0.00000000000E+00  0.00000000000E+00  0.16704644709E+03  0.16704644709E+03  0.00000000000E+00 0. -1.
          2   -1    0    0  502    0  0.00000000000E+00 -0.00000000000E+00 -0.54671491332E+03  0.54671491332E+03  0.00000000000E+00 0.  1.
          6    2    1    2  502    0 -0.10750584192E+03 -0.13011188154E+03  0.25759339447E+02  0.24217888618E+03  0.17175698407E+03 0.  0.
         24    2    3    3    0    0 -0.98166545537E+02 -0.30782032157E+02 -0.17951130368E+02  0.13315440908E+03  0.82605383661E+02 0.  0.
         -6    2    1    2    0  501  0.10750584192E+03  0.13011188154E+03 -0.40542780568E+03  0.47158247422E+03  0.17184794621E+03 0.  0.
        -24    2    5    5    0    0  0.78912989499E+02  0.54690693089E+01 -0.16897170272E+03  0.20272012938E+03  0.79289620417E+02 0.  0.
          5    1    3    3  502    0 -0.93392963846E+01 -0.99329849380E+02  0.43710469815E+02  0.10902447710E+03  0.47000000000E+01 0. -1.
        -11    1    4    4    0    0 -0.33119172367E+02 -0.26102404974E+02 -0.45786958026E+02  0.62246772198E+02  0.00000000000E+00 0.  1.
         12    1    4    4    0    0 -0.65047373170E+02 -0.46796271826E+01  0.27835827659E+02  0.70907636883E+02  0.00000000000E+00 0. -1.
         -5    1    5    5    0  501  0.28592852423E+02  0.12464281223E+03 -0.23645610295E+03  0.26886234484E+03  0.47000000000E+01 0.  1.
         11    1    6    6    0    0  0.37117906155E+02 -0.14366761702E+02 -0.15984804577E+02  0.42891220273E+02  0.00000000000E+00 0. -1.
        -12    1    6    6    0    0  0.41795083344E+02  0.19835831011E+02 -0.15298689815E+03  0.15982890911E+03  0.00000000000E+00 0.  1.
</event>
<event>
12    1  0.1345781E-002  0.1991858E+03  0.7818608E-02  0.1150428E+00
          2   -1    0    0  502    0  0.00000000000E+00  0.00000000000E+00  0.59855280636E+03  0.59855280636E+03  0.00000000000E+00 0.  1.
         -2   -1    0    0    0  501 -0.00000000000E+00 -0.00000000000E+00 -0.66286004597E+02  0.66286004597E+02  0.00000000000E+00 0. -1.
          6    2    1    2  502    0 -0.57457289807E+02 -0.80174370041E+02  0.26787410846E+03  0.33416809415E+03  0.17373113540E+03 0.  0.
         24    2    3    3    0    0 -0.23714795684E+02 -0.89657197657E+02  0.27181839574E+03  0.29858541113E+03  0.81652941475E+02 0.  0.
         -6    2    1    2    0  501  0.57457289807E+02  0.80174370041E+02  0.26439269331E+03  0.33067071680E+03  0.17236692523E+03 0.  0.
        -24    2    5    5    0    0  0.63203852657E+02  0.14818022110E+02  0.67099594170E+02  0.12270165139E+03  0.79618081786E+02 0.  0.
          5    1    3    3  502    0 -0.33742494123E+02  0.94828276160E+01 -0.39442872800E+01  0.35582683027E+02  0.47000000000E+01 0. -1.
        -13    1    4    4    0    0 -0.52484437652E+02 -0.69158030916E+02  0.21240810493E+03  0.22946601595E+03  0.00000000000E+00 0.  1.
         14    1    4    4    0    0  0.28769641968E+02 -0.20499166741E+02  0.59410290807E+02  0.69119395179E+02  0.00000000000E+00 0. -1.
         -5    1    5    5    0  501 -0.57465628503E+01  0.65356347932E+02  0.19729309914E+03  0.20796906541E+03  0.47000000000E+01 0.  1.
         13    1    6    6    0    0  0.73104539756E+02  0.20172834979E+02  0.76733828562E+02  0.10788557573E+03  0.00000000000E+00 0. -1.
        -14    1    6    6    0    0 -0.99006870992E+01 -0.53548128692E+01 -0.96342343919E+01  0.14816075669E+02  0.00000000000E+00 0.  1.
</event>
<event>
12    1  0.1345781E-002  0.1816057E+03  0.7818608E-02  0.1166258E+00
          2   -1    0    0  502    0  0.00000000000E+00  0.00000000000E+00  0.15208159311E+04  0.15208159311E+04  0.00000000000E+00 0. -1.
         -2   -1    0    0    0  501 -0.00000000000E+00 -0.00000000000E+00 -0.22655303340E+02  0.22655303340E+02  0.00000000000E+00 0.  1.
          6    2    1    2  502    0  0.53122787790E+02 -0.19117592025E+02  0.90753383198E+03  0.92546837674E+03  0.17229784458E+03 0.  0.
         24    2    3    3    0    0  0.19077627298E+02 -0.15722864982E+02  0.87089701807E+03  0.87512015673E+03  0.82234471388E+02 0.  0.
         -6    2    1    2    0  501 -0.53122787790E+02  0.19117592025E+02  0.59062679575E+03  0.61800285767E+03  0.17291618584E+03 0.  0.
        -24    2    5    5    0    0  0.96632840364E+01  0.56181002581E+02  0.44820955814E+03  0.45793866184E+03  0.74607813900E+02 0.  0.
          5    1    3    3  502    0  0.34045160493E+02 -0.33947270431E+01  0.36636813914E+02  0.50348220013E+02  0.47000000000E+01 0. -1.
        -11    1    4    4    0    0  0.27559517429E+01  0.43603908298E+01  0.15473811179E+01  0.53854123818E+01  0.00000000000E+00 0.  1.
         12    1    4    4    0    0  0.16321675555E+02 -0.20083255812E+02  0.86934963695E+03  0.86973474435E+03  0.00000000000E+00 0. -1.
         -5    1    5    5    0  501 -0.62786071827E+02 -0.37063410556E+02  0.14241723761E+03  0.16006419583E+03  0.47000000000E+01 0.  1.
         11    1    6    6    0    0 -0.10957555838E+02  0.66469141399E+02  0.27150263526E+03  0.27973540309E+03  0.00000000000E+00 0. -1.
        -12    1    6    6    0    0  0.20620839875E+02 -0.10288138818E+02  0.17670692288E+03  0.17820325875E+03  0.00000000000E+00 0.  1.
</event>
<event>
12    1  0.1345781E-002  0.1837750E+03  0.7818608E-02  0.1164199E+00
         -2   -1    0    0    0  501 -0.00000000000E+00  0.00000000000E+00  0.32549097840E+02  0.32549097840E+02  0.00000000000E+00 0. -1.
          2   -1    0    0  502    0  0.00000000000E+00 -0.00000000000E+00 -0.12167199806E+04  0.12167199806E+04  0.00000000000E+00 0.  1.
          6    2    1    2  502    0 -0.53496940186E+01  0.46233046814E+02 -0.33746588999E+03  0.38159795515E+03  0.17195248944E+03 0.  0.
         24    2    3    3    0    0 -0.54158156750E+02  0.14248262223E+02 -0.28691477081E+03  0.30424940552E+03  0.84329687129E+02 0.  0.
         -6    2    1    2    0  501  0.53496940186E+01 -0.46233046814E+02 -0.84670499277E+03  0.86767112329E+03  0.18378715832E+03 0.  0.
        -24    2    5    5    0    0  0.22307066244E+02 -0.57397995590E+02 -0.83968920213E+03  0.84568203799E+03  0.79423032602E+02 0.  0.
          5    1    3    3  502    0  0.48808462731E+02  0.31984784590E+02 -0.50551119180E+02  0.77348549630E+02  0.47000000000E+01 0. -1.
        -13    1    4    4    0    0 -0.71691006249E+01  0.42481361619E+02 -0.88936691250E+02  0.98822047840E+02  0.00000000000E+00 0.  1.
         14    1    4    4    0    0 -0.46989056125E+02 -0.28233099396E+02 -0.19797807956E+03  0.20542735768E+03  0.00000000000E+00 0. -1.
         -5    1    5    5    0  501 -0.16957372226E+02  0.11164948776E+02 -0.70157906433E+01  0.21989085300E+02  0.47000000000E+01 0.  1.
         13    1    6    6    0    0 -0.78570136360E+01 -0.62751467731E+02 -0.40429240854E+03  0.40920878653E+03  0.00000000000E+00 0. -1.
        -14    1    6    6    0    0  0.30164079881E+02  0.53534721411E+01 -0.43539679358E+03  0.43647325146E+03  0.00000000000E+00 0.  1.
</event>
<event>
12    1  0.1345781E-002  0.2573270E+03  0.7818608E-02  0.1108760E+00
         -1   -1    0    0    0  501 -0.00000000000E+00  0.00000000000E+00  0.89362141788E+02  0.89362141788E+02  0.00000000000E+00 0.  1.
          1   -1    0    0  502    0  0.00000000000E+00 -0.00000000000E+00 -0.97031912532E+03  0.97031912532E+03  0.00000000000E+00 0. -1.
          6    2    1    2  502    0  0.18422738614E+03 -0.53801353393E+02 -0.69833162971E+03  0.74430671721E+03  0.17172975516E+03 0.  0.
         24    2    3    3    0    0  0.20663804374E+03 -0.62600282867E+02 -0.65714157554E+03  0.69636540625E+03  0.80446579689E+02 0.  0.
         -6    2    1    2    0  501 -0.18422738614E+03  0.53801353393E+02 -0.18262535382E+03  0.31537454990E+03  0.17109871839E+03 0.  0.
        -24    2    5    5    0    0 -0.20704824847E+03  0.33826247137E+02 -0.14555456333E+03  0.26724836019E+03  0.78881955663E+02 0.  0.
          5    1    3    3  502    0 -0.22410657608E+02  0.87989294738E+01 -0.41190054173E+02  0.47941310965E+02  0.47000000000E+01 0. -1.
        -11    1    4    4    0    0 -0.52902472072E+01 -0.10224568659E+02 -0.45478281763E+02  0.46912712902E+02  0.00000000000E+00 0.  1.
         12    1    4    4    0    0  0.21192829095E+03 -0.52375714208E+02 -0.61166329377E+03  0.64945269335E+03  0.00000000000E+00 0. -1.
         -5    1    5    5    0  501  0.22820862334E+02  0.19975106256E+02 -0.37070790491E+02  0.48126189702E+02  0.47000000000E+01 0.  1.
         11    1    6    6    0    0 -0.10870555576E+02  0.93926132129E+01 -0.41346519086E+02  0.43771278278E+02  0.00000000000E+00 0. -1.
        -12    1    6    6    0    0 -0.19617769289E+03  0.24433633924E+02 -0.10420804425E+03  0.22347708192E+03  0.00000000000E+00 0.  1.
</event>
<event>
12    1  0.1345781E-002  0.1825072E+03  0.7818608E-02  0.1165398E+00
         -4   -1    0    0    0  501 -0.00000000000E+00  0.00000000000E+00  0.20273918650E+02  0.20273918650E+02  0.00000000000E+00 0. -1.
          4   -1    0    0  502    0  0.00000000000E+00 -0.00000000000E+00 -0.17543184705E+04  0.17543184705E+04  0.00000000000E+00 0.  1.
          6    2    1    2  502    0 -0.37562867525E+02  0.51526001740E+02 -0.63680873581E+03  0.66203001727E+03  0.16938854713E+03 0.  0.
         24    2    3    3    0    0  0.14955806780E+01  0.86009519467E+02 -0.53321213668E+03  0.54597390705E+03  0.79827628475E+02 0.  0.
         -6    2    1    2    0  501  0.37562867525E+02 -0.51526001740E+02 -0.10972358161E+04  0.11125623719E+04  0.17263457776E+03 0.  0.
        -24    2    5    5    0    0  0.13123871202E+02  0.28955112533E+02 -0.76255874797E+03  0.76744600862E+03  0.80417022458E+02 0.  0.
          5    1    3    3  502    0 -0.39058448203E+02 -0.34483517728E+02 -0.10359659912E+03  0.11605611023E+03  0.47000000000E+01 0. -1.
        -13    1    4    4    0    0 -0.16875983644E+02  0.41643258415E+02 -0.42763791238E+03  0.42999202772E+03  0.00000000000E+00 0.  1.
         14    1    4    4    0    0  0.18371564322E+02  0.44366261053E+02 -0.10557422430E+03  0.11598187933E+03  0.00000000000E+00 0. -1.
         -5    1    5    5    0  501  0.24438996323E+02 -0.80481114272E+02 -0.33467706809E+03  0.34511636328E+03  0.47000000000E+01 0.  1.
         11    1    6    6    0    0 -0.14116235364E+02  0.32537449897E+02 -0.66892395867E+03  0.66986358031E+03  0.00000000000E+00 0. -1.
        -12    1    6    6    0    0  0.27240106566E+02 -0.35823373645E+01 -0.93634789302E+02  0.97582428307E+02  0.00000000000E+00 0.  1.
</event>
<event>
12    1  0.1345781E-002  0.2629825E+03  0.7818608E-02  0.1105364E+00
          1   -1    0    0  502    0  0.00000000000E+00  0.00000000000E+00  0.88002383363E+02  0.88002383363E+02  0.00000000000E+00 0.  1.
         -1   -1    0    0    0  501 -0.00000000000E+00 -0.00000000000E+00 -0.88600868549E+03  0.88600868549E+03  0.00000000000E+00 0. -1.
          6    2    1    2  502    0 -0.65424996246E+02  0.18833543455E+03 -0.23486272477E+03  0.35235346180E+03  0.17100232897E+03 0.  0.
         24    2    3    3    0    0 -0.88233804385E+02  0.75737530040E+02 -0.17711776562E+03  0.22368683778E+03  0.71719737909E+02 0.  0.
         -6    2    1    2    0  501  0.65424996246E+02 -0.18833543455E+03 -0.56314357736E+03  0.62165760706E+03  0.17197914309E+03 0.  0.
        -24    2    5    5    0    0 -0.26333081619E+02 -0.50145065240E+02 -0.21632096848E+03  0.23717856335E+03  0.79062954368E+02 0.  0.
          5    1    3    3  502    0  0.22808808138E+02  0.11259790451E+03 -0.57744959151E+02  0.12866662401E+03  0.47000000000E+01 0. -1.
        -11    1    4    4    0    0 -0.23188463755E+02 -0.83348262690E+01 -0.12238390310E+02  0.27512767539E+02  0.00000000000E+00 0.  1.
         12    1    4    4    0    0 -0.65045340629E+02  0.84072356309E+02 -0.16487937531E+03  0.19617407024E+03  0.00000000000E+00 0. -1.
         -5    1    5    5    0  501  0.91758077866E+02 -0.13819036931E+03 -0.34682260887E+03  0.38447904371E+03  0.47000000000E+01 0.  1.
         13    1    6    6    0    0 -0.20283984267E+02 -0.24052912348E+01 -0.16709589442E+03  0.16833972608E+03  0.00000000000E+00 0. -1.
        -14    1    6    6    0    0 -0.60490973521E+01 -0.47739774005E+02 -0.49225074057E+02  0.68838837271E+02  0.00000000000E+00 0.  1.
</event>
<event>
12    1  0.1345781E-002  0.1832798E+03  0.7818608E-02  0.1164666E+00
          1   -1    0    0  502    0  0.00000000000E+00  0.00000000000E+00  0.13156807148E+04  0.13156807148E+04  0.00000000000E+00 0. -1.
         -1   -1    0    0    0  501 -0.00000000000E+00 -0.00000000000E+00 -0.29345971834E+02  0.29345971834E+02  0.00000000000E+00 0.  1.
          6    2    1    2  502    0  0.11692485482E+02 -0.62156414474E+02  0.40290684098E+03  0.44293174957E+03  0.17278448481E+03 0.  0.
         24    2    3    3    0    0 -0.23839271649E+02  0.18562776109E+02  0.26945691016E+03  0.28290341605E+03  0.80712011809E+02 0.  0.
         -6    2    1    2    0  501 -0.11692485482E+02  0.62156414474E+02  0.88342790197E+03  0.90209493705E+03  0.17126086358E+03 0.  0.
        -24    2    5    5    0    0  0.28380958071E+02  0.95385361725E+02  0.69663684197E+03  0.70812835769E+03  0.78987564574E+02 0.  0.
          5    1    3    3  502    0  0.35531757130E+02 -0.80719190583E+02  0.13344993082E+03  0.16002833352E+03  0.47000000000E+01 0. -1.
        -13    1    4    4    0    0 -0.39290688194E+02 -0.13588623321E+01  0.58731942741E+02  0.70675637837E+02  0.00000000000E+00 0.  1.
         14    1    4    4    0    0  0.15451416545E+02  0.19921638441E+02  0.21072496742E+03  0.21222777821E+03  0.00000000000E+00 0. -1.
         -5    1    5    5    0  501 -0.40073443553E+02 -0.33228947251E+02  0.18679106000E+03  0.19396657936E+03  0.47000000000E+01 0.  1.
         11    1    6    6    0    0 -0.13892442795E+02  0.73322513484E+02  0.32576390313E+03  0.33420250079E+03  0.00000000000E+00 0. -1.
        -12    1    6    6    0    0  0.42273400867E+02  0.22062848241E+02  0.37087293884E+03  0.37392585690E+03  0.00000000000E+00 0.  1.
</event>
<event>
12    1  0.1345781E-002  0.1919136E+03  0.7818608E-02  0.1156747E+00
          3   -1    0    0  502    0  0.00000000000E+00  0.00000000000E+00  0.13759988653E+04  0.13759988653E+04  0.00000000000E+00 0. -1.
         -3   -1    0    0    0  501 -0.00000000000E+00 -0.00000000000E+00 -0.26808482774E+02  0.26808482774E+02  0.00000000000E+00 0.  1.
          6    2    1    2  502    0 -0.13262329220E+01 -0.79290664689E+02  0.63941960443E+03  0.66686033856E+03  0.17192007506E+03 0.  0.
         24    2    3    3    0    0  0.12964244676E+02  0.14058149243E+02  0.18821831229E+03  0.20585826172E+03  0.81152865872E+02 0.  0.
         -6    2    1    2    0  501  0.13262329220E+01  0.79290664689E+02  0.70977077810E+03  0.73594700952E+03  0.17763635602E+03 0.  0.
        -24    2    5    5    0    0  0.13746427083E+02  0.11176291683E+03  0.38082169409E+03  0.40513241151E+03  0.80169784443E+02 0.  0.
          5    1    3    3  502    0 -0.14290477598E+02 -0.93348813932E+02  0.45120129214E+03  0.46100207683E+03  0.47000000000E+01 0. -1.
        -13    1    4    4    0    0  0.40422055567E+02 -0.13547934705E+02  0.76895923142E+02  0.87923103373E+02  0.00000000000E+00 0.  1.
         14    1    4    4    0    0 -0.27457810891E+02  0.27606083948E+02  0.11132238915E+03  0.11793515835E+03  0.00000000000E+00 0. -1.
         -5    1    5    5    0  501 -0.12420194161E+02 -0.32472252139E+02  0.32894908401E+03  0.33081459800E+03  0.47000000000E+01 0.  1.
         13    1    6    6    0    0  0.15956814263E+02  0.26418310225E+02  0.22801177371E+03  0.23009110366E+03  0.00000000000E+00 0. -1.
        -14    1    6    6    0    0 -0.22103871802E+01  0.85344606603E+02  0.15280992038E+03  0.17504130785E+03  0.00000000000E+00 0.  1.
</event>
<event>
12    1  0.1345781E-002  0.1827514E+03  0.7818608E-02  0.1165166E+00
         -2   -1    0    0    0  501 -0.00000000000E+00  0.00000000000E+00  0.20984017051E+03  0.20984017051E+03  0.00000000000E+00 0.  1.
          2   -1    0    0  502    0  0.00000000000E+00 -0.00000000000E+00 -0.37783302897E+03  0.37783302897E+03  0.00000000000E+00 0. -1.
          6    2    1    2  502    0  0.24537089542E+02  0.54282122985E+02 -0.30752713821E+03  0.35770760717E+03  0.17272282376E+03 0.  0.
         24    2    3    3    0    0 -0.45018483418E+01  0.12385783449E+02 -0.29420401540E+03  0.30480998169E+03  0.78609464994E+02 0.  0.
         -6    2    1    2    0  501 -0.24537089542E+02 -0.54282122985E+02  0.13953427975E+03  0.22996559231E+03  0.17281707318E+03 0.  0.
        -24    2    5    5    0    0  0.25835990829E+02 -0.88473847774E+02  0.91401485165E+02  0.15221356864E+03  0.79496030255E+02 0.  0.
          5    1    3    3  502    0  0.29038937884E+02  0.41896339536E+02 -0.13323122809E+02  0.52897625479E+02  0.47000000000E+01 0. -1.
        -11    1    4    4    0    0  0.33174571177E+02  0.14910113141E+02 -0.20070153160E+03  0.20397050873E+03  0.00000000000E+00 0.  1.
         12    1    4    4    0    0 -0.37676419518E+02 -0.25243296920E+01 -0.93502483804E+02  0.10083947295E+03  0.00000000000E+00 0. -1.
         -5    1    5    5    0  501 -0.50373080371E+02  0.34191724789E+02  0.48132794581E+02  0.77752023667E+02  0.47000000000E+01 0.  1.
         11    1    6    6    0    0 -0.13826598294E+02 -0.78333959226E+01 -0.83497470666E+01  0.17951467576E+02  0.00000000000E+00 0. -1.
        -12    1    6    6    0    0  0.39662589123E+02 -0.80640451851E+02  0.99751232232E+02  0.13426210107E+03  0.00000000000E+00 0.  1.
</event>
<event>
12    1  0.1345781E-002  0.3843783E+03  0.7818608E-02  0.1049327E+00
          1   -1    0    0  502    0  0.00000000000E+00  0.00000000000E+00  0.55688881596E+03  0.55688881596E+03  0.00000000000E+00 0. -1.
         -1   -1    0    0    0  501 -0.00000000000E+00 -0.00000000000E+00 -0.32906752297E+03  0.32906752297E+03  0.00000000000E+00 0.  1.
          6    2    1    2  502    0 -0.23966861598E+03  0.24368549872E+03 -0.80906223877E+02  0.39350797222E+03  0.17742333378E+03 0.  0.
         24    2    3    3    0    0 -0.29770265587E+02  0.78609924542E+02 -0.46692105882E+01  0.11576450266E+03  0.79459609864E+02 0.  0.
         -6    2    1    2    0  501  0.23966861598E+03 -0.24368549872E+03  0.30872751686E+03  0.49244836671E+03  0.17426716969E+03 0.  0.
        -24    2    5    5    0    0  0.71597044740E+02 -0.16655158321E+03  0.17496732248E+03  0.26416877151E+03  0.79410384838E+02 0.  0.
          5    1    3    3  502    0 -0.20989835039E+03  0.16507557418E+03 -0.76237013289E+02  0.27774346956E+03  0.47000000000E+01 0. -1.
        -13    1    4    4    0    0  0.46822902888E+01  0.41116551100E+01  0.27058446684E+02  0.27766690243E+02  0.00000000000E+00 0.  1.
         14    1    4    4    0    0 -0.34452555876E+02  0.74498269432E+02 -0.31727657272E+02  0.87997812420E+02  0.00000000000E+00 0. -1.
         -5    1    5    5    0  501  0.16807157124E+03 -0.77133915504E+02  0.13376019438E+03  0.22827959519E+03  0.47000000000E+01 0.  1.
         13    1    6    6    0    0 -0.81942195467E-01  0.37713593131E+01 -0.49729990515E+01  0.62418414877E+01  0.00000000000E+00 0. -1.
        -14    1    6    6    0    0  0.71678986935E+02 -0.17032294253E+03  0.17994032153E+03  0.25792693002E+03  0.00000000000E+00 0.  1.
</event>
<event>
12    1  0.1345781E-002  0.2512556E+03  0.7818608E-02  0.1112514E+00
          4   -1    0    0  502    0  0.00000000000E+00  0.00000000000E+00  0.13864942161E+03  0.13864942161E+03  0.00000000000E+00 0. -1.
         -4   -1    0    0    0  501 -0.00000000000E+00 -0.00000000000E+00 -0.46777404885E+03  0.46777404885E+03  0.00000000000E+00 0.  1.
          6    2    1    2  502    0 -0.45498310378E+02 -0.17680167769E+03 -0.11450624028E+03  0.27528150105E+03  0.17128717488E+03 0.  0.
         24    2    3    3    0    0 -0.12698352157E+02 -0.12784971498E+03 -0.14219063840E+03  0.21000786310E+03  0.85897189403E+02 0.  0.
         -6    2    1    2    0  501  0.45498310378E+02  0.17680167769E+03 -0.21461838696E+03  0.33114196941E+03  0.17396845231E+03 0.  0.
        -24    2    5    5    0    0 -0.12308222201E+02  0.17479174112E+03 -0.14908362190E+03  0.24360608828E+03  0.80089667439E+02 0.  0.
          5    1    3    3  502    0 -0.32799958220E+02 -0.48951962714E+02  0.27684398120E+02  0.65273637957E+02  0.47000000000E+01 0. -1.
        -13    1    4    4    0    0 -0.38472510517E+02 -0.22850689497E+02 -0.28158193181E+02  0.52869385462E+02  0.00000000000E+00 0.  1.
         14    1    4    4    0    0  0.25774158360E+02 -0.10499902548E+03 -0.11403244522E+03  0.15713847763E+03  0.00000000000E+00 0. -1.
         -5    1    5    5    0  501  0.57806532579E+02  0.20099365754E+01 -0.65534765063E+02  0.87535881133E+02  0.47000000000E+01 0.  1.
         13    1    6    6    0    0  0.18372088915E+02  0.97347959005E+02 -0.41165796853E+02  0.10727898957E+03  0.00000000000E+00 0. -1.
        -14    1    6    6    0    0 -0.30680311116E+02  0.77443782114E+02 -0.10791782505E+03  0.13632709871E+03  0.00000000000E+00 0.  1.
</event>
<event>
12    1  0.1345781E-002  0.2050525E+03  0.7818608E-02  0.1145545E+00
         -1   -1    0    0    0  501 -0.00000000000E+00  0.00000000000E+00  0.93317441265E+02  0.93317441265E+02  0.00000000000E+00 0. -1.
          1   -1    0    0  502    0  0.00000000000E+00 -0.00000000000E+00 -0.53697585088E+03  0.53697585088E+03  0.00000000000E+00 0.  1.
          6    2    1    2  502    0  0.71316995637E+02  0.91425613917E+02 -0.96395835048E+02  0.22755014754E+03  0.17041759265E+03 0.  0.
         24    2    3    3    0    0  0.20622951591E+02 -0.25191810806E+01  0.13921609322E+02  0.73967794581E+02  0.69611572481E+02 0.  0.
         -6    2    1    2    0  501 -0.71316995637E+02 -0.91425613917E+02 -0.34726257457E+03  0.40274314461E+03  0.16782725668E+03 0.  0.
        -24    2    5    5    0    0  0.12734112947E+02 -0.47784814235E+02 -0.79185091975E+02  0.11838995766E+03  0.72803551973E+02 0.  0.
          5    1    3    3  502    0  0.50694044047E+02  0.93944794997E+02 -0.11031744437E+03  0.15358235296E+03  0.47000000000E+01 0. -1.
        -13    1    4    4    0    0  0.17702793810E+02 -0.24615963688E+02 -0.17829631077E+02  0.35174284944E+02  0.00000000000E+00 0.  1.
         14    1    4    4    0    0  0.29201577806E+01  0.22096782607E+02  0.31751240399E+02  0.38793509637E+02  0.00000000000E+00 0. -1.
         -5    1    5    5    0  501 -0.84051108584E+02 -0.43640799682E+02 -0.26807748259E+03  0.28435318694E+03  0.47000000000E+01 0.  1.
         13    1    6    6    0    0 -0.19064238199E+02 -0.51438048308E+02 -0.58933063476E+02  0.80513501741E+02  0.00000000000E+00 0. -1.
        -14    1    6    6    0    0  0.31798351146E+02  0.36532340736E+01 -0.20252028499E+02  0.37876455921E+02  0.00000000000E+00 0.  1.
</event>
<event>
12    1  0.1345781E-002  0.2332697E+03  0.7818608E-02  0.1124359E+00
          2   -1    0    0  502    0  0.00000000000E+00  0.00000000000E+00  0.20812099591E+04  0.20812099591E+04  0.00000000000E+00 0.  1.
         -2   -1    0    0    0  501 -0.00000000000E+00 -0.00000000000E+00 -0.29407726743E+02  0.29407726743E+02  0.00000000000E+00 0. -1.
          6    2    1    2  502    0 -0.14897242891E+03 -0.50062440788E+02  0.13764125230E+04  0.13959985523E+04  0.17205084144E+03 0.  0.
         24    2    3    3    0    0 -0.61396950368E+02 -0.89884443248E+02  0.88914569925E+03  0.89930316895E+03  0.79481548469E+02 0.  0.
         -6    2    1    2    0  501  0.14897242891E+03  0.50062440788E+02  0.67538970943E+03  0.71461913360E+03  0.17271425521E+03 0.  0.
        -24    2    5    5    0    0  0.16092267013E+03  0.35407765365E+02  0.41222119851E+03  0.45073028784E+03  0.77985000275E+02 0.  0.
          5    1    3    3  502    0 -0.87575478542E+02  0.39822002461E+02  0.48726682372E+03  0.49669538333E+03  0.47000000000E+01 0. -1.
        -13    1    4    4    0    0 -0.73872483447E+02 -0.52591138601E+02  0.49827148866E+03  0.50645577110E+03  0.00000000000E+00 0.  1.
         14    1    4    4    0    0  0.12475533079E+02 -0.37293304647E+02  0.39087421059E+03  0.39284739785E+03  0.00000000000E+00 0. -1.
         -5    1    5    5    0  501 -0.11950241217E+02  0.14654675423E+02  0.26316851092E+03  0.26388884576E+03  0.47000000000E+01 0.  1.
         13    1    6    6    0    0  0.12483665388E+03  0.52415346829E+02  0.25722329754E+03  0.29068089640E+03  0.00000000000E+00 0. -1.
        -14    1    6    6    0    0  0.36086016252E+02 -0.17007581464E+02  0.15499790097E+03  0.16004939144E+03  0.00000000000E+00 0.  1.
</event>
<event>
12    1  0.1345781E-002  0.1825342E+03  0.7818608E-02  0.1165373E+00
         -2   -1    0    0    0  501 -0.00000000000E+00  0.00000000000E+00  0.15432999658E+02  0.15432999658E+02  0.00000000000E+00 0. -1.
          2   -1    0    0  502    0  0.00000000000E+00 -0.00000000000E+00 -0.21958659768E+04  0.21958659768E+04  0.00000000000E+00 0.  1.
          6    2    1    2  502    0  0.45309954361E+02  0.36728361021E+02 -0.94238558410E+03  0.95975538875E+03  0.17215647721E+03 0.  0.
         24    2    3    3    0    0  0.47956595023E+01 -0.20830386878E+02 -0.75701235259E+03  0.76141290084E+03  0.78898670651E+02 0.  0.
         -6    2    1    2    0  501 -0.45309954361E+02 -0.36728361021E+02 -0.12380473931E+04  0.12515435877E+04  0.17377583276E+03 0.  0.
        -24    2    5    5    0    0  0.20639897376E+02  0.88463287440E+01 -0.36599705587E+03  0.37580372002E+03  0.82282004005E+02 0.  0.
          5    1    3    3  502    0  0.40514294859E+02  0.57558747899E+02 -0.18537323151E+03  0.19834248790E+03  0.47000000000E+01 0. -1.
        -13    1    4    4    0    0 -0.54386903567E+01  0.20913647672E+02 -0.52553649942E+03  0.52598058162E+03  0.00000000000E+00 0.  1.
         14    1    4    4    0    0  0.10234349859E+02 -0.41744034550E+02 -0.23147585316E+03  0.23543231922E+03  0.00000000000E+00 0. -1.
         -5    1    5    5    0  501 -0.65949851737E+02 -0.45574689765E+02 -0.87205033719E+03  0.87573986770E+03  0.47000000000E+01 0.  1.
         11    1    6    6    0    0 -0.13334727161E+02 -0.26248386662E+02 -0.72169223854E+02  0.77943502760E+02  0.00000000000E+00 0. -1.
        -12    1    6    6    0    0  0.33974624537E+02  0.35094715406E+02 -0.29382783201E+03  0.29786021726E+03  0.00000000000E+00 0.  1.
</event>
<event>
12    1  0.1345781E-002  0.1825192E+03  0.7818608E-02  0.1165387E+00
         -1   -1    0    0    0  501 -0.00000000000E+00  0.00000000000E+00  0.59847771962E+02  0.59847771962E+02  0.00000000000E+00 0.  1.
          1   -1    0    0  502    0  0.00000000000E+00 -0.00000000000E+00 -0.95417314196E+03  0.95417314196E+03  0.00000000000E+00 0. -1.
          6    2    1    2  502    0  0.33608131834E+02 -0.48171634963E+02 -0.12118032948E+03  0.21982726212E+03  0.17375079849E+03 0.  0.
         24    2    3    3    0    0 -0.32679199422E+02  0.11288436479E+02 -0.87060682037E+02  0.12435082145E+03  0.81781450005E+02 0.  0.
         -6    2    1    2    0  501 -0.33608131834E+02  0.48171634963E+02 -0.77314504052E+03  0.79419365181E+03  0.17187288895E+03 0.  0.
        -24    2    5    5    0    0  0.60445709802E+01  0.28614981954E+02 -0.18520958203E+03  0.20457937717E+03  0.81821624617E+02 0.  0.
          5    1    3    3  502    0  0.66287331256E+02 -0.59460071441E+02 -0.34119647447E+02  0.95476440669E+02  0.47000000000E+01 0. -1.
        -11    1    4    4    0    0  0.21052389219E+02 -0.87614272398E+01 -0.36002710174E+01  0.23085225806E+02  0.00000000000E+00 0.  1.
         12    1    4    4    0    0 -0.53731588642E+02  0.20049863719E+02 -0.83460411020E+02  0.10126559564E+03  0.00000000000E+00 0. -1.
         -5    1    5    5    0  501 -0.39652702814E+02  0.19556653009E+02 -0.58793545848E+03  0.58961427464E+03  0.47000000000E+01 0.  1.
         13    1    6    6    0    0  0.42734758869E+02  0.23833517856E+02 -0.12019578573E+03  0.12977412336E+03  0.00000000000E+00 0. -1.
        -14    1    6    6    0    0 -0.36690187888E+02  0.47814640976E+01 -0.65013796308E+02  0.74805253804E+02  0.00000000000E+00 0.  1.
</event>
<event>
12    1  0.1345781E-002  0.2484785E+03  0.7818608E-02  0.1114270E+00
         -2   -1    0    0    0  501 -0.00000000000E+00  0.00000000000E+00  0.27349129280E+02  0.27349129280E+02  0.00000000000E+00 0.  1.
          2   -1    0    0  502    0  0.00000000000E+00 -0.00000000000E+00 -0.23357393994E+04  0.23357393994E+04  0.00000000000E+00 0. -1.
          6    2    1    2  502    0  0.23763402331E+02 -0.17808465927E+03 -0.93598424747E+03  0.96828963982E+03  0.17099552602E+03 0.  0.
         24    2    3    3    0    0  0.37580662829E+02 -0.12690191321E+03 -0.38645159840E+03  0.41618565271E+03  0.79682230317E+02 0.  0.
         -6    2    1    2    0  501 -0.23763402331E+02  0.17808465927E+03 -0.13724060227E+04  0.13947988889E+04  0.17229859023E+03 0.  0.
        -24    2    5    5    0    0  0.15387836137E+02  0.18465724254E+03 -0.98784225934E+03  0.10081628890E+04  0.78898661091E+02 0.  0.
          5    1    3    3  502    0 -0.13817260498E+02 -0.51182746063E+02 -0.54953264907E+03  0.55210398710E+03  0.47000000000E+01 0. -1.
        -11    1    4    4    0    0  0.48501384761E+02 -0.39519581797E+02 -0.11653915207E+03  0.13227076636E+03  0.00000000000E+00 0.  1.
         12    1    4    4    0    0 -0.10920721932E+02 -0.87382331412E+02 -0.26991244632E+03  0.28391488635E+03  0.00000000000E+00 0. -1.
         -5    1    5    5    0  501 -0.39151238469E+02 -0.65725832663E+01 -0.38456376335E+03  0.38663599988E+03  0.47000000000E+01 0.  1.
         13    1    6    6    0    0  0.39562773065E+02  0.87679995768E+02 -0.37054818389E+03  0.38283018592E+03  0.00000000000E+00 0. -1.
        -14    1    6    6    0    0 -0.24174936928E+02  0.96977246770E+02 -0.61729407546E+03  0.62533270309E+03  0.00000000000E+00 0.  1.
</event>
<event>
12    1  0.1345781E-002  0.2423332E+03  0.7818608E-02  0.1118248E+00
         -2   -1    0    0    0  501 -0.00000000000E+00  0.00000000000E+00  0.19014365099E+03  0.19014365099E+03  0.00000000000E+00 0.  1.
          2   -1    0    0  502    0  0.00000000000E+00 -0.00000000000E+00 -0.30975562482E+03  0.30975562482E+03  0.00000000000E+00 0. -1.
          6    2    1    2  502    0 -0.16770668976E+03  0.39769578402E+01 -0.72801899890E+02  0.25139714192E+03  0.17250813416E+03 0.  0.
         24    2    3    3    0    0 -0.82902611713E+02  0.68730765652E+02 -0.38626628458E+02  0.13925960825E+03  0.79400635311E+02 0.  0.
         -6    2    1    2    0  501  0.16770668976E+03 -0.39769578402E+01 -0.46810073942E+02  0.24850213389E+03  0.17725906900E+03 0.  0.
        -24    2    5    5    0    0  0.91437533806E+02 -0.11049101357E+02 -0.96308947127E+02  0.15718276130E+03  0.83355275324E+02 0.  0.
          5    1    3    3  502    0 -0.84804078046E+02 -0.64753807811E+02 -0.34175271432E+02  0.11213753367E+03  0.47000000000E+01 0. -1.
        -13    1    4    4    0    0 -0.50747831505E+01  0.25983802473E+02  0.19719010545E+02  0.33011373674E+02  0.00000000000E+00 0.  1.
         14    1    4    4    0    0 -0.77827828562E+02  0.42746963179E+02 -0.58345639002E+02  0.10624823457E+03  0.00000000000E+00 0. -1.
         -5    1    5    5    0  501  0.76269155953E+02  0.70721435170E+01  0.49498873185E+02  0.91319372590E+02  0.47000000000E+01 0.  1.
         11    1    6    6    0    0  0.43605205885E+02 -0.14513848872E+02  0.38663816254E+01  0.46119569558E+02  0.00000000000E+00 0. -1.
        -12    1    6    6    0    0  0.47832327921E+02  0.34647475150E+01 -0.10017532875E+03  0.11106319174E+03  0.00000000000E+00 0.  1.
</event>
<event>
12    1  0.1345781E-002  0.2474961E+03  0.7818608E-02  0.1114898E+00
         -2   -1    0    0    0  501 -0.00000000000E+00  0.00000000000E+00  0.18146089777E+03  0.18146089777E+03  0.00000000000E+00 0. -1.
          2   -1    0    0  502    0  0.00000000000E+00 -0.00000000000E+00 -0.49217863843E+03  0.49217863843E+03  0.00000000000E+00 0.  1.
          6    2    1    2  502    0 -0.17807216772E+03 -0.59713963932E+01 -0.34425443967E+03  0.42414004372E+03  0.17215778507E+03 0.  0.
         24    2    3    3    0    0 -0.63713313707E+02 -0.30411353144E+02 -0.25764001492E+03  0.27853988042E+03  0.78878710396E+02 0.  0.
         -6    2    1    2    0  501  0.17807216772E+03  0.59713963932E+01  0.33536699005E+02  0.24949949248E+03  0.17140575276E+03 0.  0.
        -24    2    5    5    0    0  0.72284191831E+02  0.31184638879E+02  0.72979073176E+02  0.13372128072E+03  0.79736752534E+02 0.  0.
          5    1    3    3  502    0 -0.11435885401E+03  0.24439956751E+02 -0.86614424746E+02  0.14560016329E+03  0.47000000000E+01 0. -1.
        -11    1    4    4    0    0 -0.30611859496E+02 -0.34365150429E+02 -0.48886157521E+02  0.67140940588E+02  0.00000000000E+00 0.  1.
         12    1    4    4    0    0 -0.33101454211E+02  0.39537972856E+01 -0.20875385740E+03  0.21139893983E+03  0.00000000000E+00 0. -1.
         -5    1    5    5    0  501  0.10578797589E+03 -0.25213242486E+02 -0.39442374171E+02  0.11577821176E+03  0.47000000000E+01 0.  1.
         13    1    6    6    0    0  0.35911187256E+02 -0.21432286695E+02  0.51290781940E+02  0.66179306396E+02  0.00000000000E+00 0. -1.
        -14    1    6    6    0    0  0.36373004575E+02  0.52616925574E+02  0.21688291237E+02  0.67541974323E+02  0.00000000000E+00 0.  1.
</event>
<event>
12    1  0.1345781E-002  0.3518337E+03  0.7818608E-02  0.1061865E+00
         -1   -1    0    0    0  501 -0.00000000000E+00  0.00000000000E+00  0.16832896639E+03  0.16832896639E+03  0.00000000000E+00 0. -1.
          1   -1    0    0  502    0  0.00000000000E+00 -0.00000000000E+00 -0.75298757469E+03  0.75298757469E+03  0.00000000000E+00 0.  1.
          6    2    1    2  502    0  0.30528006738E+03  0.35898094059E+02 -0.22173309504E+03  0.41570036901E+03  0.17075315124E+03 0.  0.
         24    2    3    3    0    0  0.22576581916E+03 -0.28692709643E+02 -0.19406680487E+03  0.30948360383E+03  0.79527979983E+02 0.  0.
         -6    2    1    2    0  501 -0.30528006738E+03 -0.35898094059E+02 -0.36292551326E+03  0.50561617208E+03  0.17160475692E+03 0.  0.
        -24    2    5    5    0    0 -0.18358565282E+03 -0.53201722277E+01 -0.12348235181E+03  0.23524668896E+03  0.79756612912E+02 0.  0.
          5    1    3    3  502    0  0.79514248218E+02  0.64590803701E+02 -0.27666290175E+02  0.10621676518E+03  0.47000000000E+01 0. -1.
        -13    1    4    4    0    0  0.11843890643E+02  0.14425847641E+02 -0.34218315197E+02  0.38977890151E+02  0.00000000000E+00 0.  1.
         14    1    4    4    0    0  0.21392192852E+03 -0.43118557283E+02 -0.15984848967E+03  0.27050571368E+03  0.00000000000E+00 0. -1.
         -5    1    5    5    0  501 -0.12169441456E+03 -0.30577921831E+02 -0.23944316145E+03  0.27036948312E+03  0.47000000000E+01 0.  1.
         13    1    6    6    0    0  0.17611943070E+00 -0.11884545053E+02 -0.22542638425E+02  0.25484190713E+02  0.00000000000E+00 0. -1.
        -14    1    6    6    0    0 -0.18376177225E+03  0.65643728256E+01 -0.10093971338E+03  0.20976249824E+03  0.00000000000E+00 0.  1.
</event>
<event>
12    1  0.1345781E-002  0.2054784E+03  0.7818608E-02  0.1145198E+00
         -1   -1    0    0    0  501 -0.00000000000E+00  0.00000000000E+00  0.11951450864E+03  0.11951450864E+03  0.00000000000E+00 0. -1.
          1   -1    0    0  502    0  0.00000000000E+00 -0.00000000000E+00 -0.78932906447E+03  0.78932906447E+03  0.00000000000E+00 0.  1.
          6    2    1    2  502    0 -0.76113429007E+02 -0.80328276038E+02  0.26945969102E+01  0.20570469435E+03  0.17338187454E+03 0.  0.
         24    2    3    3    0    0 -0.11982097486E+03 -0.69150352937E+02  0.88824703658E+01  0.15992614799E+03  0.79741063456E+02 0.  0.
         -6    2    1    2    0  501  0.76113429007E+02  0.80328276038E+02 -0.67250915274E+03  0.70313887876E+03  0.17288677306E+03 0.  0.
        -24    2    5    5    0    0  0.21394877543E+02  0.50033592409E+02 -0.59701875212E+03  0.60499216045E+03  0.81381955361E+02 0.  0.
          5    1    3    3  502    0  0.43707545857E+02 -0.11177923101E+02 -0.61878734556E+01  0.45778546368E+02  0.47000000000E+01 0. -1.
        -11    1    4    4    0    0 -0.30843846699E+02 -0.21710651407E+02 -0.33594892055E+02  0.50510514112E+02  0.00000000000E+00 0.  1.
         12    1    4    4    0    0 -0.88977128165E+02 -0.47439701529E+02  0.42477362420E+02  0.10941563387E+03  0.00000000000E+00 0. -1.
         -5    1    5    5    0  501  0.54718551465E+02  0.30294683629E+02 -0.75490400611E+02  0.98146718309E+02  0.47000000000E+01 0.  1.
         11    1    6    6    0    0 -0.22830076103E+02  0.48248903569E+02 -0.34816879065E+03  0.35223667591E+03  0.00000000000E+00 0. -1.
        -12    1    6    6    0    0  0.44224953646E+02  0.17846888397E+01 -0.24884996147E+03  0.25275548454E+03  0.00000000000E+00 0.  1.
</event>
<event>
12    1  0.1345781E-002  0.2421142E+03  0.7818608E-02  0.1118392E+00
          1   -1    0    0  502    0  0.00000000000E+00  0.00000000000E+00  0.15467351575E+03  0.15467351575E+03  0.00000000000E+00 0. -1.
         -1   -1    0    0    0  501 -0.00000000000E+00 -0.00000000000E+00 -0.69874558335E+03  0.69874558335E+03  0.00000000000E+00 0.  1.
          6    2    1    2  502    0  0.56297283244E+02 -0.16025327978E+03 -0.56042138334E+03  0.61030791520E+03  0.17191022852E+03 0.  0.
         24    2    3    3    0    0 -0.22363270167E+02 -0.76193915707E+02 -0.37884372647E+03  0.39525909557E+03  0.80009717534E+02 0.  0.
         -6    2    1    2    0  501 -0.56297283244E+02  0.16025327978E+03  0.16349315737E+02  0.24311118389E+03  0.17316249544E+03 0.  0.
        -24    2    5    5    0    0  0.30093394902E+02  0.12201072048E+03  0.25357867909E+02  0.14808967778E+03  0.74130310066E+02 0.  0.
          5    1    3    3  502    0  0.78660553411E+02 -0.84059364074E+02 -0.18157765687E+03  0.21504881964E+03  0.47000000000E+01 0. -1.
        -11    1    4    4    0    0  0.67384913529E+00  0.29428541504E+01  0.32154336253E+01  0.44106095504E+01  0.00000000000E+00 0.  1.
         12    1    4    4    0    0 -0.23037119302E+02 -0.79136769857E+02 -0.38205916009E+03  0.39084848602E+03  0.00000000000E+00 0. -1.
         -5    1    5    5    0  501 -0.86390678145E+02  0.38242559298E+02 -0.90085521717E+01  0.95021506114E+02  0.47000000000E+01 0.  1.
         13    1    6    6    0    0 -0.14242391281E+01  0.26916838466E+02  0.38555432987E+02  0.47043236101E+02  0.00000000000E+00 0. -1.
        -14    1    6    6    0    0  0.31517634030E+02  0.95093882017E+02 -0.13197565077E+02  0.10104644168E+03  0.00000000000E+00 0.  1.
</event>
<event>
12    1  0.1345781E-002  0.1961622E+03  0.7818608E-02  0.1153018E+00
         -1   -1    0    0    0  501 -0.00000000000E+00  0.00000000000E+00  0.33116562145E+02  0.33116562145E+02  0.00000000000E+00 0. -1.
          1   -1    0    0  502    0  0.00000000000E+00 -0.00000000000E+00 -0.11704021291E+04  0.11704021291E+04  0.00000000000E+00 0.  1.
          6    2    1    2  502    0  0.86057364227E+02 -0.40953178542E+02 -0.51853245544E+03  0.55452378134E+03  0.17186530759E+03 0.  0.
         24    2    3    3    0    0  0.34352981329E+02  0.28101741101E+02 -0.38140874161E+03  0.39245303125E+03  0.81098202105E+02 0.  0.
         -6    2    1    2    0  501 -0.86057364227E+02  0.40953178542E+02 -0.61875311149E+03  0.64899490989E+03  0.17104369999E+03 0.  0.
        -24    2    5    5    0    0 -0.48518646937E+02  0.78258870056E+02 -0.26546931127E+03  0.29173813470E+03  0.78477220710E+02 0.  0.
          5    1    3    3  502    0  0.51704382898E+02 -0.69054919644E+02 -0.13712371383E+03  0.16207075008E+03  0.47000000000E+01 0. -1.
        -11    1    4    4    0    0 -0.10357356440E+02  0.70956017446E+01 -0.27335041412E+03  0.27363857787E+03  0.00000000000E+00 0.  1.
         12    1    4    4    0    0  0.44710337769E+02  0.21006139357E+02 -0.10805832749E+03  0.11881445339E+03  0.00000000000E+00 0. -1.
         -5    1    5    5    0  501 -0.37538717291E+02 -0.37305691514E+02 -0.35328380022E+03  0.35725677519E+03  0.47000000000E+01 0.  1.
         11    1    6    6    0    0 -0.50568192097E+00  0.41941589409E+01  0.53967082545E+01  0.68535496942E+01  0.00000000000E+00 0. -1.
        -12    1    6    6    0    0 -0.48012965016E+02  0.74064711116E+02 -0.27086601952E+03  0.28488458501E+03  0.00000000000E+00 0.  1.
</event>
<event>
12    1  0.1345781E-002  0.2339578E+03  0.7818608E-02  0.1123885E+00
         -2   -1    0    0    0  501 -0.00000000000E+00  0.00000000000E+00  0.76812195253E+02  0.76812195253E+02  0.00000000000E+00 0.  1.
          2   -1    0    0  502    0  0.00000000000E+00 -0.00000000000E+00 -0.80672519922E+03  0.80672519922E+03  0.00000000000E+00 0. -1.
          6    2    1    2  502    0 -0.45641430069E+02  0.15284934217E+03 -0.51242141110E+03  0.56229975488E+03  0.16780718175E+03 0.  0.
         24    2    3    3    0    0 -0.30714157697E+02  0.17823456878E+03 -0.47528089879E+03  0.51466845378E+03  0.79251268567E+02 0.  0.
         -6    2    1    2    0  501  0.45641430069E+02 -0.15284934217E+03 -0.21749159286E+03  0.32123763959E+03  0.17448486061E+03 0.  0.
        -24    2    5    5    0    0  0.96677546530E+01 -0.40202059499E+02 -0.17578804535E+03  0.19575938852E+03  0.75568712014E+02 0.  0.
          5    1    3    3  502    0 -0.14927272372E+02 -0.25385226607E+02 -0.37140512315E+02  0.47631301109E+02  0.47000000000E+01 0. -1.
        -11    1    4    4    0    0 -0.56697065765E+02  0.99213101194E+02 -0.27745711997E+03  0.30006707606E+03  0.00000000000E+00 0.  1.
         12    1    4    4    0    0  0.25982908068E+02  0.79021467584E+02 -0.19782377882E+03  0.21460137771E+03  0.00000000000E+00 0. -1.
         -5    1    5    5    0  501  0.35973675416E+02 -0.11264728267E+03 -0.41703547508E+02  0.12547825107E+03  0.47000000000E+01 0.  1.
         11    1    6    6    0    0 -0.18085151261E+02 -0.52400939080E+02 -0.10449054063E+03  0.11828442076E+03  0.00000000000E+00 0. -1.
        -12    1    6    6    0    0  0.27752905914E+02  0.12198879581E+02 -0.71297504722E+02  0.77474967759E+02  0.00000000000E+00 0.  1.
</event>
<event>
12    1  0.1345781E-002  0.1815503E+03  0.7818608E-02  0.1166311E+00
          2   -1    0    0  502    0  0.00000000000E+00  0.00000000000E+00  0.34394124624E+03  0.34394124624E+03  0.00000000000E+00 0.  1.
         -2   -1    0    0    0  501 -0.00000000000E+00 -0.00000000000E+00 -0.96333097702E+02  0.96333097702E+02  0.00000000000E+00 0. -1.
          6    2    1    2  502    0 -0.65591200485E+02  0.23192418787E+01  0.11014025036E+03  0.21471814002E+03  0.17223652470E+03 0.  0.
         24    2    3    3    0    0  0.14551117316E+02 -0.28823386893E+02  0.87962214234E+02  0.12579902106E+03  0.83937595395E+02 0.  0.
         -6    2    1    2    0  501  0.65591200485E+02 -0.23192418787E+01  0.13746789818E+03  0.22555620393E+03  0.16634480345E+03 0.  0.
        -24    2    5    5    0    0  0.39839538824E+02 -0.13106189898E+02  0.26632061964E+01  0.87810418846E+02  0.77101335418E+02 0.  0.
          5    1    3    3  502    0 -0.80142317801E+02  0.31142628771E+02  0.22178036125E+02  0.88919118954E+02  0.47000000000E+01 0. -1.
        -13    1    4    4    0    0 -0.11822997063E+01  0.15211745136E+02  0.76020945367E+02  0.77536953494E+02  0.00000000000E+00 0.  1.
         14    1    4    4    0    0  0.15733417022E+02 -0.44035132029E+02  0.11941268867E+02  0.48262067570E+02  0.00000000000E+00 0. -1.
         -5    1    5    5    0  501  0.25751661661E+02  0.10786948019E+02  0.13480469199E+03  0.13774578508E+03  0.47000000000E+01 0.  1.
         11    1    6    6    0    0 -0.88965409658E+01 -0.33604667085E+02 -0.13349307328E+01  0.34787988317E+02  0.00000000000E+00 0. -1.
        -12    1    6    6    0    0  0.48736079790E+02  0.20498477187E+02  0.39981369293E+01  0.53022430529E+02  0.00000000000E+00 0.  1.
</event>
<event>
12    1  0.1345781E-002  0.2402411E+03  0.7818608E-02  0.1119632E+00
         -2   -1    0    0    0  501 -0.00000000000E+00  0.00000000000E+00  0.42809047497E+02  0.42809047497E+02  0.00000000000E+00 0. -1.
          2   -1    0    0  502    0  0.00000000000E+00 -0.00000000000E+00 -0.13561923977E+04  0.13561923977E+04  0.00000000000E+00 0.  1.
          6    2    1    2  502    0  0.13508773519E+03  0.98668196028E+02 -0.71054039986E+03  0.75007914526E+03  0.17253102682E+03 0.  0.
         24    2    3    3    0    0  0.93072870722E+02 -0.64491016997E+01 -0.29345810779E+03  0.31788170950E+03  0.78911152762E+02 0.  0.
         -6    2    1    2    0  501 -0.13508773519E+03 -0.98668196028E+02 -0.60284295038E+03  0.64892229997E+03  0.17232649093E+03 0.  0.
        -24    2    5    5    0    0 -0.98153255999E+02 -0.38405470895E+01 -0.22933518322E+03  0.26177041649E+03  0.79248427256E+02 0.  0.
          5    1    3    3  502    0  0.42014864465E+02  0.10511729773E+03 -0.41708229207E+03  0.43219743576E+03  0.47000000000E+01 0. -1.
        -11    1    4    4    0    0 -0.74986433206E+01  0.16005741437E+02 -0.27862038167E+02  0.32995553964E+02  0.00000000000E+00 0.  1.
         12    1    4    4    0    0  0.10057151404E+03 -0.22454843137E+02 -0.26559606962E+03  0.28488615553E+03  0.00000000000E+00 0. -1.
         -5    1    5    5    0  501 -0.36934479187E+02 -0.94827648938E+02 -0.37350776716E+03  0.38715188348E+03  0.47000000000E+01 0.  1.
         11    1    6    6    0    0 -0.10556383453E+03  0.13748796828E+02 -0.20333436621E+03  0.22951604968E+03  0.00000000000E+00 0. -1.
        -12    1    6    6    0    0  0.74105785344E+01 -0.17589343917E+02 -0.26000817007E+02  0.32254366816E+02  0.00000000000E+00 0.  1.
</event>
<event>
12    1  0.1345781E-002  0.2339208E+03  0.7818608E-02  0.1123910E+00
          2   -1    0    0  502    0  0.00000000000E+00  0.00000000000E+00  0.13761842488E+04  0.13761842488E+04  0.00000000000E+00 0.  1.
         -2   -1    0    0    0  501 -0.00000000000E+00 -0.00000000000E+00 -0.40302236164E+02  0.40302236164E+02  0.00000000000E+00 0. -1.
          6    2    1    2  502    0 -0.76595029662E+02  0.13873567295E+03  0.75076458745E+03  0.78644525322E+03  0.17243632165E+03 0.  0.
         24    2    3    3    0    0  0.28047421137E+02  0.71944130785E+02  0.35113887229E+03  0.36795516393E+03  0.78293545357E+02 0.  0.
         -6    2    1    2    0  501  0.76595029662E+02 -0.13873567295E+03  0.58511742522E+03  0.63004123178E+03  0.17168333329E+03 0.  0.
        -24    2    5    5    0    0  0.98517616907E+02 -0.66729009189E+02  0.47936801256E+03  0.50015440514E+03  0.78754403071E+02 0.  0.
          5    1    3    3  502    0 -0.10464245080E+03  0.66791542166E+02  0.39962571516E+03  0.41849008929E+03  0.47000000000E+01 0. -1.
        -11    1    4    4    0    0 -0.11682126081E+02  0.44559942670E+02  0.26714564758E+03  0.27108828374E+03  0.00000000000E+00 0.  1.
         12    1    4    4    0    0  0.39729547218E+02  0.27384188114E+02  0.83993224709E+02  0.96866880190E+02  0.00000000000E+00 0. -1.
         -5    1    5    5    0  501 -0.21922587245E+02 -0.72006663761E+02  0.10574941266E+03  0.12988682664E+03  0.47000000000E+01 0.  1.
         13    1    6    6    0    0  0.98706540081E+02 -0.78219309908E+02  0.38467731897E+03  0.40476892325E+03  0.00000000000E+00 0. -1.
        -14    1    6    6    0    0 -0.18892317350E+00  0.11490300718E+02  0.94690693592E+02  0.95385481891E+02  0.00000000000E+00 0.  1.
</event>
<event>
12    1  0.1345781E-002  0.2296237E+03  0.7818608E-02  0.1126905E+00
         -2   -1    0    0    0  501 -0.00000000000E+00  0.00000000000E+00  0.77757087107E+02  0.77757087107E+02  0.00000000000E+00 0.  1.
          2   -1    0    0  502    0  0.00000000000E+00 -0.00000000000E+00 -0.69631078619E+03  0.69631078619E+03  0.00000000000E+00 0. -1.
          6    2    1    2  502    0 -0.92482699074E+02 -0.12255925090E+03 -0.37155152012E+03  0.43665464725E+03  0.17041986169E+03 0.  0.
         24    2    3    3    0    0  0.17710408658E+01 -0.25831437328E+02 -0.21165219975E+03  0.22729868230E+03  0.78725075882E+02 0.  0.
         -6    2    1    2    0  501  0.92482699074E+02  0.12255925090E+03 -0.24700217897E+03  0.33741322604E+03  0.17106662178E+03 0.  0.
        -24    2    5    5    0    0 -0.16530222622E+02  0.65126140805E+02 -0.86920569589E+02  0.13534741772E+03  0.79051094808E+02 0.  0.
          5    1    3    3  502    0 -0.94253739940E+02 -0.96727813571E+02 -0.15989932036E+03  0.20935596496E+03  0.47000000000E+01 0. -1.
        -11    1    4    4    0    0 -0.80815166972E+01  0.87960729117E+01  0.65280710028E+00  0.11962774256E+02  0.00000000000E+00 0.  1.
         12    1    4    4    0    0  0.98525575630E+01 -0.34627510240E+02 -0.21230500685E+03  0.21533590804E+03  0.00000000000E+00 0. -1.
         -5    1    5    5    0  501  0.10901292170E+03  0.57433110094E+02 -0.16008160938E+03  0.20206580832E+03  0.47000000000E+01 0.  1.
         11    1    6    6    0    0 -0.16984656240E+02  0.16831996619E+02 -0.83582657106E+02  0.86935925984E+02  0.00000000000E+00 0. -1.
        -12    1    6    6    0    0  0.45443361751E+00  0.48294144185E+02 -0.33379124822E+01  0.48411491737E+02  0.00000000000E+00 0.  1.
</event>
<event>
12    1  0.1345781E-002  0.4188684E+03  0.7818608E-02  0.1037435E+00
         -2   -1    0    0    0  501 -0.00000000000E+00  0.00000000000E+00  0.80584555226E+03  0.80584555226E+03  0.00000000000E+00 0.  1.
          2   -1    0    0  502    0  0.00000000000E+00 -0.00000000000E+00 -0.22428596205E+03  0.22428596205E+03  0.00000000000E+00 0. -1.
          6    2    1    2  502    0 -0.38211879724E+03 -0.15178998525E+02  0.20196702339E+03  0.46406699297E+03  0.16829235940E+03 0.  0.
         24    2    3    3    0    0 -0.10026778288E+03 -0.34253163809E+02  0.39558046400E+02  0.13817961384E+03  0.79384249886E+02 0.  0.
         -6    2    1    2    0  501  0.38211879724E+03  0.15178998525E+02  0.37959256683E+03  0.56606452134E+03  0.17347434486E+03 0.  0.
        -24    2    5    5    0    0  0.72104896857E+02  0.17005156122E+02  0.12954862540E+03  0.16774804424E+03  0.76604624648E+02 0.  0.
          5    1    3    3  502    0 -0.28185101436E+03  0.19074165284E+02  0.16240897698E+03  0.32588737914E+03  0.47000000000E+01 0. -1.
        -13    1    4    4    0    0 -0.10448676661E+02 -0.15486931996E+02  0.42446115128E+02  0.46375560331E+02  0.00000000000E+00 0.  1.
         14    1    4    4    0    0 -0.89819106224E+02 -0.18766231813E+02 -0.28880687275E+01  0.91804053507E+02  0.00000000000E+00 0. -1.
         -5    1    5    5    0  501  0.31001390038E+03 -0.18261575976E+01  0.25004394143E+03  0.39831647710E+03  0.47000000000E+01 0.  1.
         11    1    6    6    0    0  0.50222993955E+02  0.43591782451E+02  0.10889338715E+03  0.12759452333E+03  0.00000000000E+00 0. -1.
        -12    1    6    6    0    0  0.21881902902E+02 -0.26586626329E+02  0.20655238253E+02  0.40153520910E+02  0.00000000000E+00 0.  1.
</event>
<event>
12    1  0.1345781E-002  0.1729359E+03  0.7818608E-02  0.1174820E+00
          1   -1    0    0  502    0  0.00000000000E+00  0.00000000000E+00  0.22834354743E+03  0.22834354743E+03  0.00000000000E+00 0.  1.
         -1   -1    0    0    0  501 -0.00000000000E+00 -0.00000000000E+00 -0.17670620545E+03  0.17670620545E+03  0.00000000000E+00 0. -1.
          6    2    1    2  502    0  0.17939303826E+01  0.19089106071E+02 -0.77166731987E+02  0.18974113489E+03  0.17227704893E+03 0.  0.
         24    2    3    3    0    0  0.37502648648E+02  0.62429942496E+02 -0.77080185214E+02  0.13338833414E+03  0.80914438490E+02 0.  0.
         -6    2    1    2    0  501 -0.17939303826E+01 -0.19089106071E+02  0.12880407396E+03  0.21530861799E+03  0.17146340529E+03 0.  0.
        -24    2    5    5    0    0 -0.24535504154E+01 -0.16438048752E+02 -0.42855602980E+01  0.82108002560E+02  0.80294014104E+02 0.  0.
          5    1    3    3  502    0 -0.35708718266E+02 -0.43340836424E+02 -0.86546773128E-01  0.56352800751E+02  0.47000000000E+01 0. -1.
        -11    1    4    4    0    0  0.59677904884E+02  0.34026981226E+02 -0.32304068231E+02  0.75913375679E+02  0.00000000000E+00 0.  1.
         12    1    4    4    0    0 -0.22175256235E+02  0.28402961269E+02 -0.44776116983E+02  0.57474958461E+02  0.00000000000E+00 0. -1.
         -5    1    5    5    0  501  0.65962003279E+00 -0.26510573188E+01  0.13308963426E+03  0.13320061543E+03  0.47000000000E+01 0.  1.
         13    1    6    6    0    0  0.29495465859E+02 -0.15071123590E+02 -0.27124054574E+02  0.42811629367E+02  0.00000000000E+00 0. -1.
        -14    1    6    6    0    0 -0.31949016275E+02 -0.13669251620E+01  0.22838494276E+02  0.39296373193E+02  0.00000000000E+00 0.  1.
</event>
<event>
12    1  0.1345781E-002  0.1938106E+03  0.7818608E-02  0.1155069E+00
         -1   -1    0    0    0  501 -0.00000000000E+00  0.00000000000E+00  0.47068941200E+02  0.47068941200E+02  0.00000000000E+00 0.  1.
          1   -1    0    0  502    0  0.00000000000E+00 -0.00000000000E+00 -0.79808635660E+03  0.79808635660E+03  0.00000000000E+00 0. -1.
          6    2    1    2  502    0  0.86394014641E+02 -0.59651901133E+01 -0.37101527639E+03  0.41797487663E+03  0.17190448779E+03 0.  0.
         24    2    3    3    0    0  0.88490963416E+02  0.42521526460E+02 -0.33267337838E+03  0.35594625404E+03  0.79921387991E+02 0.  0.
         -6    2    1    2    0  501 -0.86394014641E+02  0.59651901133E+01 -0.38000213901E+03  0.42718042117E+03  0.17487703486E+03 0.  0.
        -24    2    5    5    0    0 -0.10413541059E+03 -0.26232375824E+02 -0.18166727667E+03  0.22541261402E+03  0.79218216766E+02 0.  0.
          5    1    3    3  502    0 -0.20969487744E+01 -0.48486716574E+02 -0.38341898005E+02  0.62028622594E+02  0.47000000000E+01 0. -1.
        -11    1    4    4    0    0  0.31786556384E+01  0.41048713877E+02 -0.11492355372E+03  0.12207589427E+03  0.00000000000E+00 0.  1.
         12    1    4    4    0    0  0.85312307777E+02  0.14728125831E+01 -0.21774982467E+03  0.23387035977E+03  0.00000000000E+00 0. -1.
         -5    1    5    5    0  501  0.17741395945E+02  0.32197565938E+02 -0.19833486234E+03  0.20176780715E+03  0.47000000000E+01 0.  1.
         11    1    6    6    0    0 -0.38968833448E+02 -0.32170914066E+02 -0.13743027084E+03  0.14642614874E+03  0.00000000000E+00 0. -1.
        -12    1    6    6    0    0 -0.65166577139E+02  0.59385382419E+01 -0.44237005829E+02  0.78986465278E+02  0.00000000000E+00 0.  1.
</event>
<event>
12    1  0.1345781E-002  0.1805612E+03  0.7818608E-02  0.1167261E+00
          4   -1    0    0  502    0  0.00000000000E+00  0.00000000000E+00  0.76765530342E+03  0.76765530342E+03  0.00000000000E+00 0. -1.
         -4   -1    0    0    0  501 -0.00000000000E+00 -0.00000000000E+00 -0.42645753973E+02  0.42645753973E+02  0.00000000000E+00 0.  1.
          6    2    1    2  502    0 -0.48506147656E+02  0.25331121307E+02  0.38688909013E+03  0.42661997757E+03  0.17125105880E+03 0.  0.
         24    2    3    3    0    0  0.72505773698E+01  0.38942214722E+02  0.10764570291E+03  0.14150064545E+03  0.82859932095E+02 0.  0.
         -6    2    1    2    0  501  0.48506147656E+02 -0.25331121307E+02  0.33812045932E+03  0.38368107982E+03  0.17289075722E+03 0.  0.
        -24    2    5    5    0    0 -0.12707641275E+01  0.31779709558E+02  0.26520204645E+03  0.27842628000E+03  0.78597093928E+02 0.  0.
          5    1    3    3  502    0 -0.55756725026E+02 -0.13611093414E+02  0.27924338721E+03  0.28511933213E+03  0.47000000000E+01 0. -1.
        -11    1    4    4    0    0 -0.10917277858E+02 -0.11685180231E+02 -0.49305330222E+01  0.16734412112E+02  0.00000000000E+00 0.  1.
         12    1    4    4    0    0  0.18167855228E+02  0.50627394953E+02  0.11257623594E+03  0.12476623334E+03  0.00000000000E+00 0. -1.
         -5    1    5    5    0  501  0.49776911784E+02 -0.57110830865E+02  0.72918412870E+02  0.10525479982E+03  0.47000000000E+01 0.  1.
         13    1    6    6    0    0  0.29965346325E+02  0.31834555017E+02  0.21422307877E+03  0.21863871650E+03  0.00000000000E+00 0. -1.
        -14    1    6    6    0    0 -0.31236110452E+02 -0.54845459364E-01  0.50978967671E+02  0.59787563498E+02  0.00000000000E+00 0.  1.
</event>
<event>
12    1  0.1345781E-002  0.2302002E+03  0.7818608E-02  0.1126499E+00
         -2   -1    0    0    0  501 -0.00000000000E+00  0.00000000000E+00  0.23865276860E+03  0.23865276860E+03  0.00000000000E+00 0. -1.
          2   -1    0    0  502    0  0.00000000000E+00 -0.00000000000E+00 -0.35065774945E+03  0.35065774945E+03  0.00000000000E+00 0.  1.
          6    2    1    2  502    0  0.13089206821E+03 -0.48089480486E+02 -0.23550787875E+03  0.33573341770E+03  0.19444185545E+03 0.  0.
         24    2    3    3    0    0  0.63404399761E+02  0.13762128006E+02 -0.21971534150E+03  0.24271889680E+03  0.80175541738E+02 0.  0.
         -6    2    1    2    0  501 -0.13089206821E+03  0.48089480486E+02  0.12350289790E+03  0.25357710035E+03  0.17205536428E+03 0.  0.
        -24    2    5    5    0    0 -0.43690235996E+02 -0.42592144107E+01 -0.20542382007E+01  0.91925531148E+02  0.80740979394E+02 0.  0.
          5    1    3    3  502    0  0.67487668451E+02 -0.61851608492E+02 -0.15792537251E+02  0.93014520903E+02  0.47000000000E+01 0. -1.
        -11    1    4    4    0    0  0.79219995179E+02 -0.40254498784E+01 -0.17071765805E+03  0.18824593131E+03  0.00000000000E+00 0.  1.
         12    1    4    4    0    0 -0.15815595418E+02  0.17787577884E+02 -0.48997683451E+02  0.54472965487E+02  0.00000000000E+00 0. -1.
         -5    1    5    5    0  501 -0.87201832217E+02  0.52348694897E+02  0.12555713610E+03  0.16165156920E+03  0.47000000000E+01 0.  1.
         13    1    6    6    0    0 -0.28638566243E+01 -0.31120945601E+02  0.21240187057E+02  0.37787041113E+02  0.00000000000E+00 0. -1.
        -14    1    6    6    0    0 -0.40826379371E+02  0.26861731191E+02 -0.23294425258E+02  0.54138490035E+02  0.00000000000E+00 0.  1.
</event>
<event>
12    1  0.1345781E-002  0.2031774E+03  0.7818608E-02  0.1147086E+00
         -3   -1    0    0    0  501 -0.00000000000E+00  0.00000000000E+00  0.14061901818E+03  0.14061901818E+03  0.00000000000E+00 0.  1.
          3   -1    0    0  502    0  0.00000000000E+00 -0.00000000000E+00 -0.41589664189E+03  0.41589664189E+03  0.00000000000E+00 0. -1.
          6    2    1    2  502    0 -0.10231307236E+03  0.32687809614E+02 -0.28846615010E+03  0.35273626243E+03  0.17226053931E+03 0.  0.
         24    2    3    3    0    0  0.95051624132E+01 -0.12635069779E+02 -0.12288145563E+03  0.14780246319E+03  0.80596047593E+02 0.  0.
         -6    2    1    2    0  501  0.10231307236E+03 -0.32687809614E+02  0.13188526399E+02  0.20377939764E+03  0.17267208229E+03 0.  0.
        -24    2    5    5    0    0  0.11997074870E+03 -0.69737900075E+02 -0.10947656688E+01  0.16006892785E+03  0.79777865977E+02 0.  0.
          5    1    3    3  502    0 -0.11181823477E+03  0.45322879393E+02 -0.16558469448E+03  0.20493379924E+03  0.47000000000E+01 0. -1.
        -13    1    4    4    0    0  0.22754448062E+02  0.29876108078E+02 -0.53665697676E+02  0.65500792724E+02  0.00000000000E+00 0.  1.
         14    1    4    4    0    0 -0.13249285649E+02 -0.42511177856E+02 -0.69215757951E+02  0.82301670467E+02  0.00000000000E+00 0. -1.
         -5    1    5    5    0  501 -0.17657676343E+02  0.37050090461E+02  0.14283292068E+02  0.43710469791E+02  0.47000000000E+01 0.  1.
         13    1    6    6    0    0  0.11788211783E+03 -0.33792638404E+02  0.81326617677E+01  0.12289945607E+03  0.00000000000E+00 0. -1.
        -14    1    6    6    0    0  0.20886308745E+01 -0.35945261671E+02 -0.92274274365E+01  0.37169471783E+02  0.00000000000E+00 0.  1.
</event>
<event>
12    1  0.1345781E-002  0.1681442E+03  0.7818608E-02  0.1179797E+00
         -1   -1    0    0    0  501 -0.00000000000E+00  0.00000000000E+00  0.12949573621E+02  0.12949573621E+02  0.00000000000E+00 0.  1.
          1   -1    0    0  502    0  0.00000000000E+00 -0.00000000000E+00 -0.22843846424E+04  0.22843846424E+04  0.00000000000E+00 0. -1.
          6    2    1    2  502    0  0.33513161640E+01 -0.61494854258E+01 -0.13841505568E+04  0.13944554667E+04  0.16906873494E+03 0.  0.
         24    2    3    3    0    0 -0.29389656059E+02 -0.57715478928E+02 -0.10152840646E+04  0.10205362213E+04  0.80607808996E+02 0.  0.
         -6    2    1    2    0  501 -0.33513161640E+01  0.61494854258E+01 -0.88728451195E+03  0.90287874933E+03  0.16693466791E+03 0.  0.
        -24    2    5    5    0    0 -0.96191448104E+01 -0.48720595851E+01 -0.21305916740E+03  0.22851781825E+03  0.81914098498E+02 0.  0.
          5    1    3    3  502    0  0.32740972224E+02  0.51565993503E+02 -0.36886649225E+03  0.37391924537E+03  0.47000000000E+01 0. -1.
        -11    1    4    4    0    0  0.21422090099E+02 -0.25294163556E+02 -0.17623841063E+03  0.17932840833E+03  0.00000000000E+00 0.  1.
         12    1    4    4    0    0 -0.50811746158E+02 -0.32421315373E+02 -0.83904565395E+03  0.84120781300E+03  0.00000000000E+00 0. -1.
         -5    1    5    5    0  501  0.62678286463E+01  0.11021545011E+02 -0.67422534455E+03  0.67436093108E+03  0.47000000000E+01 0.  1.
         11    1    6    6    0    0  0.24614044782E+01 -0.20553480003E+01 -0.21579195881E+03  0.21581578360E+03  0.00000000000E+00 0. -1.
        -12    1    6    6    0    0 -0.12080549289E+02 -0.28167115849E+01  0.27327914055E+01  0.12702034645E+02  0.00000000000E+00 0.  1.
</event>
<event>
12    1  0.1345781E-002  0.2678796E+03  0.7818608E-02  0.1102499E+00
         -3   -1    0    0    0  501 -0.00000000000E+00  0.00000000000E+00  0.51726232144E+03  0.51726232144E+03  0.00000000000E+00 0. -1.
          3   -1    0    0  502    0  0.00000000000E+00 -0.00000000000E+00 -0.13895150125E+03  0.13895150125E+03  0.00000000000E+00 0.  1.
          6    2    1    2  502    0  0.39158187991E+02 -0.20083042457E+03  0.20224111703E+03  0.33561282245E+03  0.17282440236E+03 0.  0.
         24    2    3    3    0    0  0.88889402484E+02 -0.14629516025E+03  0.17298777455E+03  0.25608209382E+03  0.79684809375E+02 0.  0.
         -6    2    1    2    0  501 -0.39158187991E+02  0.20083042457E+03  0.17606970316E+03  0.32060100024E+03  0.17296889277E+03 0.  0.
        -24    2    5    5    0    0 -0.14440405577E+02  0.21749984197E+03  0.17603556664E+03  0.29041939311E+03  0.76421179021E+02 0.  0.
          5    1    3    3  502    0 -0.49731214492E+02 -0.54535264316E+02  0.29253342480E+02  0.79530728622E+02  0.47000000000E+01 0. -1.
        -13    1    4    4    0    0 -0.33381740774E+01 -0.75573789674E+01  0.45656959091E+02  0.46398440669E+02  0.00000000000E+00 0.  1.
         14    1    4    4    0    0  0.92227576561E+02 -0.13873778129E+03  0.12733081546E+03  0.20968365316E+03  0.00000000000E+00 0. -1.
         -5    1    5    5    0  501 -0.24717782414E+02 -0.16669417398E+02  0.34136521670E-01  0.30181607134E+02  0.47000000000E+01 0.  1.
         13    1    6    6    0    0  0.26226038046E+02  0.70923015258E+02  0.82206042931E+02  0.11169472977E+03  0.00000000000E+00 0. -1.
        -14    1    6    6    0    0 -0.40666443622E+02  0.14657682671E+03  0.93829523709E+02  0.17872466334E+03  0.00000000000E+00 0.  1.
</event>
<event>
12    1  0.1345781E-002  0.1888307E+03  0.7818608E-02  0.1159520E+00
          2   -1    0    0  502    0  0.00000000000E+00  0.00000000000E+00  0.31884664502E+03  0.31884664502E+03  0.00000000000E+00 0. -1.
         -2   -1    0    0    0  501 -0.00000000000E+00 -0.00000000000E+00 -0.26560062412E+03  0.26560062412E+03  0.00000000000E+00 0.  1.
          6    2    1    2  502    0 -0.47974980534E+02  0.59567358374E+02  0.24896388601E+03  0.31238936743E+03  0.17249414891E+03 0.  0.
         24    2    3    3    0    0  0.79589083277E+01 -0.22825223848E+02  0.14400930328E+03  0.16763201195E+03  0.82325433104E+02 0.  0.
         -6    2    1    2    0  501  0.47974980534E+02 -0.59567358374E+02 -0.19571786510E+03  0.27205790171E+03  0.17280089763E+03 0.  0.
        -24    2    5    5    0    0  0.86276582363E+02 -0.80216700296E+02 -0.16874917721E+03  0.22064965187E+03  0.79571454632E+02 0.  0.
          5    1    3    3  502    0 -0.55933888862E+02  0.82392582223E+02  0.10495458273E+03  0.14475735548E+03  0.47000000000E+01 0. -1.
        -11    1    4    4    0    0 -0.35189929136E+01  0.19607570134E+02  0.32697260932E+01  0.20187402666E+02  0.00000000000E+00 0.  1.
         12    1    4    4    0    0  0.11477901241E+02 -0.42432793982E+02  0.14073957718E+03  0.14744460929E+03  0.00000000000E+00 0. -1.
         -5    1    5    5    0  501 -0.38301601830E+02  0.20649341922E+02 -0.26968687889E+02  0.51408249834E+02  0.47000000000E+01 0.  1.
         11    1    6    6    0    0  0.63882048708E+02 -0.30475093428E+02 -0.41132404835E+02  0.81862825470E+02  0.00000000000E+00 0. -1.
        -12    1    6    6    0    0  0.22394533656E+02 -0.49741606868E+02 -0.12761677238E+03  0.13878682640E+03  0.00000000000E+00 0.  1.
</event>
<event>
12    1  0.1345781E-002  0.2064112E+03  0.7818608E-02  0.1144440E+00
         -2   -1    0    0    0  501 -0.00000000000E+00  0.00000000000E+00  0.46844715137E+02  0.46844715137E+02  0.00000000000E+00 0. -1.
          2   -1    0    0  502    0  0.00000000000E+00 -0.00000000000E+00 -0.20222388912E+04  0.20222388912E+04  0.00000000000E+00 0.  1.
          6    2    1    2  502    0 -0.11349031321E+03  0.16895247964E+02 -0.17553363880E+04  0.17674432237E+04  0.17170967786E+03 0.  0.
         24    2    3    3    0    0 -0.12518318771E+03 -0.13875054297E+02 -0.97336156171E+03  0.98476177272E+03  0.80372081983E+02 0.  0.
         -6    2    1    2    0  501  0.11349031321E+03 -0.16895247964E+02 -0.22005778810E+03  0.30164038265E+03  0.17145258745E+03 0.  0.
        -24    2    5    5    0    0  0.45739683284E+02 -0.72461974925E+02 -0.11321431444E+03  0.16338183186E+03  0.80828742116E+02 0.  0.
          5    1    3    3  502    0  0.11692874499E+02  0.30770302261E+02 -0.78197482629E+03  0.78268145101E+03  0.47000000000E+01 0. -1.
        -13    1    4    4    0    0 -0.38099022702E+02 -0.41786506063E+02 -0.30837754093E+03  0.31351930621E+03  0.00000000000E+00 0.  1.
         14    1    4    4    0    0 -0.87084165009E+02  0.27911451766E+02 -0.66498402078E+03  0.67124246650E+03  0.00000000000E+00 0. -1.
         -5    1    5    5    0  501  0.67750629928E+02  0.55566726961E+02 -0.10684347366E+03  0.13825855079E+03  0.47000000000E+01 0.  1.
         13    1    6    6    0    0  0.65045906074E+02 -0.35140824840E+02 -0.57832947154E+02  0.93864249019E+02  0.00000000000E+00 0. -1.
        -14    1    6    6    0    0 -0.19306222790E+02 -0.37321150085E+02 -0.55381367287E+02  0.69517582845E+02  0.00000000000E+00 0.  1.
</event>
<event>
12    1  0.1345781E-002  0.3063351E+03  0.7818608E-02  0.1082116E+00
         -1   -1    0    0    0  501 -0.00000000000E+00  0.00000000000E+00  0.80947086860E+03  0.80947086860E+03  0.00000000000E+00 0. -1.
          1   -1    0    0  502    0  0.00000000000E+00 -0.00000000000E+00 -0.26160401247E+03  0.26160401247E+03  0.00000000000E+00 0.  1.
          6    2    1    2  502    0 -0.20529681254E+03 -0.14606573565E+03  0.67320672778E+03  0.73925571502E+03  0.17265495502E+03 0.  0.
         24    2    3    3    0    0 -0.24753411190E+02 -0.66651854083E+02  0.21423638974E+03  0.23967754741E+03  0.80578502244E+02 0.  0.
         -6    2    1    2    0  501  0.20529681254E+03  0.14606573565E+03 -0.12533987165E+03  0.33181916605E+03  0.17581778967E+03 0.  0.
        -24    2    5    5    0    0  0.19671560338E+02  0.31861296009E+02 -0.21023318536E+02  0.90151167464E+02  0.79266263967E+02 0.  0.
          5    1    3    3  502    0 -0.18054340135E+03 -0.79413881562E+02  0.45897033804E+03  0.49957816761E+03  0.47000000000E+01 0. -1.
        -11    1    4    4    0    0 -0.32245868467E+02 -0.26769903381E+02  0.31335577689E+02  0.52329171495E+02  0.00000000000E+00 0.  1.
         12    1    4    4    0    0  0.74924572771E+01 -0.39881950702E+02  0.18290081205E+03  0.18734837591E+03  0.00000000000E+00 0. -1.
         -5    1    5    5    0  501  0.18562525220E+03  0.11420443964E+03 -0.10431655311E+03  0.24166799859E+03  0.47000000000E+01 0.  1.
         11    1    6    6    0    0 -0.29770097304E+00  0.52675654856E+02  0.27849500836E+01  0.52750063387E+02  0.00000000000E+00 0. -1.
        -12    1    6    6    0    0  0.19969261311E+02 -0.20814358847E+02 -0.23808268620E+02  0.37401104077E+02  0.00000000000E+00 0.  1.
</event>
<event>
12    1  0.1345781E-002  0.1764412E+03  0.7818608E-02  0.1171292E+00
          1   -1    0    0  502    0  0.00000000000E+00  0.00000000000E+00  0.29932274047E+02  0.29932274047E+02  0.00000000000E+00 0.  1.
         -1   -1    0    0    0  501 -0.00000000000E+00 -0.00000000000E+00 -0.10702982476E+04  0.10702982476E+04  0.00000000000E+00 0. -1.
          6    2    1    2  502    0  0.51552872731E+01  0.41349513464E+02 -0.61030302244E+03  0.63507384104E+03  0.17062428059E+03 0.  0.
         24    2    3    3    0    0  0.12439069625E+02  0.66124480055E+02 -0.59690972948E+03  0.60560652438E+03  0.77012076385E+02 0.  0.
         -6    2    1    2    0  501 -0.51552872731E+01 -0.41349513464E+02 -0.43006295110E+03  0.46515668059E+03  0.17227952966E+03 0.  0.
        -24    2    5    5    0    0 -0.55914660530E+02 -0.51661401251E+02 -0.36779964899E+03  0.38402926357E+03  0.80040888549E+02 0.  0.
          5    1    3    3  502    0 -0.72837823523E+01 -0.24774966592E+02 -0.13393292963E+02  0.29467316664E+02  0.47000000000E+01 0. -1.
        -13    1    4    4    0    0 -0.11128714137E+02 -0.85028637753E+01 -0.27672394190E+02  0.31014647683E+02  0.00000000000E+00 0.  1.
         14    1    4    4    0    0  0.23567783762E+02  0.74627343831E+02 -0.56923733529E+03  0.57459187670E+03  0.00000000000E+00 0. -1.
         -5    1    5    5    0  501  0.50759373256E+02  0.10311887787E+02 -0.62263302111E+02  0.81127417024E+02  0.47000000000E+01 0.  1.
         11    1    6    6    0    0 -0.41400799729E+01  0.20071305729E+02 -0.47397991605E+02  0.51638814704E+02  0.00000000000E+00 0. -1.
        -12    1    6    6    0    0 -0.51774580557E+02 -0.71732706979E+02 -0.32040165738E+03  0.33239044887E+03  0.00000000000E+00 0.  1.
</event>
<event>
12    1  0.1345781E-002  0.1755392E+03  0.7818608E-02  0.1172191E+00
          2   -1    0    0  502    0  0.00000000000E+00  0.00000000000E+00  0.73526158040E+03  0.73526158040E+03  0.00000000000E+00 0.  1.
         -2   -1    0    0    0  501 -0.00000000000E+00 -0.00000000000E+00 -0.42086871890E+02  0.42086871890E+02  0.00000000000E+00 0. -1.
          6    2    1    2  502    0 -0.86727465968E+01 -0.24779425639E+02  0.32633734429E+03  0.37165269508E+03  0.17589891135E+03 0.  0.
         24    2    3    3    0    0 -0.12652715506E+02  0.29022653346E+02  0.29823069873E+03  0.31063976711E+03  0.80951279320E+02 0.  0.
         -6    2    1    2    0  501  0.86727465968E+01  0.24779425639E+02  0.36683736422E+03  0.40569575721E+03  0.17126050088E+03 0.  0.
        -24    2    5    5    0    0  0.38181320033E+02 -0.22669756946E+02  0.31742757169E+03  0.33095889594E+03  0.82473004397E+02 0.  0.
          5    1    3    3  502    0  0.39799689089E+01 -0.53802078985E+02  0.28106645555E+02  0.61012927974E+02  0.47000000000E+01 0. -1.
        -11    1    4    4    0    0  0.25852337227E+02 -0.11972349174E+02  0.13553633730E+03  0.13849830039E+03  0.00000000000E+00 0.  1.
         12    1    4    4    0    0 -0.38505052733E+02  0.40995002520E+02  0.16269436144E+03  0.17214146671E+03  0.00000000000E+00 0. -1.
         -5    1    5    5    0  501 -0.29508573436E+02  0.47449182584E+02  0.49409792529E+02  0.74736861266E+02  0.47000000000E+01 0.  1.
         13    1    6    6    0    0  0.45725739860E+02  0.20122584699E+02  0.18193164684E+03  0.18866606961E+03  0.00000000000E+00 0. -1.
        -14    1    6    6    0    0 -0.75444198269E+01 -0.42792341645E+02  0.13549592485E+03  0.14229282633E+03  0.00000000000E+00 0.  1.
</event>
<event>
12    1  0.1345781E-002  0.1745432E+03  0.7818608E-02  0.1173191E+00
          2   -1    0    0  502    0  0.00000000000E+00  0.00000000000E+00  0.93620788063E+03  0.93620788063E+03  0.00000000000E+00 0.  1.
         -2   -1    0    0    0  501 -0.00000000000E+00 -0.00000000000E+00 -0.50861781330E+02  0.50861781330E+02  0.00000000000E+00 0. -1.
          6    2    1    2  502    0  0.24407449847E+02  0.71064384644E+01  0.73732023271E+03  0.75747970475E+03  0.17172114739E+03 0.  0.
         24    2    3    3    0    0 -0.20552370805E+02  0.11032770953E+02  0.18688825288E+03  0.20518064085E+03  0.81411020964E+02 0.  0.
         -6    2    1    2    0  501 -0.24407449847E+02 -0.71064384644E+01  0.14802586659E+03  0.22958995721E+03  0.17364811027E+03 0.  0.
        -24    2    5    5    0    0 -0.58043961213E+02 -0.17355152751E+02  0.28521832206E+02  0.10493140245E+03  0.80788622640E+02 0.  0.
          5    1    3    3  502    0  0.44959820651E+02 -0.39263324890E+01  0.55043197983E+03  0.55229906389E+03  0.47000000000E+01 0. -1.
        -13    1    4    4    0    0  0.57039909904E+00 -0.32548344031E+02  0.10616579574E+03  0.11104456871E+03  0.00000000000E+00 0.  1.
         14    1    4    4    0    0 -0.21122769904E+02  0.43581114985E+02  0.80722457143E+02  0.94136072145E+02  0.00000000000E+00 0. -1.
         -5    1    5    5    0  501  0.33636511367E+02  0.10248714286E+02  0.11950403438E+03  0.12465855476E+03  0.47000000000E+01 0.  1.
         11    1    6    6    0    0 -0.10179577927E+02 -0.43102748583E+02  0.24051136076E+02  0.50397697256E+02  0.00000000000E+00 0. -1.
        -12    1    6    6    0    0 -0.47864383287E+02  0.25747595833E+02  0.44706961296E+01  0.54533705197E+02  0.00000000000E+00 0.  1.
</event>
<event>
12    1  0.1345781E-002  0.1813729E+03  0.7818608E-02  0.1166481E+00
         -2   -1    0    0    0  501 -0.00000000000E+00  0.00000000000E+00  0.44959688316E+02  0.44959688316E+02  0.00000000000E+00 0.  1.
          2   -1    0    0  502    0  0.00000000000E+00 -0.00000000000E+00 -0.13602289980E+04  0.13602289980E+04  0.00000000000E+00 0. -1.
          6    2    1    2  502    0  0.22859136464E+02  0.20058847840E+02 -0.16808172864E+03  0.24272027772E+03  0.17244352181E+03 0.  0.
         24    2    3    3    0    0 -0.38595792402E+02  0.19329423820E+01 -0.36739228155E+02  0.96507422044E+02  0.80439667868E+02 0.  0.
         -6    2    1    2    0  501 -0.22859136464E+02 -0.20058847840E+02 -0.11471875811E+04  0.11624684086E+04  0.18538758694E+03 0.  0.
        -24    2    5    5    0    0  0.53389051363E+02  0.21105897879E+02 -0.47913953218E+03  0.48880780560E+03  0.77862248813E+02 0.  0.
          5    1    3    3  502    0  0.61454928866E+02  0.18125905458E+02 -0.13134250048E+03  0.14621285567E+03  0.47000000000E+01 0. -1.
        -13    1    4    4    0    0 -0.32073707613E+02  0.11628562650E+02  0.19344489619E+02  0.39219325185E+02  0.00000000000E+00 0.  1.
         14    1    4    4    0    0 -0.65220847883E+01 -0.96956202676E+01 -0.56083717774E+02  0.57288096859E+02  0.00000000000E+00 0. -1.
         -5    1    5    5    0  501 -0.76248187828E+02 -0.41164745719E+02 -0.66804804891E+03  0.67366060304E+03  0.47000000000E+01 0.  1.
         11    1    6    6    0    0 -0.13350442840E+02 -0.71774303711E+01 -0.19428888447E+03  0.19487924584E+03  0.00000000000E+00 0. -1.
        -12    1    6    6    0    0  0.66739494203E+02  0.28283328250E+02 -0.28485064771E+03  0.29392855976E+03  0.00000000000E+00 0.  1.
</event>
<event>
12    1  0.1345781E-002  0.1746953E+03  0.7818608E-02  0.1173038E+00
         -1   -1    0    0    0  501 -0.00000000000E+00  0.00000000000E+00  0.29419828632E+03  0.29419828632E+03  0.00000000000E+00 0. -1.
          1   -1    0    0  502    0  0.00000000000E+00 -0.00000000000E+00 -0.11330258739E+03  0.11330258739E+03  0.00000000000E+00 0.  1.
          6    2    1    2  502    0 -0.27422400278E+02 -0.41938498334E+01  0.31319315407E+02  0.17764952299E+03  0.17265247490E+03 0.  0.
         24    2    3    3    0    0 -0.35218781534E+02 -0.23903732608E+02 -0.43129180333E+02  0.10009998039E+03  0.79675145888E+02 0.  0.
         -6    2    1    2    0  501  0.27422400278E+02  0.41938498334E+01  0.14957638352E+03  0.22985135072E+03  0.17230488243E+03 0.  0.
        -24    2    5    5    0    0 -0.42818580178E+02  0.36607266104E+02  0.83617256597E+02  0.12808140765E+03  0.78990370575E+02 0.  0.
          5    1    3    3  502    0  0.77963812565E+01  0.19709882775E+02  0.74448495740E+02  0.77549542601E+02  0.47000000000E+01 0. -1.
        -11    1    4    4    0    0 -0.38069279937E+01 -0.20120604344E+01 -0.58634075337E+02  0.58791971208E+02  0.00000000000E+00 0.  1.
         12    1    4    4    0    0 -0.31411853541E+02 -0.21891672174E+02  0.15504895004E+02  0.41308009181E+02  0.00000000000E+00 0. -1.
         -5    1    5    5    0  501  0.70240980456E+02 -0.32413416271E+02  0.65959126919E+02  0.10176994308E+03  0.47000000000E+01 0.  1.
         13    1    6    6    0    0  0.79434417330E+01  0.42642940065E+02  0.24091009389E+02  0.49617490236E+02  0.00000000000E+00 0. -1.
        -14    1    6    6    0    0 -0.50762021911E+02 -0.60356739604E+01  0.59526247208E+02  0.78463917410E+02  0.00000000000E+00 0.  1.
</event>
<event>
12    1  0.1345781E-002  0.1743782E+03  0.7818608E-02  0.1173357E+00
          1   -1    0    0  502    0  0.00000000000E+00  0.00000000000E+00  0.46012442422E+03  0.46012442422E+03  0.00000000000E+00 0.  1.
         -1   -1    0    0    0  501 -0.00000000000E+00 -0.00000000000E+00 -0.67417932950E+02  0.67417932950E+02  0.00000000000E+00 0. -1.
          6    2    1    2  502    0  0.46583671784E+02 -0.12931642148E+02  0.16470932490E+03  0.24311153873E+03  0.17215339878E+03 0.  0.
         24    2    3    3    0    0  0.48816414414E+02  0.14126783137E+01  0.18993787824E+03  0.21362739769E+03  0.84706726283E+02 0.  0.
         -6    2    1    2    0  501 -0.46583671784E+02  0.12931642148E+02  0.22799716637E+03  0.28443081843E+03  0.16303655037E+03 0.  0.
        -24    2    5    5    0    0 -0.20164483294E+02  0.61026548761E+02  0.89161339762E+02  0.13507028043E+03  0.78507261496E+02 0.  0.
          5    1    3    3  502    0 -0.22327426295E+01 -0.14344320461E+02 -0.25228553343E+02  0.29484141041E+02  0.47000000000E+01 0. -1.
        -13    1    4    4    0    0  0.47000280925E+02 -0.34157342140E+02  0.86261095134E+02  0.10400349495E+03  0.00000000000E+00 0.  1.
         14    1    4    4    0    0  0.18161334890E+01  0.35570020454E+02  0.10367678311E+03  0.10962390274E+03  0.00000000000E+00 0. -1.
         -5    1    5    5    0  501 -0.26419188490E+02 -0.48094906614E+02  0.13883582660E+03  0.14936053800E+03  0.47000000000E+01 0.  1.
         11    1    6    6    0    0 -0.40600760177E+02  0.25818609971E+02  0.14876374434E+02  0.50361978357E+02  0.00000000000E+00 0. -1.
        -12    1    6    6    0    0  0.20436276882E+02  0.35207938790E+02  0.74284965328E+02  0.84708302075E+02  0.00000000000E+00 0.  1.
</event>
<event>
12    1  0.1345781E-002  0.2977784E+03  0.7818608E-02  0.1086356E+00
         -1   -1    0    0    0  501 -0.00000000000E+00  0.00000000000E+00  0.64502107636E+03  0.64502107636E+03  0.00000000000E+00 0.  1.
          1   -1    0    0  502    0  0.00000000000E+00 -0.00000000000E+00 -0.14931158780E+03  0.14931158780E+03  0.00000000000E+00 0. -1.
          6    2    1    2  502    0 -0.19762266471E+03  0.14218255441E+03  0.13604347726E+03  0.32741934683E+03  0.17153718137E+03 0.  0.
         24    2    3    3    0    0 -0.16612610384E+03  0.12271013601E+03  0.40881662060E+02  0.22519865667E+03  0.79921616725E+02 0.  0.
         -6    2    1    2    0  501  0.19762266471E+03 -0.14218255441E+03  0.35966601131E+03  0.46691331732E+03  0.17139956190E+03 0.  0.
        -24    2    5    5    0    0  0.22133608524E+03 -0.13602762383E+03  0.33982389958E+03  0.43503842311E+03  0.79277801298E+02 0.  0.
          5    1    3    3  502    0 -0.31496560872E+02  0.19472418399E+02  0.95161815196E+02  0.10222069016E+03  0.47000000000E+01 0. -1.
        -13    1    4    4    0    0  0.18419298547E+01  0.19199345381E+02  0.18338080246E+02  0.26613770040E+02  0.00000000000E+00 0.  1.
         14    1    4    4    0    0 -0.16796803369E+03  0.10351079063E+03  0.22543581813E+02  0.19858488663E+03  0.00000000000E+00 0. -1.
         -5    1    5    5    0  501 -0.23713420528E+02 -0.61549305760E+01  0.19842111724E+02  0.31874894214E+02  0.47000000000E+01 0.  1.
         13    1    6    6    0    0  0.24612279266E+02 -0.14626147904E+02  0.64332535012E+01  0.29344083625E+02  0.00000000000E+00 0. -1.
        -14    1    6    6    0    0  0.19672380597E+03 -0.12140147593E+03  0.33339064608E+03  0.40569433948E+03  0.00000000000E+00 0.  1.
</event>
<event>
12    1  0.1345781E-002  0.1872960E+03  0.7818608E-02  0.1160923E+00
         -2   -1    0    0    0  501 -0.00000000000E+00  0.00000000000E+00  0.14187163127E+03  0.14187163127E+03  0.00000000000E+00 0.  1.
          2   -1    0    0  502    0  0.00000000000E+00 -0.00000000000E+00 -0.24837149705E+03  0.24837149705E+03  0.00000000000E+00 0. -1.
          6    2    1    2  502    0  0.15116091587E+02  0.73422797732E+02 -0.66336625318E+02  0.19890135825E+03  0.17187727891E+03 0.  0.
         24    2    3    3    0    0  0.23148316634E+02  0.85900552818E+02  0.23586339491E+02  0.10764106781E+03  0.55816973508E+02 0.  0.
         -6    2    1    2    0  501 -0.15116091587E+02 -0.73422797732E+02 -0.40163240461E+02  0.19134177006E+03  0.17140356950E+03 0.  0.
        -24    2    5    5    0    0 -0.48280581670E+02 -0.98823190459E+02  0.32582576915E+00  0.13297638788E+03  0.74736711413E+02 0.  0.
          5    1    3    3  502    0 -0.80322250470E+01 -0.12477755086E+02 -0.89922964809E+02  0.91260290440E+02  0.47000000000E+01 0. -1.
        -13    1    4    4    0    0 -0.53142409689E+01  0.39853051343E+02  0.33831704594E+02  0.52546085431E+02  0.00000000000E+00 0.  1.
         14    1    4    4    0    0  0.28462557603E+02  0.46047501475E+02 -0.10245365103E+02  0.55094982380E+02  0.00000000000E+00 0. -1.
         -5    1    5    5    0  501  0.33164490083E+02  0.25400392727E+02 -0.40489066230E+02  0.58365382183E+02  0.47000000000E+01 0.  1.
         13    1    6    6    0    0 -0.38475477279E+01 -0.77516914307E+02  0.19624295310E+02  0.80054909866E+02  0.00000000000E+00 0. -1.
        -14    1    6    6    0    0 -0.44433033942E+02 -0.21306276152E+02 -0.19298469541E+02  0.52921478016E+02  0.00000000000E+00 0.  1.
</event>
<event>
12    1  0.1345781E-002  0.2111108E+03  0.7818608E-02  0.1140689E+00
          1   -1    0    0  502    0  0.00000000000E+00  0.00000000000E+00  0.68829140052E+03  0.68829140052E+03  0.00000000000E+00 0. -1.
         -1   -1    0    0    0  501 -0.00000000000E+00 -0.00000000000E+00 -0.71693196935E+02  0.71693196935E+02  0.00000000000E+00 0.  1.
          6    2    1    2  502    0 -0.95871021216E+02  0.73506736289E+02  0.42805313189E+03  0.47779659593E+03  0.17454400698E+03 0.  0.
         24    2    3    3    0    0 -0.11219226629E+02  0.41275705592E+02  0.87541820943E+02  0.12541213465E+03  0.78962511268E+02 0.  0.
         -6    2    1    2    0  501  0.95871021216E+02 -0.73506736289E+02  0.18854507169E+03  0.28218800152E+03  0.17171584422E+03 0.  0.
        -24    2    5    5    0    0  0.69592661024E+02 -0.39964444759E+01  0.17768693418E+03  0.20694026380E+03  0.79953212364E+02 0.  0.
          5    1    3    3  502    0 -0.84651794588E+02  0.32231030697E+02  0.34051131095E+03  0.35238446128E+03  0.47000000000E+01 0. -1.
        -11    1    4    4    0    0 -0.16289566243E+02  0.35153301070E+02  0.10189073036E+03  0.10900837343E+03  0.00000000000E+00 0.  1.
         12    1    4    4    0    0  0.50703396141E+01  0.61224045222E+01 -0.14348909414E+02  0.16403761225E+02  0.00000000000E+00 0. -1.
         -5    1    5    5    0  501  0.26278360192E+02 -0.69510291814E+02  0.10858137516E+02  0.75247737725E+02  0.47000000000E+01 0.  1.
         13    1    6    6    0    0 -0.17548879490E+02 -0.60847760093E+01  0.37824805126E+02  0.42139097680E+02  0.00000000000E+00 0. -1.
        -14    1    6    6    0    0  0.87141540514E+02  0.20883315334E+01  0.13986212905E+03  0.16480116612E+03  0.00000000000E+00 0.  1.
</event>
<event>
12    1  0.1345781E-002  0.5309241E+03  0.7818608E-02  0.1006008E+00
         -2   -1    0    0    0  501 -0.00000000000E+00  0.00000000000E+00  0.30320299242E+03  0.30320299242E+03  0.00000000000E+00 0. -1.
          2   -1    0    0  502    0  0.00000000000E+00 -0.00000000000E+00 -0.14796264780E+04  0.14796264780E+04  0.00000000000E+00 0.  1.
          6    2    1    2  502    0  0.47442021757E+03  0.16360397003E+03 -0.11310272077E+04  0.12490507856E+04  0.17048319117E+03 0.  0.
         24    2    3    3    0    0  0.47235501641E+03  0.17306791445E+03 -0.11282191863E+04  0.12379239583E+04  0.80656244455E+02 0.  0.
         -6    2    1    2    0  501 -0.47442021757E+03 -0.16360397003E+03 -0.45396277810E+02  0.53377868481E+03  0.17611944944E+03 0.  0.
        -24    2    5    5    0    0 -0.40532595363E+03 -0.81715248095E+02 -0.11557467521E+02  0.42132009167E+03  0.80065811250E+02 0.  0.
          5    1    3    3  502    0  0.20652011535E+01 -0.94639444271E+01 -0.28080214399E+01  0.11126827236E+02  0.47000000000E+01 0. -1.
        -11    1    4    4    0    0  0.14673336232E+03  0.32634485148E+02 -0.26428466366E+03  0.30404287968E+03  0.00000000000E+00 0.  1.
         12    1    4    4    0    0  0.32562165409E+03  0.14043342930E+03 -0.86393452264E+03  0.93388107867E+03  0.00000000000E+00 0. -1.
         -5    1    5    5    0  501 -0.69094263935E+02 -0.81888721931E+02 -0.33838810288E+02  0.11245859314E+03  0.47000000000E+01 0.  1.
         13    1    6    6    0    0 -0.23988805675E+03 -0.79522671341E+01 -0.56180015307E+01  0.24008556864E+03  0.00000000000E+00 0. -1.
        -14    1    6    6    0    0 -0.16543789688E+03 -0.73762980961E+02 -0.59394659905E+01  0.18123452304E+03  0.00000000000E+00 0.  1.
</event>
<event>
12    1  0.1345781E-002  0.2363999E+03  0.7818608E-02  0.1122215E+00
          2   -1    0    0  502    0  0.00000000000E+00  0.00000000000E+00  0.11002605405E+04  0.11002605405E+04  0.00000000000E+00 0.  1.
         -2   -1    0    0    0  501 -0.00000000000E+00 -0.00000000000E+00 -0.98216087634E+02  0.98216087634E+02  0.00000000000E+00 0. -1.
          6    2    1    2  502    0  0.23428907472E+02 -0.16048083323E+03  0.84517256539E+02  0.25095965774E+03  0.17185625278E+03 0.  0.
         24    2    3    3    0    0 -0.41638806224E+02 -0.10995615677E+03  0.90138168481E+02  0.16825394483E+03  0.79751827176E+02 0.  0.
         -6    2    1    2    0  501 -0.23428907472E+02  0.16048083323E+03  0.91752719637E+03  0.94751697044E+03  0.17213146618E+03 0.  0.
        -24    2    5    5    0    0 -0.61054300333E+01  0.80690456707E+01  0.22343948583E+03  0.23666586382E+03  0.77350769199E+02 0.  0.
          5    1    3    3  502    0  0.65067713696E+02 -0.50524676463E+02 -0.56209119422E+01  0.82705712912E+02  0.47000000000E+01 0. -1.
        -13    1    4    4    0    0  0.25902603419E+01  0.71079568258E-01 -0.11674908575E+02  0.11959012969E+02  0.00000000000E+00 0.  1.
         14    1    4    4    0    0 -0.44229066566E+02 -0.11002723634E+03  0.10181307706E+03  0.15629493186E+03  0.00000000000E+00 0. -1.
         -5    1    5    5    0  501 -0.17323477439E+02  0.15241178756E+03  0.69408771054E+03  0.71085110662E+03  0.47000000000E+01 0.  1.
         11    1    6    6    0    0 -0.26704897504E+02  0.11185687548E+02  0.28535425386E+02  0.40651465638E+02  0.00000000000E+00 0. -1.
        -12    1    6    6    0    0  0.20599467470E+02 -0.31166418772E+01  0.19490406045E+03  0.19601439819E+03  0.00000000000E+00 0.  1.
</event>
<event>
12    1  0.1345781E-002  0.1775532E+03  0.7818608E-02  0.1170192E+00
          2   -1    0    0  502    0  0.00000000000E+00  0.00000000000E+00  0.32650082570E+04  0.32650082570E+04  0.00000000000E+00 0.  1.
         -2   -1    0    0    0  501 -0.00000000000E+00 -0.00000000000E+00 -0.11758107413E+02  0.11758107413E+02  0.00000000000E+00 0. -1.
          6    2    1    2  502    0 -0.40668021198E+02  0.10826943688E+01  0.94221618299E+03  0.95900640712E+03  0.17397382920E+03 0.  0.
         24    2    3    3    0    0 -0.58376345859E+02  0.55374235659E+02  0.74825232778E+03  0.75675600948E+03  0.79523632553E+02 0.  0.
         -6    2    1    2    0  501  0.40668021198E+02 -0.10826943688E+01  0.23110339666E+04  0.23177599573E+04  0.17169206347E+03 0.  0.
        -24    2    5    5    0    0  0.22330764643E+02  0.60044638205E+02  0.11691710694E+04  0.11741053889E+04  0.86362336266E+02 0.  0.
          5    1    3    3  502    0  0.17708324661E+02 -0.54291541290E+02  0.19396385521E+03  0.20225039764E+03  0.47000000000E+01 0. -1.
        -11    1    4    4    0    0 -0.17464267015E+02 -0.16643486203E+02  0.29600741398E+03  0.29698888091E+03  0.00000000000E+00 0.  1.
         12    1    4    4    0    0 -0.40912078844E+02  0.72017721862E+02  0.45224491380E+03  0.45976712857E+03  0.00000000000E+00 0. -1.
         -5    1    5    5    0  501  0.18337256554E+02 -0.61127332573E+02  0.11418628972E+04  0.11436545684E+04  0.47000000000E+01 0.  1.
         13    1    6    6    0    0  0.39813999711E+02  0.23871407012E+02  0.26451381782E+03  0.26855643441E+03  0.00000000000E+00 0. -1.
        -14    1    6    6    0    0 -0.17483235067E+02  0.36173231192E+02  0.90465725159E+03  0.90554895451E+03  0.00000000000E+00 0.  1.
</event>
<event>
12    1  0.1345781E-002  0.1953698E+03  0.7818608E-02  0.1153705E+00
         -2   -1    0    0    0  501 -0.00000000000E+00  0.00000000000E+00  0.36714217487E+02  0.36714217487E+02  0.00000000000E+00 0. -1.
          2   -1    0    0  502    0  0.00000000000E+00 -0.00000000000E+00 -0.10423602466E+04  0.10423602466E+04  0.00000000000E+00 0.  1.
          6    2    1    2  502    0 -0.34545131493E+02  0.80152847695E+02 -0.48043680601E+03  0.51934173431E+03  0.17685719472E+03 0.  0.
         24    2    3    3    0    0 -0.73643562352E+02  0.92646079316E+02 -0.44005400172E+03  0.46156951768E+03  0.73431770592E+02 0.  0.
         -6    2    1    2    0  501  0.34545131493E+02 -0.80152847695E+02 -0.52520922309E+03  0.55973272977E+03  0.17273724453E+03 0.  0.
        -24    2    5    5    0    0  0.51042779507E+02 -0.11532791512E+03 -0.32762207286E+03  0.35830723561E+03  0.71707455125E+02 0.  0.
          5    1    3    3  502    0  0.39098430859E+02 -0.12493231621E+02 -0.40382804291E+02  0.57772216630E+02  0.47000000000E+01 0. -1.
        -11    1    4    4    0    0 -0.79185588046E+02  0.81307496480E+02 -0.29679156366E+03  0.31775225978E+03  0.00000000000E+00 0.  1.
         12    1    4    4    0    0  0.55420256939E+01  0.11338582837E+02 -0.14326243807E+03  0.14381725790E+03  0.00000000000E+00 0. -1.
         -5    1    5    5    0  501 -0.16497648014E+02  0.35175067429E+02 -0.19758715023E+03  0.20142549416E+03  0.47000000000E+01 0.  1.
         11    1    6    6    0    0  0.28314367966E+02 -0.57860943955E+02 -0.78059825097E+02  0.10120735429E+03  0.00000000000E+00 0. -1.
        -12    1    6    6    0    0  0.22728411542E+02 -0.57466971169E+02 -0.24956224776E+03  0.25709988132E+03  0.00000000000E+00 0.  1.
</event>
<event>
12    1  0.1345781E-002  0.3692958E+03  0.7818608E-02  0.1054963E+00
          1   -1    0    0  502    0  0.00000000000E+00  0.00000000000E+00  0.59049735489E+03  0.59049735489E+03  0.00000000000E+00 0. -1.
         -1   -1    0    0    0  501 -0.00000000000E+00 -0.00000000000E+00 -0.54495976434E+03  0.54495976434E+03  0.00000000000E+00 0.  1.
          6    2    1    2  502    0 -0.30910975953E+03 -0.10959262552E+03 -0.40820344658E+03  0.54981019309E+03  0.16763593775E+03 0.  0.
         24    2    3    3    0    0 -0.30187072641E+03 -0.61083618114E+02 -0.36596730434E+03  0.48491405213E+03  0.79702109420E+02 0.  0.
         -6    2    1    2    0  501  0.30910975953E+03  0.10959262552E+03  0.45374103713E+03  0.58564692615E+03  0.17187788203E+03 0.  0.
        -24    2    5    5    0    0  0.12032343145E+03 -0.11947601867E+02  0.19440650074E+03  0.24258891895E+03  0.80218593351E+02 0.  0.
          5    1    3    3  502    0 -0.72390331185E+01 -0.48509007409E+02 -0.42236142238E+02  0.64896140960E+02  0.47000000000E+01 0. -1.
        -13    1    4    4    0    0 -0.17801659934E+02 -0.23789348446E+02 -0.51851924087E+02  0.59761645120E+02  0.00000000000E+00 0.  1.
         14    1    4    4    0    0 -0.28406906647E+03 -0.37294269667E+02 -0.31411538025E+03  0.42515240701E+03  0.00000000000E+00 0. -1.
         -5    1    5    5    0  501  0.18878632807E+03  0.12154022739E+03  0.25933453639E+03  0.34305800720E+03  0.47000000000E+01 0.  1.
         11    1    6    6    0    0  0.12545524477E+03 -0.12231442400E+02  0.19908803421E+03  0.23563673735E+03  0.00000000000E+00 0. -1.
        -12    1    6    6    0    0 -0.51318133137E+01  0.28384053351E+00 -0.46815334710E+01  0.69521815983E+01  0.00000000000E+00 0.  1.
</event>
<event>
12    1  0.1345781E-002  0.2108296E+03  0.7818608E-02  0.1140911E+00
         -1   -1    0    0    0  501 -0.00000000000E+00  0.00000000000E+00  0.13245668229E+03  0.13245668229E+03  0.00000000000E+00 0.  1.
          1   -1    0    0  502    0  0.00000000000E+00 -0.00000000000E+00 -0.40916900278E+03  0.40916900278E+03  0.00000000000E+00 0. -1.
          6    2    1    2  502    0  0.10971791446E+03  0.41580080414E+02 -0.24427559292E+02  0.21391553450E+03  0.17718980333E+03 0.  0.
         24    2    3    3    0    0 -0.10249207012E+02  0.39412619005E+02 -0.26626762476E+02  0.93816680972E+02  0.80213367760E+02 0.  0.
         -6    2    1    2    0  501 -0.10971791446E+03 -0.41580080414E+02 -0.25228476120E+03  0.32771015056E+03  0.17314565605E+03 0.  0.
        -24    2    5    5    0    0  0.98537351870E+01 -0.49942969841E+02 -0.10139762949E+03  0.13495036784E+03  0.73066587310E+02 0.  0.
          5    1    3    3  502    0  0.11996712147E+03  0.21674614092E+01  0.21992031838E+01  0.12009885353E+03  0.47000000000E+01 0. -1.
        -11    1    4    4    0    0  0.74783579229E+01  0.33742882567E+02  0.22528458926E+02  0.41255780477E+02  0.00000000000E+00 0.  1.
         12    1    4    4    0    0 -0.17727564935E+02  0.56697364382E+01 -0.49155221402E+02  0.52560900495E+02  0.00000000000E+00 0. -1.
         -5    1    5    5    0  501 -0.11957164965E+03  0.83628894267E+01 -0.15088713171E+03  0.19275978272E+03  0.47000000000E+01 0.  1.
         11    1    6    6    0    0 -0.10316085821E+02 -0.27565715357E+02 -0.10059656851E+03  0.10481392982E+03  0.00000000000E+00 0. -1.
        -12    1    6    6    0    0  0.20169821008E+02 -0.22377254484E+02 -0.80106098153E+00  0.30136438018E+02  0.00000000000E+00 0.  1.
</event>
<event>
12    1  0.1345781E-002  0.2725762E+03  0.7818608E-02  0.1099814E+00
         -2   -1    0    0    0  501 -0.00000000000E+00  0.00000000000E+00  0.85935385039E+02  0.85935385039E+02  0.00000000000E+00 0. -1.
          2   -1    0    0  502    0  0.00000000000E+00 -0.00000000000E+00 -0.10111249013E+04  0.10111249013E+04  0.00000000000E+00 0.  1.
          6    2    1    2  502    0 -0.16560714645E+03  0.12845819020E+03 -0.25199035564E+03  0.37030654140E+03  0.17233850901E+03 0.  0.
         24    2    3    3    0    0 -0.10329133761E+03  0.80737106952E+02 -0.64596425465E+02  0.16708465065E+03  0.80975313733E+02 0.  0.
         -6    2    1    2    0  501  0.16560714645E+03 -0.12845819020E+03 -0.67319916062E+03  0.72675374493E+03  0.17620063090E+03 0.  0.
        -24    2    5    5    0    0  0.13582827862E+03 -0.92881465932E+02 -0.32916250112E+03  0.37957108787E+03  0.93005218254E+02 0.  0.
          5    1    3    3  502    0 -0.62315808838E+02  0.47721083248E+02 -0.18739393017E+03  0.20322189075E+03  0.47000000000E+01 0. -1.
        -13    1    4    4    0    0 -0.25945119092E+02  0.99010581564E+01  0.18420163373E+02  0.33323903973E+02  0.00000000000E+00 0.  1.
         14    1    4    4    0    0 -0.77346218520E+02  0.70836048795E+02 -0.83016588838E+02  0.13376074667E+03  0.00000000000E+00 0. -1.
         -5    1    5    5    0  501  0.29778867827E+02 -0.35576724267E+02 -0.34403665950E+03  0.34718265705E+03  0.47000000000E+01 0.  1.
         11    1    6    6    0    0  0.14546587171E+03 -0.87910133623E+02 -0.32696968025E+03  0.36850737201E+03  0.00000000000E+00 0. -1.
        -12    1    6    6    0    0 -0.96375930831E+01 -0.49713323097E+01 -0.21928208679E+01  0.11063715864E+02  0.00000000000E+00 0.  1.
</event>
<event>
12    1  0.1345781E-002  0.1993487E+03  0.7818608E-02  0.1150290E+00
          2   -1    0    0  502    0  0.00000000000E+00  0.00000000000E+00  0.18601499066E+03  0.18601499066E+03  0.00000000000E+00 0. -1.
         -2   -1    0    0    0  501 -0.00000000000E+00 -0.00000000000E+00 -0.21802635653E+03  0.21802635653E+03  0.00000000000E+00 0.  1.
          6    2    1    2  502    0 -0.84456481350E+02 -0.53237336886E+02  0.12670859205E+02  0.19953230785E+03  0.17229474723E+03 0.  0.
         24    2    3    3    0    0  0.20114351560E+01 -0.24619002971E+02  0.52983194832E+02  0.99818296676E+02  0.80909407599E+02 0.  0.
         -6    2    1    2    0  501  0.84456481350E+02  0.53237336886E+02 -0.44682225074E+02  0.20450903933E+03  0.17280143128E+03 0.  0.
        -24    2    5    5    0    0  0.74479709679E+02  0.77796843891E+02  0.21078984860E+02  0.13345038687E+03  0.75928295654E+02 0.  0.
          5    1    3    3  502    0 -0.86467916506E+02 -0.28618333915E+02 -0.40312335626E+02  0.99714011175E+02  0.47000000000E+01 0. -1.
        -11    1    4    4    0    0  0.16876484978E+02 -0.22645362398E+02 -0.13756657591E+02  0.31414547767E+02  0.00000000000E+00 0.  1.
         12    1    4    4    0    0 -0.14865049822E+02 -0.19736405733E+01  0.66739852423E+02  0.68403748909E+02  0.00000000000E+00 0. -1.
         -5    1    5    5    0  501  0.99767716712E+01 -0.24559507005E+02 -0.65761209934E+02  0.71058652459E+02  0.47000000000E+01 0.  1.
         13    1    6    6    0    0  0.39484723340E+02  0.51620807042E+02  0.49173532547E+02  0.81497161914E+02  0.00000000000E+00 0. -1.
        -14    1    6    6    0    0  0.34994986339E+02  0.26176036849E+02 -0.28094547687E+02  0.51953224960E+02  0.00000000000E+00 0.  1.
</event>
<event>
12    1  0.1345781E-002  0.2026714E+03  0.7818608E-02  0.1147505E+00
         -1   -1    0    0    0  501 -0.00000000000E+00  0.00000000000E+00  0.11564152430E+04  0.11564152430E+04  0.00000000000E+00 0. -1.
          1   -1    0    0  502    0  0.00000000000E+00 -0.00000000000E+00 -0.36555166181E+02  0.36555166181E+02  0.00000000000E+00 0.  1.
          6    2    1    2  502    0  0.73317941983E+02 -0.72445410068E+02  0.66032410708E+03  0.69072801552E+03  0.17450904556E+03 0.  0.
         24    2    3    3    0    0 -0.70473823709E+00 -0.47797076499E+02  0.16679393666E+03  0.19104710069E+03  0.79960741602E+02 0.  0.
         -6    2    1    2    0  501 -0.73317941983E+02  0.72445410068E+02  0.45953596976E+03  0.50224239368E+03  0.17450001848E+03 0.  0.
        -24    2    5    5    0    0  0.20585016860E+02  0.41316782447E+02  0.12898038989E+03  0.15716872253E+03  0.77040553830E+02 0.  0.
          5    1    3    3  502    0  0.74022680220E+02 -0.24648333569E+02  0.49353017042E+03  0.49968091484E+03  0.47000000000E+01 0. -1.
        -11    1    4    4    0    0  0.35870178417E+02 -0.17159552330E+02  0.10945521870E+03  0.11645413190E+03  0.00000000000E+00 0.  1.
         12    1    4    4    0    0 -0.36574916654E+02 -0.30637524169E+02  0.57338717952E+02  0.74592968783E+02  0.00000000000E+00 0. -1.
         -5    1    5    5    0  501 -0.93902958842E+02  0.31128627621E+02  0.33055557988E+03  0.34507367116E+03  0.47000000000E+01 0.  1.
         11    1    6    6    0    0  0.21129353177E+02 -0.46003936788E+01  0.15073855921E+01  0.21676840152E+02  0.00000000000E+00 0. -1.
        -12    1    6    6    0    0 -0.54433631723E+00  0.45917176126E+02  0.12747300430E+03  0.13549188237E+03  0.00000000000E+00 0.  1.
</event>
<event>
12    1  0.1345781E-002  0.2138717E+03  0.7818608E-02  0.1138536E+00
         -2   -1    0    0    0  501 -0.00000000000E+00  0.00000000000E+00  0.98387977642E+02  0.98387977642E+02  0.00000000000E+00 0.  1.
          2   -1    0    0  502    0  0.00000000000E+00 -0.00000000000E+00 -0.49904226611E+03  0.49904226611E+03  0.00000000000E+00 0. -1.
          6    2    1    2  502    0  0.93975177759E+02 -0.99417332480E+02 -0.27324870383E+03  0.34365945508E+03  0.15723176171E+03 0.  0.
         24    2    3    3    0    0  0.12262760737E+03 -0.10018604953E+03 -0.24996516903E+03  0.30643358180E+03  0.79650359183E+02 0.  0.
         -6    2    1    2    0  501 -0.93975177759E+02  0.99417332480E+02 -0.12740558465E+03  0.25377078868E+03  0.17161669544E+03 0.  0.
        -24    2    5    5    0    0  0.20863260885E+02  0.56613536520E+02 -0.46398323084E+02  0.10678678150E+03  0.74901563047E+02 0.  0.
          5    1    3    3  502    0 -0.28652429612E+02  0.76871704746E+00 -0.23283534796E+02  0.37225873276E+02  0.47000000000E+01 0. -1.
        -13    1    4    4    0    0  0.32323884500E+02  0.76888951133E+01 -0.27083307364E+02  0.42865582406E+02  0.00000000000E+00 0.  1.
         14    1    4    4    0    0  0.90303722872E+02 -0.10787494464E+03 -0.22288186167E+03  0.26356799940E+03  0.00000000000E+00 0. -1.
         -5    1    5    5    0  501 -0.11483843864E+03  0.42803795960E+02 -0.81007261562E+02  0.14698400717E+03  0.47000000000E+01 0.  1.
         13    1    6    6    0    0 -0.87777621193E+01  0.58483415103E+01 -0.46826844116E+02  0.48000057668E+02  0.00000000000E+00 0. -1.
        -14    1    6    6    0    0  0.29641023004E+02  0.50765195010E+02  0.42852103249E+00  0.58786723836E+02  0.00000000000E+00 0.  1.
</event>
<event>
12    1  0.1345781E-002  0.1887651E+03  0.7818608E-02  0.1159580E+00
         -2   -1    0    0    0  501 -0.00000000000E+00  0.00000000000E+00  0.36056329153E+02  0.36056329153E+02  0.00000000000E+00 0. -1.
          2   -1    0    0  502    0  0.00000000000E+00 -0.00000000000E+00 -0.11849754564E+04  0.11849754564E+04  0.00000000000E+00 0.  1.
          6    2    1    2  502    0  0.73154511886E+02  0.91978979921E+00 -0.81831620061E+03  0.83938203357E+03  0.17195454478E+03 0.  0.
         24    2    3    3    0    0  0.11384176000E+02 -0.60177137805E+02 -0.48210158480E+03  0.49209142493E+03  0.77337862994E+02 0.  0.
         -6    2    1    2    0  501 -0.73154511886E+02 -0.91978979921E+00 -0.33060292663E+03  0.38164975198E+03  0.17608466562E+03 0.  0.
        -24    2    5    5    0    0 -0.39717700551E+02  0.20528670196E+02 -0.65107380136E+02  0.11315760685E+03  0.81035492240E+02 0.  0.
          5    1    3    3  502    0  0.61770335886E+02  0.61096927604E+02 -0.33621461582E+03  0.34729060864E+03  0.47000000000E+01 0. -1.
        -13    1    4    4    0    0  0.34069128977E+02 -0.32940629667E+02 -0.39819336373E+03  0.40100342337E+03  0.00000000000E+00 0.  1.
         14    1    4    4    0    0 -0.22684952977E+02 -0.27236508138E+02 -0.83908221062E+02  0.91088001563E+02  0.00000000000E+00 0. -1.
         -5    1    5    5    0  501 -0.33436811335E+02 -0.21448459995E+02 -0.26549554650E+03  0.26849214513E+03  0.47000000000E+01 0.  1.
         11    1    6    6    0    0 -0.54362798502E+02  0.40181057778E+02 -0.52522296704E+02  0.85606208398E+02  0.00000000000E+00 0. -1.
        -12    1    6    6    0    0  0.14645097951E+02 -0.19652387582E+02 -0.12585083431E+02  0.27551398452E+02  0.00000000000E+00 0.  1.
</event>
<event>
12    1  0.1345781E-002  0.1925343E+03  0.7818608E-02  0.1156195E+00
         -2   -1    0    0    0  501 -0.00000000000E+00  0.00000000000E+00  0.68224314889E+02  0.68224314889E+02  0.00000000000E+00 0.  1.
          2   -1    0    0  502    0  0.00000000000E+00 -0.00000000000E+00 -0.63073339048E+03  0.63073339048E+03  0.00000000000E+00 0. -1.
          6    2    1    2  502    0  0.78588745096E+02  0.38293212510E+02 -0.15202487944E+03  0.24584813994E+03  0.17229968939E+03 0.  0.
         24    2    3    3    0    0  0.33732248223E+02 -0.26103351515E+02 -0.25657455159E+02  0.97019921213E+02  0.83278512093E+02 0.  0.
         -6    2    1    2    0  501 -0.78588745096E+02 -0.38293212510E+02 -0.41048419615E+03  0.45310956543E+03  0.17078771037E+03 0.  0.
        -24    2    5    5    0    0 -0.71021501083E+02  0.38400058699E+02 -0.21517041057E+03  0.24308888580E+03  0.79216681918E+02 0.  0.
          5    1    3    3  502    0  0.44856496873E+02  0.64396564025E+02 -0.12636742428E+03  0.14882821873E+03  0.47000000000E+01 0. -1.
        -11    1    4    4    0    0  0.68920920254E+01  0.28854519506E+02 -0.19605986218E+02  0.35559512426E+02  0.00000000000E+00 0.  1.
         12    1    4    4    0    0  0.26840156198E+02 -0.54957871021E+02 -0.60514689413E+01  0.61460408787E+02  0.00000000000E+00 0. -1.
         -5    1    5    5    0  501 -0.75672440132E+01 -0.76693271208E+02 -0.19531378558E+03  0.21002067962E+03  0.47000000000E+01 0.  1.
         11    1    6    6    0    0 -0.61132117355E+02  0.24522926492E+02 -0.21620636614E+03  0.22601704019E+03  0.00000000000E+00 0. -1.
        -12    1    6    6    0    0 -0.98893837278E+01  0.13877132206E+02  0.10359555737E+01  0.17071845616E+02  0.00000000000E+00 0.  1.
</event>
<event>
12    1  0.1345781E-002  0.2170023E+03  0.7818608E-02  0.1136138E+00
          1   -1    0    0  502    0  0.00000000000E+00  0.00000000000E+00  0.81450629666E+02  0.81450629666E+02  0.00000000000E+00 0. -1.
         -1   -1    0    0    0  501 -0.00000000000E+00 -0.00000000000E+00 -0.18397208977E+04  0.18397208977E+04  0.00000000000E+00 0.  1.
          6    2    1    2  502    0 -0.10249552809E+03  0.83224784251E+02 -0.16745181007E+04  0.16885127169E+04  0.17214130143E+03 0.  0.
         24    2    3    3    0    0 -0.13562952589E+02 -0.11440941900E+02 -0.83852703794E+03  0.84247858658E+03  0.79547009106E+02 0.  0.
         -6    2    1    2    0  501  0.10249552809E+03 -0.83224784251E+02 -0.83752167365E+02  0.23265881047E+03  0.17229044825E+03 0.  0.
        -24    2    5    5    0    0  0.69225614355E+02 -0.58702387328E+02  0.18553499231E+02  0.12221980229E+03  0.79720083899E+02 0.  0.
          5    1    3    3  502    0 -0.88932575501E+02  0.94665726151E+02 -0.83599106274E+03  0.84603413032E+03  0.47000000000E+01 0. -1.
        -13    1    4    4    0    0 -0.20324006615E+02  0.20172274832E+02 -0.68434313471E+03  0.68494197706E+03  0.00000000000E+00 0.  1.
         14    1    4    4    0    0  0.67610540255E+01 -0.31613216732E+02 -0.15418390322E+03  0.15753660951E+03  0.00000000000E+00 0. -1.
         -5    1    5    5    0  501  0.33269913735E+02 -0.24522396922E+02 -0.10230566660E+03  0.11043900818E+03  0.47000000000E+01 0.  1.
         11    1    6    6    0    0  0.48640852083E+02  0.74674523007E+01  0.19453241680E+02  0.52916197398E+02  0.00000000000E+00 0. -1.
        -12    1    6    6    0    0  0.20584762272E+02 -0.66169839629E+02 -0.89974244897E+00  0.69303604890E+02  0.00000000000E+00 0.  1.
</event>
<event>
12    1  0.1345781E-002  0.1731140E+03  0.7818608E-02  0.1174639E+00
         -1   -1    0    0    0  501 -0.00000000000E+00  0.00000000000E+00  0.19199906214E+03  0.19199906214E+03  0.00000000000E+00 0.  1.
          1   -1    0    0  502    0  0.00000000000E+00 -0.00000000000E+00 -0.15821392915E+03  0.15821392915E+03  0.00000000000E+00 0. -1.
          6    2    1    2  502    0  0.10130281862E+02  0.17286431559E+02 -0.33262928042E+01  0.17389657195E+03  0.17270642775E+03 0.  0.
         24    2    3    3    0    0 -0.17232534727E+02 -0.53616559238E+02  0.17708695006E+02  0.94899619174E+02  0.74301037429E+02 0.  0.
         -6    2    1    2    0  501 -0.10130281862E+02 -0.17286431559E+02  0.37111425794E+02  0.17631641934E+03  0.17119806797E+03 0.  0.
        -24    2    5    5    0    0 -0.48132216691E+02 -0.65604041230E+01  0.76476247292E+02  0.12036220693E+03  0.79238218497E+02 0.  0.
          5    1    3    3  502    0  0.27362816589E+02  0.70902990797E+02 -0.21034987810E+02  0.78996952775E+02  0.47000000000E+01 0. -1.
        -13    1    4    4    0    0  0.12024730912E+02  0.13366219933E+02  0.11931521994E+02  0.21578025996E+02  0.00000000000E+00 0.  1.
         14    1    4    4    0    0 -0.29257265639E+02 -0.66982779171E+02  0.57771730115E+01  0.73321593178E+02  0.00000000000E+00 0. -1.
         -5    1    5    5    0  501  0.38001934829E+02 -0.10726027436E+02 -0.39364821498E+02  0.55954212414E+02  0.47000000000E+01 0.  1.
         11    1    6    6    0    0 -0.30163810179E+02 -0.42863784227E+02  0.44466134044E+02  0.68734245610E+02  0.00000000000E+00 0. -1.
        -12    1    6    6    0    0 -0.17968406511E+02  0.36303380104E+02  0.32010113248E+02  0.51627961316E+02  0.00000000000E+00 0.  1.
</event>
<event>
12    1  0.1345781E-002  0.1782753E+03  0.7818608E-02  0.1169483E+00
         -1   -1    0    0    0  501 -0.00000000000E+00  0.00000000000E+00  0.39826520905E+03  0.39826520905E+03  0.00000000000E+00 0. -1.
          1   -1    0    0  502    0  0.00000000000E+00 -0.00000000000E+00 -0.16132442404E+03  0.16132442404E+03  0.00000000000E+00 0.  1.
          6    2    1    2  502    0  0.57310911485E+02  0.39544004195E+02 -0.82157644508E+02  0.19119909012E+03  0.15798400131E+03 0.  0.
         24    2    3    3    0    0  0.79074167727E+01  0.28199141005E+02  0.98787423957E+01  0.86022107257E+02  0.80277609532E+02 0.  0.
         -6    2    1    2    0  501 -0.57310911485E+02 -0.39544004195E+02  0.31909842952E+03  0.36839054297E+03  0.17040984592E+03 0.  0.
        -24    2    5    5    0    0 -0.64803122259E+02 -0.69145972516E+02  0.14195279607E+03  0.18857098008E+03  0.80173611900E+02 0.  0.
          5    1    3    3  502    0  0.49403494713E+02  0.11344863190E+02 -0.92036386904E+02  0.10517698287E+03  0.47000000000E+01 0. -1.
        -13    1    4    4    0    0 -0.30758882632E+02 -0.64035315485E+01 -0.55138777537E+01  0.31898541110E+02  0.00000000000E+00 0.  1.
         14    1    4    4    0    0  0.38666299404E+02  0.34602672554E+02  0.15392620149E+02  0.54123566148E+02  0.00000000000E+00 0. -1.
         -5    1    5    5    0  501  0.74922107739E+01  0.29601968321E+02  0.17714563344E+03  0.17981956289E+03  0.47000000000E+01 0.  1.
         11    1    6    6    0    0 -0.70470767593E+02 -0.74439888344E+02  0.14707831976E+03  0.17927481197E+03  0.00000000000E+00 0. -1.
        -12    1    6    6    0    0  0.56676453341E+01  0.52939158283E+01 -0.51255236901E+01  0.92961681100E+01  0.00000000000E+00 0.  1.
</event>
<event>
12    1  0.1345781E-002  0.1774759E+03  0.7818608E-02  0.1170268E+00
          2   -1    0    0  502    0  0.00000000000E+00  0.00000000000E+00  0.28249502612E+04  0.28249502612E+04  0.00000000000E+00 0. -1.
         -2   -1    0    0    0  501 -0.00000000000E+00 -0.00000000000E+00 -0.11252254154E+02  0.11252254154E+02  0.00000000000E+00 0.  1.
          6    2    1    2  502    0 -0.35111242427E+02  0.28683373181E+02  0.12741637044E+04  0.12865100892E+04  0.17192884756E+03 0.  0.
         24    2    3    3    0    0 -0.42911731114E+02  0.83779879890E+02  0.78238915684E+03  0.79157497390E+03  0.74817522170E+02 0.  0.
         -6    2    1    2    0  501  0.35111242427E+02 -0.28683373181E+02  0.15395343026E+04  0.15496924262E+04  0.17124605566E+03 0.  0.
        -24    2    5    5    0    0  0.24217526391E+02  0.38198007356E+02  0.11780962444E+04  0.11819270770E+04  0.83637778436E+02 0.  0.
          5    1    3    3  502    0  0.78004886870E+01 -0.55096506709E+02  0.49177454760E+03  0.49493511528E+03  0.47000000000E+01 0. -1.
        -11    1    4    4    0    0  0.14462091701E+02  0.91253672049E+01  0.43985570235E+02  0.47192741093E+02  0.00000000000E+00 0.  1.
         12    1    4    4    0    0 -0.57373822814E+02  0.74654512685E+02  0.73840358661E+03  0.74438223281E+03  0.00000000000E+00 0. -1.
         -5    1    5    5    0  501  0.10893716036E+02 -0.66881380537E+02  0.36143805820E+03  0.36776534914E+03  0.47000000000E+01 0.  1.
         11    1    6    6    0    0  0.37298409521E+02  0.33700363866E+02  0.11443818916E+04  0.11454853992E+04  0.00000000000E+00 0. -1.
        -12    1    6    6    0    0 -0.13080883131E+02  0.44976434895E+01  0.33714352798E+02  0.36441677857E+02  0.00000000000E+00 0.  1.
</event>
<event>
12    1  0.1345781E-002  0.2045790E+03  0.7818608E-02  0.1145932E+00
         -2   -1    0    0    0  501 -0.00000000000E+00  0.00000000000E+00  0.46283085320E+02  0.46283085320E+02  0.00000000000E+00 0. -1.
          2   -1    0    0  502    0  0.00000000000E+00 -0.00000000000E+00 -0.99523022384E+03  0.99523022384E+03  0.00000000000E+00 0.  1.
          6    2    1    2  502    0 -0.25535340146E+02 -0.10714627361E+03 -0.63096366914E+03  0.66316374602E+03  0.17186804451E+03 0.  0.
         24    2    3    3    0    0  0.45463917487E+02 -0.47918419426E+02 -0.43083566118E+03  0.44265945385E+03  0.77232651314E+02 0.  0.
         -6    2    1    2    0  501  0.25535340146E+02  0.10714627361E+03 -0.31798346938E+03  0.37834956314E+03  0.17292347320E+03 0.  0.
        -24    2    5    5    0    0  0.44607811062E+02  0.14296808293E+02 -0.23437676695E+03  0.25187050144E+03  0.79448254076E+02 0.  0.
          5    1    3    3  502    0 -0.70999257633E+02 -0.59227854182E+02 -0.20012800796E+03  0.22050429217E+03  0.47000000000E+01 0. -1.
        -11    1    4    4    0    0  0.44607489685E+02 -0.26507032979E+02 -0.11577835267E+03  0.12687426012E+03  0.00000000000E+00 0.  1.
         12    1    4    4    0    0  0.85642780185E+00 -0.21411386446E+02 -0.31505730851E+03  0.31578519373E+03  0.00000000000E+00 0. -1.
         -5    1    5    5    0  501 -0.19072470916E+02  0.92849465314E+02 -0.83606702433E+02  0.12647906170E+03  0.47000000000E+01 0.  1.
         13    1    6    6    0    0  0.25622208417E+02 -0.10313123460E+02 -0.17323631941E+02  0.32603164007E+02  0.00000000000E+00 0. -1.
        -14    1    6    6    0    0  0.18985602645E+02  0.24609931753E+02 -0.21705313501E+03  0.21926733744E+03  0.00000000000E+00 0.  1.
</event>
<event>
12    1  0.1345781E-002  0.1933705E+03  0.7818608E-02  0.1155456E+00
         -2   -1    0    0    0  501 -0.00000000000E+00  0.00000000000E+00  0.87531122684E+02  0.87531122684E+02  0.00000000000E+00 0.  1.
          2   -1    0    0  502    0  0.00000000000E+00 -0.00000000000E+00 -0.43382645762E+03  0.43382645762E+03  0.00000000000E+00 0. -1.
          6    2    1    2  502    0  0.81055225516E+00  0.10951217244E+03 -0.21050995463E+03  0.29126810395E+03  0.16890557858E+03 0.  0.
         24    2    3    3    0    0 -0.55560142492E+02  0.10557987798E+03 -0.14142619938E+03  0.20189375973E+03  0.80781682817E+02 0.  0.
         -6    2    1    2    0  501 -0.81055225516E+00 -0.10951217244E+03 -0.13578538030E+03  0.23008947635E+03  0.15003307873E+03 0.  0.
        -24    2    5    5    0    0 -0.73644943235E+01 -0.59588138092E+01 -0.38028662945E+02  0.87454564670E+02  0.78181701425E+02 0.  0.
          5    1    3    3  502    0  0.56370694747E+02  0.39322944645E+01 -0.69083755253E+02  0.89374344226E+02  0.47000000000E+01 0. -1.
        -11    1    4    4    0    0 -0.43846699529E+02  0.86700956644E+02 -0.14946409616E+03  0.17826694866E+03  0.00000000000E+00 0.  1.
         12    1    4    4    0    0 -0.11713442964E+02  0.18878921333E+02  0.80378967801E+01  0.23626811071E+02  0.00000000000E+00 0. -1.
         -5    1    5    5    0  501  0.65539420683E+01 -0.10355335863E+03 -0.97756717358E+02  0.14263491168E+03  0.47000000000E+01 0.  1.
         13    1    6    6    0    0  0.32194281538E+02  0.13186078515E+02 -0.15939805625E+02  0.38267764943E+02  0.00000000000E+00 0. -1.
        -14    1    6    6    0    0 -0.39558775861E+02 -0.19144892324E+02 -0.22088857319E+02  0.49186799727E+02  0.00000000000E+00 0.  1.
</event>
<event>
12    1  0.1345781E-002  0.1810196E+03  0.7818608E-02  0.1166820E+00
          2   -1    0    0  502    0  0.00000000000E+00  0.00000000000E+00  0.96281654322E+03  0.96281654322E+03  0.00000000000E+00 0.  1.
         -2   -1    0    0    0  501 -0.00000000000E+00 -0.00000000000E+00 -0.40818735060E+02  0.40818735060E+02  0.00000000000E+00 0. -1.
          6    2    1    2  502    0  0.41388643678E+02 -0.35737703318E+02  0.66620828603E+03  0.69043953134E+03  0.17286718255E+03 0.  0.
         24    2    3    3    0    0 -0.28475099800E+01 -0.25050699074E+02  0.61848568901E+03  0.62432912659E+03  0.81404330117E+02 0.  0.
         -6    2    1    2    0  501 -0.41388643678E+02  0.35737703318E+02  0.25578952213E+03  0.31319574694E+03  0.17225879659E+03 0.  0.
        -24    2    5    5    0    0 -0.87554699260E+02  0.37196722923E+02  0.12486802481E+03  0.17428584129E+03  0.75723901748E+02 0.  0.
          5    1    3    3  502    0  0.44236153658E+02 -0.10687004244E+02  0.47722597017E+02  0.66110404750E+02  0.47000000000E+01 0. -1.
        -13    1    4    4    0    0  0.37714812544E+02 -0.11302340845E+02  0.21486639414E+03  0.21844385394E+03  0.00000000000E+00 0.  1.
         14    1    4    4    0    0 -0.40562322524E+02 -0.13748358229E+02  0.40361929487E+03  0.40588527265E+03  0.00000000000E+00 0. -1.
         -5    1    5    5    0  501  0.46166055581E+02 -0.14590196044E+01  0.13092149732E+03  0.13890990564E+03  0.47000000000E+01 0.  1.
         13    1    6    6    0    0 -0.79843365016E+02  0.41640374520E+02  0.13405687456E+03  0.16149343437E+03  0.00000000000E+00 0. -1.
        -14    1    6    6    0    0 -0.77113342439E+01 -0.44436515968E+01 -0.91888497452E+01  0.12792406927E+02  0.00000000000E+00 0.  1.
</event>
<event>
12    1  0.1345781E-002  0.2230700E+03  0.7818608E-02  0.1131615E+00
         -1   -1    0    0    0  501 -0.00000000000E+00  0.00000000000E+00  0.36519853139E+03  0.36519853139E+03  0.00000000000E+00 0.  1.
          1   -1    0    0  502    0  0.00000000000E+00 -0.00000000000E+00 -0.14325123996E+03  0.14325123996E+03  0.00000000000E+00 0. -1.
          6    2    1    2  502    0 -0.12844419676E+03 -0.63671568601E+02  0.16688324756E+03  0.27813331532E+03  0.17016504472E+03 0.  0.
         24    2    3    3    0    0 -0.92972882521E+02 -0.67586886507E+02  0.52581121673E+02  0.15829755342E+03  0.95296363784E+02 0.  0.
         -6    2    1    2    0  501  0.12844419676E+03  0.63671568601E+02  0.55064043874E+02  0.23031645603E+03  0.17164393570E+03 0.  0.
        -24    2    5    5    0    0  0.79847735441E+02  0.58791842349E+02 -0.31224827955E+02  0.13105273062E+03  0.79797786561E+02 0.  0.
          5    1    3    3  502    0 -0.35471314239E+02  0.39153179058E+01  0.11430212588E+03  0.11983576190E+03  0.47000000000E+01 0. -1.
        -11    1    4    4    0    0 -0.22323880885E+02 -0.42163039538E+02  0.66591117221E+02  0.81917363566E+02  0.00000000000E+00 0.  1.
         12    1    4    4    0    0 -0.70649001636E+02 -0.25423846970E+02 -0.14009995548E+02  0.76380189855E+02  0.00000000000E+00 0. -1.
         -5    1    5    5    0  501  0.48596461319E+02  0.48797262524E+01  0.86288871829E+02  0.99263725412E+02  0.47000000000E+01 0.  1.
         13    1    6    6    0    0 -0.95826441261E+01  0.32747609095E+02 -0.75714423814E+01  0.34950818440E+02  0.00000000000E+00 0. -1.
        -14    1    6    6    0    0  0.89430379567E+02  0.26044233254E+02 -0.23653385574E+02  0.96101912179E+02  0.00000000000E+00 0.  1.
</event>
<event>
12    1  0.1345781E-002  0.1880564E+03  0.7818608E-02  0.1160226E+00
          2   -1    0    0  502    0  0.00000000000E+00  0.00000000000E+00  0.57323327085E+02  0.57323327085E+02  0.00000000000E+00 0.  1.
         -2   -1    0    0    0  501 -0.00000000000E+00 -0.00000000000E+00 -0.72011284325E+03  0.72011284325E+03  0.00000000000E+00 0. -1.
          6    2    1    2  502    0  0.45819528890E+02  0.38338050317E+02 -0.46920155468E+03  0.50337036254E+03  0.17222772029E+03 0.  0.
         24    2    3    3    0    0 -0.36068161285E+02  0.81936342669E+01 -0.16471773886E+03  0.18659478943E+03  0.79483545759E+02 0.  0.
         -6    2    1    2    0  501 -0.45819528890E+02 -0.38338050317E+02 -0.19358796149E+03  0.27406580780E+03  0.18457121347E+03 0.  0.
        -24    2    5    5    0    0  0.13830240404E+02 -0.78990031956E+02 -0.15514109743E+03  0.19214554203E+03  0.80127701279E+02 0.  0.
          5    1    3    3  502    0  0.81887690175E+02  0.30144416050E+02 -0.30448381582E+03  0.31677557311E+03  0.47000000000E+01 0. -1.
        -11    1    4    4    0    0 -0.20890163254E+02 -0.16315737259E+02 -0.86433429961E+01  0.27880272259E+02  0.00000000000E+00 0.  1.
         12    1    4    4    0    0 -0.15177998031E+02  0.24509371525E+02 -0.15607439586E+03  0.15871451717E+03  0.00000000000E+00 0. -1.
         -5    1    5    5    0  501 -0.59649769294E+02  0.40651981639E+02 -0.38446864057E+02  0.81920265770E+02  0.47000000000E+01 0.  1.
         13    1    6    6    0    0  0.35666242486E+02 -0.48528029974E+02 -0.13871396447E+03  0.15122372329E+03  0.00000000000E+00 0. -1.
        -14    1    6    6    0    0 -0.21836002081E+02 -0.30462001981E+02 -0.16427132955E+02  0.40921818737E+02  0.00000000000E+00 0.  1.
</event>
<event>
12    1  0.1345781E-002  0.1799882E+03  0.7818608E-02  0.1167814E+00
          2   -1    0    0  502    0  0.00000000000E+00  0.00000000000E+00  0.19586926998E+04  0.19586926998E+04  0.00000000000E+00 0. -1.
         -2   -1    0    0    0  501 -0.00000000000E+00 -0.00000000000E+00 -0.21659040325E+02  0.21659040325E+02  0.00000000000E+00 0.  1.
          6    2    1    2  502    0  0.40547648611E+02 -0.36452731375E+02  0.48522976071E+03  0.51737659508E+03  0.17104884400E+03 0.  0.
         24    2    3    3    0    0 -0.31907955161E+02 -0.46390340338E+01  0.15206405986E+03  0.17490995426E+03  0.80189622514E+02 0.  0.
         -6    2    1    2    0  501 -0.40547648611E+02  0.36452731375E+02  0.14518038987E+04  0.14629751450E+04  0.17201395611E+03 0.  0.
        -24    2    5    5    0    0 -0.48846262318E+02  0.70716666281E+02  0.64987331178E+03  0.66025623996E+03  0.78842734681E+02 0.  0.
          5    1    3    3  502    0  0.72455603772E+02 -0.31813697341E+02  0.33316570084E+03  0.34246664082E+03  0.47000000000E+01 0. -1.
        -11    1    4    4    0    0  0.37132865948E+01  0.33009197618E+02  0.44706020874E+02  0.55695816065E+02  0.00000000000E+00 0.  1.
         12    1    4    4    0    0 -0.35621241755E+02 -0.37648231652E+02  0.10735803899E+03  0.11921413820E+03  0.00000000000E+00 0. -1.
         -5    1    5    5    0  501  0.82986137067E+01 -0.34263934906E+02  0.80193058696E+03  0.80271890505E+03  0.47000000000E+01 0.  1.
         13    1    6    6    0    0 -0.23395204108E+02 -0.36578445463E+01  0.33064499451E+03  0.33149182161E+03  0.00000000000E+00 0. -1.
        -14    1    6    6    0    0 -0.25451058210E+02  0.74374510828E+02  0.31922831727E+03  0.32876441835E+03  0.00000000000E+00 0.  1.
</event>
<event>
12    1  0.1345781E-002  0.1856415E+03  0.7818608E-02  0.1162452E+00
          1   -1    0    0  502    0  0.00000000000E+00  0.00000000000E+00  0.12421695577E+03  0.12421695577E+03  0.00000000000E+00 0.  1.
         -1   -1    0    0    0  501 -0.00000000000E+00 -0.00000000000E+00 -0.30638879080E+03  0.30638879080E+03  0.00000000000E+00 0. -1.
          6    2    1    2  502    0  0.55326618973E+02  0.28246867689E+02 -0.25736525460E+02  0.18920517410E+03  0.17685391956E+03 0.  0.
         24    2    3    3    0    0  0.84591918692E+02  0.67169717868E+02 -0.35739240213E+02  0.13926931188E+03  0.80318641877E+02 0.  0.
         -6    2    1    2    0  501 -0.55326618973E+02 -0.28246867689E+02 -0.15643530957E+03  0.24140057247E+03  0.17304135346E+03 0.  0.
        -24    2    5    5    0    0 -0.62412345061E+02  0.60225210853E+01 -0.17463893263E+03  0.20167576393E+03  0.79011299135E+02 0.  0.
          5    1    3    3  502    0 -0.29265299719E+02 -0.38922850179E+02  0.10002714753E+02  0.49935862225E+02  0.47000000000E+01 0. -1.
        -11    1    4    4    0    0  0.84939129423E+02  0.55682472677E+02  0.17206347023E+00  0.10156388667E+03  0.00000000000E+00 0.  1.
         12    1    4    4    0    0 -0.34721073178E+00  0.11487245191E+02 -0.35911303683E+02  0.37705425201E+02  0.00000000000E+00 0. -1.
         -5    1    5    5    0  501  0.70857260884E+01 -0.34269388774E+02  0.18203623060E+02  0.39724808542E+02  0.47000000000E+01 0.  1.
         11    1    6    6    0    0 -0.15816906451E+02  0.64252600679E+01 -0.14597131074E+03  0.14696626162E+03  0.00000000000E+00 0. -1.
        -12    1    6    6    0    0 -0.46595438610E+02 -0.40273898256E+00 -0.28667621891E+02  0.54709502309E+02  0.00000000000E+00 0.  1.
</event>
<event>
12    1  0.1345781E-002  0.2674411E+03  0.7818608E-02  0.1102753E+00
          1   -1    0    0  502    0  0.00000000000E+00  0.00000000000E+00  0.12837091493E+03  0.12837091493E+03  0.00000000000E+00 0. -1.
         -1   -1    0    0    0  501 -0.00000000000E+00 -0.00000000000E+00 -0.58946317119E+03  0.58946317119E+03  0.00000000000E+00 0.  1.
          6    2    1    2  502    0 -0.20234685901E+03  0.21765873177E+02 -0.14590433021E+03  0.30395960519E+03  0.17229440915E+03 0.  0.
         24    2    3    3    0    0 -0.94491538726E+02  0.28383798280E+02 -0.13761467473E+03  0.19548207095E+03  0.97678812776E+02 0.  0.
         -6    2    1    2    0  501  0.20234685901E+03 -0.21765873177E+02 -0.31518792605E+03  0.41387448094E+03  0.17473022823E+03 0.  0.
        -24    2    5    5    0    0  0.91743662524E+02 -0.37875337963E+02 -0.25981544546E+03  0.28905147210E+03  0.78709891278E+02 0.  0.
          5    1    3    3  502    0 -0.10785532028E+03 -0.66179251025E+01 -0.82896554767E+01  0.10847753424E+03  0.47000000000E+01 0. -1.
        -13    1    4    4    0    0  0.18502066472E+02  0.89605648076E+01 -0.70715248119E+01  0.21739932119E+02  0.00000000000E+00 0.  1.
         14    1    4    4    0    0 -0.11299360520E+03  0.19423233472E+02 -0.13054314992E+03  0.17374213883E+03  0.00000000000E+00 0. -1.
         -5    1    5    5    0  501  0.11060319648E+03  0.16109464786E+02 -0.55372480586E+02  0.12482300883E+03  0.47000000000E+01 0.  1.
         11    1    6    6    0    0  0.95213614566E+02 -0.34849932881E+02 -0.16190200734E+03  0.19102986731E+03  0.00000000000E+00 0. -1.
        -12    1    6    6    0    0 -0.34699520417E+01 -0.30254050823E+01 -0.97913438118E+02  0.98021604798E+02  0.00000000000E+00 0.  1.
</event>
<event>
12    1  0.1345781E-002  0.1725443E+03  0.7818608E-02  0.1175220E+00
          1   -1    0    0  502    0  0.00000000000E+00  0.00000000000E+00  0.47333548380E+03  0.47333548380E+03  0.00000000000E+00 0. -1.
         -1   -1    0    0    0  501 -0.00000000000E+00 -0.00000000000E+00 -0.62970198126E+02  0.62970198126E+02  0.00000000000E+00 0.  1.
          6    2    1    2  502    0 -0.27512143638E+02  0.84263277764E+01  0.19781312815E+03  0.26334234110E+03  0.17143871763E+03 0.  0.
         24    2    3    3    0    0 -0.24901064290E+02 -0.53599639322E+02  0.16312562547E+03  0.19207277416E+03  0.82395367296E+02 0.  0.
         -6    2    1    2    0  501  0.27512143638E+02 -0.84263277764E+01  0.21255215753E+03  0.27296334083E+03  0.16882726296E+03 0.  0.
        -24    2    5    5    0    0  0.75777800462E+02  0.36002093133E+01  0.94189724821E+02  0.14448779179E+03  0.79055557464E+02 0.  0.
          5    1    3    3  502    0 -0.26110793478E+01  0.62025967098E+02  0.34687502687E+02  0.71269566944E+02  0.47000000000E+01 0. -1.
        -13    1    4    4    0    0 -0.25116442951E+02 -0.25604400669E+02  0.11178912535E+02  0.37568459186E+02  0.00000000000E+00 0.  1.
         14    1    4    4    0    0  0.21537866124E+00 -0.27995238652E+02  0.15194671293E+03  0.15450431497E+03  0.00000000000E+00 0. -1.
         -5    1    5    5    0  501 -0.48265656824E+02 -0.12026537090E+02  0.11836243271E+03  0.12847554903E+03  0.47000000000E+01 0.  1.
         13    1    6    6    0    0 -0.81278832894E+01  0.21194060706E+02  0.28777881174E+02  0.36652655304E+02  0.00000000000E+00 0. -1.
        -14    1    6    6    0    0  0.83905683751E+02 -0.17593851393E+02  0.65411843647E+02  0.10783513649E+03  0.00000000000E+00 0.  1.
</event>
<event>
12    1  0.1345781E-002  0.5417457E+03  0.7818608E-02  0.1003423E+00
          2   -1    0    0  502    0  0.00000000000E+00  0.00000000000E+00  0.33704393061E+04  0.33704393061E+04  0.00000000000E+00 0. -1.
         -2   -1    0    0    0  501 -0.00000000000E+00 -0.00000000000E+00 -0.11274497789E+03  0.11274497789E+03  0.00000000000E+00 0.  1.
          6    2    1    2  502    0 -0.36215565322E+03 -0.36466365233E+03  0.24600984820E+04  0.25190669656E+04  0.17169024309E+03 0.  0.
         24    2    3    3    0    0 -0.29532950290E+03 -0.22180924895E+03  0.18960839813E+04  0.19333984912E+04  0.80476104298E+02 0.  0.
         -6    2    1    2    0  501  0.36215565322E+03  0.36466365233E+03  0.79759584626E+03  0.96411731844E+03  0.17095839627E+03 0.  0.
        -24    2    5    5    0    0  0.24698714564E+03  0.32332066762E+03  0.66500905197E+03  0.78363359191E+03  0.79408204493E+02 0.  0.
          5    1    3    3  502    0 -0.66826150321E+02 -0.14285440338E+03  0.56401450069E+03  0.58566847441E+03  0.47000000000E+01 0. -1.
        -13    1    4    4    0    0 -0.17907548498E+03 -0.17728362506E+03  0.11844710142E+04  0.12109785698E+04  0.00000000000E+00 0.  1.
         14    1    4    4    0    0 -0.11625401791E+03 -0.44525623886E+02  0.71161296710E+03  0.72241992138E+03  0.00000000000E+00 0. -1.
         -5    1    5    5    0  501  0.11516850758E+03  0.41342984710E+02  0.13258679429E+03  0.18048372653E+03  0.47000000000E+01 0.  1.
         11    1    6    6    0    0  0.15493474013E+03  0.25230165438E+03  0.51230124762E+03  0.59170386750E+03  0.00000000000E+00 0. -1.
        -12    1    6    6    0    0  0.92052405503E+02  0.71019013235E+02  0.15270780435E+03  0.19192972441E+03  0.00000000000E+00 0.  1.
</event>
<event>
12    1  0.1345781E-002  0.1754024E+03  0.7818608E-02  0.1172328E+00
          2   -1    0    0  502    0  0.00000000000E+00  0.00000000000E+00  0.77060732329E+03  0.77060732329E+03  0.00000000000E+00 0.  1.
         -2   -1    0    0    0  501 -0.00000000000E+00 -0.00000000000E+00 -0.53522823646E+02  0.53522823646E+02  0.00000000000E+00 0. -1.
          6    2    1    2  502    0 -0.26509128704E+02 -0.12465423092E+01  0.15320995407E+03  0.23405664327E+03  0.17494266049E+03 0.  0.
         24    2    3    3    0    0 -0.63479495833E+02 -0.23550563891E+02  0.37410940107E+02  0.11038053782E+03  0.78740137403E+02 0.  0.
         -6    2    1    2    0  501  0.26509128704E+02  0.12465423092E+01  0.56387454557E+03  0.59007350367E+03  0.17183698326E+03 0.  0.
        -24    2    5    5    0    0  0.77958522978E+02  0.26548523718E+02  0.33604419000E+03  0.35509267178E+03  0.79892130418E+02 0.  0.
          5    1    3    3  502    0  0.36970367128E+02  0.22304021582E+02  0.11579901397E+03  0.12367610545E+03  0.47000000000E+01 0. -1.
        -11    1    4    4    0    0 -0.25365515490E+02 -0.48595277677E+02  0.63095226431E+01  0.55178985715E+02  0.00000000000E+00 0.  1.
         12    1    4    4    0    0 -0.38113980343E+02  0.25044713786E+02  0.31101417464E+02  0.55201552102E+02  0.00000000000E+00 0. -1.
         -5    1    5    5    0  501 -0.51449394274E+02 -0.25301981409E+02  0.22783035557E+03  0.23498083189E+03  0.47000000000E+01 0.  1.
         11    1    6    6    0    0  0.38144807953E+02 -0.23707385896E+02  0.86759249228E+02  0.97694594765E+02  0.00000000000E+00 0. -1.
        -12    1    6    6    0    0  0.39813715025E+02  0.50255909614E+02  0.24928494077E+03  0.25739807702E+03  0.00000000000E+00 0.  1.
</event>
<event>
12    1  0.1345781E-002  0.3430281E+03  0.7818608E-02  0.1065513E+00
          1   -1    0    0  502    0  0.00000000000E+00  0.00000000000E+00  0.40260935945E+03  0.40260935945E+03  0.00000000000E+00 0.  1.
         -1   -1    0    0    0  501 -0.00000000000E+00 -0.00000000000E+00 -0.29380808572E+03  0.29380808572E+03  0.00000000000E+00 0. -1.
          6    2    1    2  502    0  0.24278732110E+03  0.17110020941E+03  0.28857857118E+02  0.34075022052E+03  0.16449003592E+03 0.  0.
         24    2    3    3    0    0  0.22860221940E+03  0.14080415446E+03  0.68667975687E+02  0.28853907615E+03  0.80341290453E+02 0.  0.
         -6    2    1    2    0  501 -0.24278732110E+03 -0.17110020941E+03  0.79943416606E+02  0.35566722465E+03  0.17857004196E+03 0.  0.
        -24    2    5    5    0    0 -0.24812649983E+03 -0.14416894621E+03  0.10709314474E+03  0.31676995605E+03  0.80763967434E+02 0.  0.
          5    1    3    3  502    0  0.14185101700E+02  0.30296054948E+02 -0.39810118568E+02  0.52211144367E+02  0.47000000000E+01 0. -1.
        -13    1    4    4    0    0  0.96251701101E+02  0.26680247789E+02 -0.23297193237E+01  0.99908223780E+02  0.00000000000E+00 0.  1.
         14    1    4    4    0    0  0.13235051830E+03  0.11412390668E+03  0.70997695010E+02  0.18863085237E+03  0.00000000000E+00 0. -1.
         -5    1    5    5    0  501  0.53391787267E+01 -0.26931263206E+02 -0.27149728133E+02  0.38897268606E+02  0.47000000000E+01 0.  1.
         13    1    6    6    0    0 -0.72066095925E+02 -0.47580922603E+02 -0.55234776673E+01  0.86533087216E+02  0.00000000000E+00 0. -1.
        -14    1    6    6    0    0 -0.17606040390E+03 -0.96588023604E+02  0.11261662241E+03  0.23023686883E+03  0.00000000000E+00 0.  1.
</event>
<event>
12    1  0.1345781E-002  0.1820398E+03  0.7818608E-02  0.1165843E+00
          4   -1    0    0  502    0  0.00000000000E+00  0.00000000000E+00  0.14148187826E+03  0.14148187826E+03  0.00000000000E+00 0.  1.
         -4   -1    0    0    0  501 -0.00000000000E+00 -0.00000000000E+00 -0.23424807223E+03  0.23424807223E+03  0.00000000000E+00 0. -1.
          6    2    1    2  502    0 -0.16835068337E+02 -0.55867589620E+02 -0.48183387866E+02  0.18804206202E+03  0.17214404180E+03 0.  0.
         24    2    3    3    0    0 -0.59766355794E+02 -0.44301086561E+02  0.17022902028E+02  0.10897987335E+03  0.77796079898E+02 0.  0.
         -6    2    1    2    0  501  0.16835068337E+02  0.55867589620E+02 -0.44582806104E+02  0.18768788847E+03  0.17272669100E+03 0.  0.
        -24    2    5    5    0    0  0.57794546299E+02  0.84165954470E+02 -0.33765018548E+02  0.13652549197E+03  0.84113114354E+02 0.  0.
          5    1    3    3  502    0  0.42931287457E+02 -0.11566503058E+02 -0.65206289893E+02  0.79062188670E+02  0.47000000000E+01 0. -1.
        -11    1    4    4    0    0 -0.28635603130E+02 -0.62506788564E+01  0.44025617693E+02  0.52889732142E+02  0.00000000000E+00 0.  1.
         12    1    4    4    0    0 -0.31130752664E+02 -0.38050407705E+02 -0.27002715665E+02  0.56090141212E+02  0.00000000000E+00 0. -1.
         -5    1    5    5    0  501 -0.40959477963E+02 -0.28298364850E+02 -0.10817787557E+02  0.51162396502E+02  0.47000000000E+01 0.  1.
         13    1    6    6    0    0 -0.11582326102E+02  0.54435936110E+02 -0.23259062939E+02  0.60319196173E+02  0.00000000000E+00 0. -1.
        -14    1    6    6    0    0  0.69376872402E+02  0.29730018360E+02 -0.10505955609E+02  0.76206295797E+02  0.00000000000E+00 0.  1.
</event>
<event>
12    1  0.1378638E-002  0.1716952E+03  0.7818608E-02  0.1176091E+00
         -2   -1    0    0    0  501 -0.00000000000E+00  0.00000000000E+00  0.14448324862E+02  0.14448324862E+02  0.00000000000E+00 0. -1.
          2   -1    0    0  502    0  0.00000000000E+00 -0.00000000000E+00 -0.20547706321E+04  0.20547706321E+04  0.00000000000E+00 0.  1.
          6    2    1    2  502    0  0.27759631035E+02  0.34641350991E+02 -0.98024154071E+03  0.99631057673E+03  0.17259973018E+03 0.  0.
         24    2    3    3    0    0  0.42413968610E+02 -0.24891532123E+02 -0.79720945535E+03  0.80322575586E+03  0.84912696717E+02 0.  0.
         -6    2    1    2    0  501 -0.27759631035E+02 -0.34641350991E+02 -0.10600807665E+04  0.10729083802E+04  0.15934409463E+03 0.  0.
        -24    2    5    5    0    0 -0.55076900925E+02  0.25287588373E+01 -0.40642759194E+03  0.41761271189E+03  0.78594719952E+02 0.  0.
          5    1    3    3  502    0 -0.14654337576E+02  0.59532883114E+02 -0.18303208536E+03  0.19308482087E+03  0.47000000000E+01 0. -1.
        -13    1    4    4    0    0  0.13483536681E+01 -0.44400914111E+02 -0.55581177037E+03  0.55758405941E+03  0.00000000000E+00 0.  1.
         14    1    4    4    0    0  0.41065614942E+02  0.19509381988E+02 -0.24139768498E+03  0.24564169644E+03  0.00000000000E+00 0. -1.
         -5    1    5    5    0  501  0.27317269890E+02 -0.37170109828E+02 -0.65365317458E+03  0.65529566834E+03  0.47000000000E+01 0.  1.
         13    1    6    6    0    0 -0.14106019919E+02 -0.28103624634E+02 -0.63166109351E+02  0.70560264215E+02  0.00000000000E+00 0. -1.
        -14    1    6    6    0    0 -0.40970881006E+02  0.30632383471E+02 -0.34326148259E+03  0.34705244768E+03  0.00000000000E+00 0.  1.
</event>
<event>
12    1  0.1345781E-002  0.2105446E+03  0.7818608E-02  0.1141135E+00
         -2   -1    0    0    0  501 -0.00000000000E+00  0.00000000000E+00  0.96202555473E+02  0.96202555473E+02  0.00000000000E+00 0.  1.
          2   -1    0    0  502    0  0.00000000000E+00 -0.00000000000E+00 -0.46173495957E+03  0.46173495957E+03  0.00000000000E+00 0. -1.
          6    2    1    2  502    0 -0.86384312637E+02 -0.82403134598E+02 -0.16963244074E+03  0.26990266401E+03  0.17268398023E+03 0.  0.
         24    2    3    3    0    0 -0.16160012795E+02 -0.23013196534E+02 -0.10043309296E+02  0.85649040147E+02  0.80275380960E+02 0.  0.
         -6    2    1    2    0  501  0.86384312637E+02  0.82403134598E+02 -0.19589996335E+03  0.28803485103E+03  0.17416875065E+03 0.  0.
        -24    2    5    5    0    0  0.20641430587E+02  0.60547971168E+02 -0.19328246072E+03  0.21854588767E+03  0.79448536317E+02 0.  0.
          5    1    3    3  502    0 -0.70224299842E+02 -0.59389938064E+02 -0.15958913145E+03  0.18425362386E+03  0.47000000000E+01 0. -1.
        -11    1    4    4    0    0  0.24332172138E+02  0.85650531442E+01 -0.20857292643E+02  0.33172901482E+02  0.00000000000E+00 0.  1.
         12    1    4    4    0    0 -0.40492184933E+02 -0.31578249678E+02  0.10813983347E+02  0.52476138665E+02  0.00000000000E+00 0. -1.
         -5    1    5    5    0  501  0.65742882050E+02  0.21855163430E+02 -0.26175026249E+01  0.69488963360E+02  0.47000000000E+01 0.  1.
         11    1    6    6    0    0 -0.23206562054E+02  0.34524389818E+02 -0.13422015682E+03  0.14051878348E+03  0.00000000000E+00 0. -1.
        -12    1    6    6    0    0  0.43847992641E+02  0.26023581350E+02 -0.59062303909E+02  0.78027104188E+02  0.00000000000E+00 0.  1.
</event>
<event>
12    1  0.1345781E-002  0.2629885E+03  0.7818608E-02  0.1105361E+00
         -2   -1    0    0    0  501 -0.00000000000E+00  0.00000000000E+00  0.86909639007E+02  0.86909639007E+02  0.00000000000E+00 0. -1.
          2   -1    0    0  502    0  0.00000000000E+00 -0.00000000000E+00 -0.79606240701E+03  0.79606240701E+03  0.00000000000E+00 0.  1.
          6    2    1    2  502    0  0.11099531473E+03  0.16547725029E+03 -0.36197496975E+03  0.44718746578E+03  0.17102067294E+03 0.  0.
         24    2    3    3    0    0  0.14280933486E+03  0.12617382701E+03 -0.32192410920E+03  0.38251094462E+03  0.79781889716E+02 0.  0.
         -6    2    1    2    0  501 -0.11099531473E+03 -0.16547725029E+03 -0.34717779826E+03  0.43578458024E+03  0.17225880677E+03 0.  0.
        -24    2    5    5    0    0 -0.10250386870E+03 -0.31401664485E+02 -0.19086277768E+03  0.22961755323E+03  0.69300167521E+02 0.  0.
          5    1    3    3  502    0 -0.31814020130E+02  0.39303423287E+02 -0.40050860550E+02  0.64676521163E+02  0.47000000000E+01 0. -1.
        -13    1    4    4    0    0  0.26598928970E+02  0.43228130005E+02 -0.15371209792E+03  0.16187520902E+03  0.00000000000E+00 0.  1.
         14    1    4    4    0    0  0.11621040589E+03  0.82945697001E+02 -0.16821201127E+03  0.22063573560E+03  0.00000000000E+00 0. -1.
         -5    1    5    5    0  501 -0.84914460355E+01 -0.13407558581E+03 -0.15631502058E+03  0.20616702701E+03  0.47000000000E+01 0.  1.
         11    1    6    6    0    0 -0.46228652512E+02 -0.46870997358E+02 -0.74366227755E+02  0.99319255620E+02  0.00000000000E+00 0. -1.
        -12    1    6    6    0    0 -0.56275216185E+02  0.15469332873E+02 -0.11649654993E+03  0.13029829761E+03  0.00000000000E+00 0.  1.
</event>
<event>
12    1  0.1345781E-002  0.3959676E+03  0.7818608E-02  0.1045185E+00
          2   -1    0    0  502    0  0.00000000000E+00  0.00000000000E+00  0.17713415571E+04  0.17713415571E+04  0.00000000000E+00 0.  1.
         -2   -1    0    0    0  501 -0.00000000000E+00 -0.00000000000E+00 -0.11604265420E+03  0.11604265420E+03  0.00000000000E+00 0. -1.
          6    2    1    2  502    0  0.33464797228E+03 -0.12354091127E+03  0.12866513543E+04  0.13460877205E+04  0.17096438686E+03 0.  0.
         24    2    3    3    0    0  0.93764016595E+02 -0.89708877343E+02  0.51019310093E+03  0.53240522966E+03  0.79491853991E+02 0.  0.
         -6    2    1    2    0  501 -0.33464797228E+03  0.12354091127E+03  0.36864754857E+03  0.54129649080E+03  0.17276936588E+03 0.  0.
        -24    2    5    5    0    0 -0.29241702810E+03  0.45114231049E+02  0.27790902050E+03  0.41405747441E+03  0.81652656287E+02 0.  0.
          5    1    3    3  502    0  0.24088395568E+03 -0.33832033923E+02  0.77645825335E+03  0.81368249079E+03  0.47000000000E+01 0. -1.
        -13    1    4    4    0    0  0.55016617613E+02 -0.65900057199E+00  0.19066821726E+03  0.19844805761E+03  0.00000000000E+00 0.  1.
         14    1    4    4    0    0  0.38747398982E+02 -0.89049876771E+02  0.31952488367E+03  0.33395717205E+03  0.00000000000E+00 0. -1.
         -5    1    5    5    0  501 -0.42230944181E+02  0.78426680216E+02  0.90738528069E+02  0.12723901639E+03  0.47000000000E+01 0.  1.
         13    1    6    6    0    0 -0.20470551048E+03  0.68582679810E+02  0.20318526679E+03  0.29646615765E+03  0.00000000000E+00 0. -1.
        -14    1    6    6    0    0 -0.87711517618E+02 -0.23468448761E+02  0.74723753706E+02  0.11759131676E+03  0.00000000000E+00 0.  1.
</event>
<event>
12    1  0.1345781E-002  0.1824622E+03  0.7818608E-02  0.1165441E+00
          2   -1    0    0  502    0  0.00000000000E+00  0.00000000000E+00  0.23124470456E+04  0.23124470456E+04  0.00000000000E+00 0. -1.
         -2   -1    0    0    0  501 -0.00000000000E+00 -0.00000000000E+00 -0.16152166400E+02  0.16152166400E+02  0.00000000000E+00 0.  1.
          6    2    1    2  502    0  0.27059592769E+02 -0.52808314368E+02  0.76360097229E+03  0.78506689241E+03  0.17240255521E+03 0.  0.
         24    2    3    3    0    0  0.43267620945E+02  0.16358679099E+02  0.30886112660E+03  0.32478742250E+03  0.89173880047E+02 0.  0.
         -6    2    1    2    0  501 -0.27059592769E+02  0.52808314368E+02  0.15326939069E+04  0.15435323196E+04  0.17268604380E+03 0.  0.
        -24    2    5    5    0    0 -0.35959925470E+02  0.80788168922E+02  0.14626425338E+04  0.14674312483E+04  0.78812703459E+02 0.  0.
          5    1    3    3  502    0 -0.16208028176E+02 -0.69166993467E+02  0.45473984569E+03  0.46027946991E+03  0.47000000000E+01 0. -1.
        -13    1    4    4    0    0 -0.23416709745E+02  0.23746304935E+02  0.99930911019E+02  0.10534902121E+03  0.00000000000E+00 0.  1.
         14    1    4    4    0    0  0.66684330690E+02 -0.73876258358E+01  0.20893021558E+03  0.21943840129E+03  0.00000000000E+00 0. -1.
         -5    1    5    5    0  501  0.89003327012E+01 -0.27979854554E+02  0.70051373139E+02  0.76101071357E+02  0.47000000000E+01 0.  1.
         11    1    6    6    0    0 -0.26720671169E+02  0.10064046256E+01  0.71247408913E+03  0.71297569019E+03  0.00000000000E+00 0. -1.
        -12    1    6    6    0    0 -0.92392543010E+01  0.79781764296E+02  0.75016844468E+03  0.75445555809E+03  0.00000000000E+00 0.  1.
</event>
<event>
12    1  0.1345781E-002  0.2954818E+03  0.7818608E-02  0.1087521E+00
          2   -1    0    0  502    0  0.00000000000E+00  0.00000000000E+00  0.11750629409E+04  0.11750629409E+04  0.00000000000E+00 0.  1.
         -2   -1    0    0    0  501 -0.00000000000E+00 -0.00000000000E+00 -0.75117239042E+02  0.75117239042E+02  0.00000000000E+00 0. -1.
          6    2    1    2  502    0 -0.24112990408E+03 -0.12444069653E+01  0.61585514728E+03  0.68325234834E+03  0.17149644278E+03 0.  0.
         24    2    3    3    0    0 -0.16559153443E+03 -0.52598122406E+02  0.31551488867E+03  0.36929437294E+03  0.81495829046E+02 0.  0.
         -6    2    1    2    0  501  0.24112990408E+03  0.12444069653E+01  0.48409055457E+03  0.56692783160E+03  0.17005387977E+03 0.  0.
        -24    2    5    5    0    0  0.80555762090E+02  0.16517558525E+02  0.11067251162E+03  0.16013494936E+03  0.81441614876E+02 0.  0.
          5    1    3    3  502    0 -0.75538369651E+02  0.51353715441E+02  0.30034025861E+03  0.31395797541E+03  0.47000000000E+01 0. -1.
        -13    1    4    4    0    0 -0.26653206759E+02 -0.45404762455E+02  0.92878569481E+02  0.10676335773E+03  0.00000000000E+00 0.  1.
         14    1    4    4    0    0 -0.13893832767E+03 -0.71933599506E+01  0.22263631919E+03  0.26253101521E+03  0.00000000000E+00 0. -1.
         -5    1    5    5    0  501  0.16057414199E+03 -0.15273151559E+02  0.37341804296E+03  0.40679288224E+03  0.47000000000E+01 0.  1.
         13    1    6    6    0    0 -0.75770571176E+01 -0.56005568290E+00 -0.81961055882E+01  0.11175938607E+02  0.00000000000E+00 0. -1.
        -14    1    6    6    0    0  0.88132819208E+02  0.17077614208E+02  0.11886861720E+03  0.14895901075E+03  0.00000000000E+00 0.  1.
</event>
<event>
12    1  0.1345781E-002  0.2048053E+03  0.7818608E-02  0.1145747E+00
         -1   -1    0    0    0  501 -0.00000000000E+00  0.00000000000E+00  0.22990896843E+02  0.22990896843E+02  0.00000000000E+00 0.  1.
          1   -1    0    0  502    0  0.00000000000E+00 -0.00000000000E+00 -0.22165137200E+04  0.22165137200E+04  0.00000000000E+00 0. -1.
          6    2    1    2  502    0  0.34093483337E+02  0.10607135091E+03 -0.15689376061E+04  0.15822845737E+04  0.17217945045E+03 0.  0.
         24    2    3    3    0    0 -0.44033906629E+01 -0.63743956032E+01 -0.83335018615E+03  0.83714230699E+03  0.79212919514E+02 0.  0.
         -6    2    1    2    0  501 -0.34093483337E+02 -0.10607135091E+03 -0.62458521705E+03  0.65722004316E+03  0.17151674755E+03 0.  0.
        -24    2    5    5    0    0  0.34867432707E+01  0.27604491439E+01 -0.16854337062E+03  0.18684477826E+03  0.80525312332E+02 0.  0.
          5    1    3    3  502    0  0.38496874000E+02  0.11244574651E+03 -0.73558741993E+03  0.74514226667E+03  0.47000000000E+01 0. -1.
        -11    1    4    4    0    0 -0.49495052846E+01  0.28472509841E+02 -0.14182458969E+03  0.14473906058E+03  0.00000000000E+00 0.  1.
         12    1    4    4    0    0  0.54611462168E+00 -0.34846905444E+02 -0.69152559647E+03  0.69240324640E+03  0.00000000000E+00 0. -1.
         -5    1    5    5    0  501 -0.37580226608E+02 -0.10883180005E+03 -0.45604184643E+03  0.47037526490E+03  0.47000000000E+01 0.  1.
         13    1    6    6    0    0 -0.29446021511E+02  0.24507718615E+02 -0.58400467474E+02  0.69844907156E+02  0.00000000000E+00 0. -1.
        -14    1    6    6    0    0  0.32932764781E+02 -0.21747269471E+02 -0.11014290315E+03  0.11699987111E+03  0.00000000000E+00 0.  1.
</event>
<event>
12    1  0.1345781E-002  0.1875667E+03  0.7818608E-02  0.1160674E+00
          2   -1    0    0  502    0  0.00000000000E+00  0.00000000000E+00  0.50622723878E+03  0.50622723878E+03  0.00000000000E+00 0. -1.
         -2   -1    0    0    0  501 -0.00000000000E+00 -0.00000000000E+00 -0.70503064081E+02  0.70503064081E+02  0.00000000000E+00 0.  1.
          6    2    1    2  502    0  0.65473314367E+02  0.10219541115E+02  0.18301518386E+03  0.26180846174E+03  0.17509402960E+03 0.  0.
         24    2    3    3    0    0  0.10991997002E+03  0.30597057363E+01  0.16172492947E+03  0.21178713256E+03  0.81283916583E+02 0.  0.
         -6    2    1    2    0  501 -0.65473314367E+02 -0.10219541115E+02  0.25270899084E+03  0.31492184112E+03  0.17584862254E+03 0.  0.
        -24    2    5    5    0    0  0.31304137007E+00 -0.54280795879E+02  0.19233051512E+03  0.21523789506E+03  0.79936359845E+02 0.  0.
          5    1    3    3  502    0 -0.44446655657E+02  0.71598353788E+01  0.21290254392E+02  0.50021329188E+02  0.47000000000E+01 0. -1.
        -13    1    4    4    0    0  0.31940387278E+02  0.28781398152E+02  0.18738821968E+02  0.46900966598E+02  0.00000000000E+00 0.  1.
         14    1    4    4    0    0  0.77979582746E+02 -0.25721692416E+02  0.14298610750E+03  0.16488616596E+03  0.00000000000E+00 0. -1.
         -5    1    5    5    0  501 -0.65786355737E+02  0.44061254764E+02  0.60378475717E+02  0.99683946062E+02  0.47000000000E+01 0.  1.
         11    1    6    6    0    0 -0.17841897665E+02 -0.69970429456E+02  0.15262944925E+03  0.16884887648E+03  0.00000000000E+00 0. -1.
        -12    1    6    6    0    0  0.18154939035E+02  0.15689633576E+02  0.39701065878E+02  0.46389018581E+02  0.00000000000E+00 0.  1.
</event>
<event>
12    1  0.1345781E-002  0.2866756E+03  0.7818608E-02  0.1092098E+00
          2   -1    0    0  502    0  0.00000000000E+00  0.00000000000E+00  0.49043563469E+03  0.49043563469E+03  0.00000000000E+00 0.  1.
         -2   -1    0    0    0  501 -0.00000000000E+00 -0.00000000000E+00 -0.17117707686E+03  0.17117707686E+03  0.00000000000E+00 0. -1.
          6    2    1    2  502    0 -0.16253064833E+03 -0.16287857329E+03  0.11107138472E+03  0.30648510865E+03  0.16926496401E+03 0.  0.
         24    2    3    3    0    0 -0.51800615624E+02 -0.12069967313E+03  0.58695146875E+02  0.17684884810E+03  0.10285270989E+03 0.  0.
         -6    2    1    2    0  501  0.16253064833E+03  0.16287857329E+03  0.20818717311E+03  0.35512760289E+03  0.17270806005E+03 0.  0.
        -24    2    5    5    0    0  0.31698491444E+02  0.39848059769E+02  0.26001842440E+02  0.99262120181E+02  0.81143147988E+02 0.  0.
          5    1    3    3  502    0 -0.11073003270E+03 -0.42178900154E+02  0.52376237848E+02  0.12963626056E+03  0.47000000000E+01 0. -1.
        -11    1    4    4    0    0 -0.59300630374E+02 -0.56095904699E+02  0.73839962930E+02  0.11007113796E+03  0.00000000000E+00 0.  1.
         12    1    4    4    0    0  0.75000147499E+01 -0.64603768436E+02 -0.15144816055E+02  0.66777710134E+02  0.00000000000E+00 0. -1.
         -5    1    5    5    0  501  0.13083215688E+03  0.12303051352E+03  0.18218533067E+03  0.25586548271E+03  0.47000000000E+01 0.  1.
         13    1    6    6    0    0  0.37771331926E+02 -0.13381109866E+02  0.85795983997E+00  0.40080714961E+02  0.00000000000E+00 0. -1.
        -14    1    6    6    0    0 -0.60728404820E+01  0.53229169635E+02  0.25143882600E+02  0.59181405220E+02  0.00000000000E+00 0.  1.
</event>
<event>
12    1  0.1345781E-002  0.3344462E+03  0.7818608E-02  0.1069186E+00
         -1   -1    0    0    0  501 -0.00000000000E+00  0.00000000000E+00  0.49163560727E+03  0.49163560727E+03  0.00000000000E+00 0. -1.
          1   -1    0    0  502    0  0.00000000000E+00 -0.00000000000E+00 -0.40122687958E+03  0.40122687958E+03  0.00000000000E+00 0.  1.
          6    2    1    2  502    0  0.11328827583E+03  0.25800680437E+03  0.33875744279E+03  0.47438495751E+03  0.17573485232E+03 0.  0.
         24    2    3    3    0    0  0.91328467170E+02  0.14815375669E+03  0.29863804028E+03  0.35529851101E+03  0.82230944842E+02 0.  0.
         -6    2    1    2    0  501 -0.11328827583E+03 -0.25800680437E+03 -0.24834871510E+03  0.41847752934E+03  0.18451182544E+03 0.  0.
        -24    2    5    5    0    0  0.59827934316E+01 -0.13984186984E+03 -0.79956984027E+02  0.18064060031E+03  0.81525240315E+02 0.  0.
          5    1    3    3  502    0  0.21959808665E+02  0.10985304768E+03  0.40119402515E+02  0.11908644650E+03  0.47000000000E+01 0. -1.
        -13    1    4    4    0    0  0.70736010659E+02  0.13295689586E+03  0.18368853027E+03  0.23753440911E+03  0.00000000000E+00 0.  1.
         14    1    4    4    0    0  0.20592456511E+02  0.15196860828E+02  0.11494951001E+03  0.11776410190E+03  0.00000000000E+00 0. -1.
         -5    1    5    5    0  501 -0.11927106927E+03 -0.11816493453E+03 -0.16839173107E+03  0.23783692903E+03  0.47000000000E+01 0.  1.
         13    1    6    6    0    0  0.10249701947E+02 -0.11295472832E+03 -0.96387108945E+02  0.14884321217E+03  0.00000000000E+00 0. -1.
        -14    1    6    6    0    0 -0.42669085155E+01 -0.26887141520E+02  0.16430124919E+02  0.31797388136E+02  0.00000000000E+00 0.  1.
</event>
<event>
12    1  0.1345781E-002  0.1876133E+03  0.7818608E-02  0.1160632E+00
          2   -1    0    0  502    0  0.00000000000E+00  0.00000000000E+00  0.41464952635E+03  0.41464952635E+03  0.00000000000E+00 0.  1.
         -2   -1    0    0    0  501 -0.00000000000E+00 -0.00000000000E+00 -0.11041331269E+03  0.11041331269E+03  0.00000000000E+00 0. -1.
          6    2    1    2  502    0 -0.75898127711E+02 -0.86851177101E+01  0.27821983000E+03  0.33545361567E+03  0.17113415031E+03 0.  0.
         24    2    3    3    0    0 -0.84040478745E+02  0.49596816997E+02  0.21402014118E+03  0.24823680629E+03  0.79336276965E+02 0.  0.
         -6    2    1    2    0  501  0.75898127711E+02  0.86851177101E+01  0.26016383660E+02  0.18960922338E+03  0.17157752857E+03 0.  0.
        -24    2    5    5    0    0  0.27135208675E+02 -0.34009848798E+02 -0.37773617767E+02  0.98549151337E+02  0.79950607658E+02 0.  0.
          5    1    3    3  502    0  0.81423510347E+01 -0.58281934707E+02  0.64199688811E+02  0.87216809371E+02  0.47000000000E+01 0. -1.
        -11    1    4    4    0    0 -0.69522620269E+02  0.43884435304E+01  0.16904455305E+03  0.18283521018E+03  0.00000000000E+00 0.  1.
         12    1    4    4    0    0 -0.14517858476E+02  0.45208373466E+02  0.44975588133E+02  0.65401596113E+02  0.00000000000E+00 0. -1.
         -5    1    5    5    0  501  0.48762919035E+02  0.42694966508E+02  0.63790001428E+02  0.91060072041E+02  0.47000000000E+01 0.  1.
         11    1    6    6    0    0 -0.27740801411E+02 -0.40065463020E+01 -0.72263571315E+01  0.28945201909E+02  0.00000000000E+00 0. -1.
        -12    1    6    6    0    0  0.54876010086E+02 -0.30003302496E+02 -0.30547260636E+02  0.69603949428E+02  0.00000000000E+00 0.  1.
</event>
<event>
12    1  0.1345781E-002  0.1747184E+03  0.7818608E-02  0.1173015E+00
         -3   -1    0    0    0  501 -0.00000000000E+00  0.00000000000E+00  0.41945423908E+02  0.41945423908E+02  0.00000000000E+00 0.  1.
          3   -1    0    0  502    0  0.00000000000E+00 -0.00000000000E+00 -0.88405232178E+03  0.88405232178E+03  0.00000000000E+00 0. -1.
          6    2    1    2  502    0  0.26362797142E+02 -0.19855485449E+02 -0.61613744213E+03  0.64048807531E+03  0.17178588313E+03 0.  0.
         24    2    3    3    0    0 -0.10399183114E+02  0.36684915027E+02 -0.48655788146E+03  0.49433331958E+03  0.78568014087E+02 0.  0.
         -6    2    1    2    0  501 -0.26362797142E+02  0.19855485449E+02 -0.22596945574E+03  0.28550967038E+03  0.17136026254E+03 0.  0.
        -24    2    5    5    0    0 -0.55921605248E+02 -0.35984586447E+02 -0.17488406444E+03  0.20412389785E+03  0.81608904429E+02 0.  0.
          5    1    3    3  502    0  0.36761980256E+02 -0.56540400476E+02 -0.12957956067E+03  0.14615475573E+03  0.47000000000E+01 0. -1.
        -11    1    4    4    0    0  0.16049432204E+02  0.39194403238E+02 -0.12868209006E+03  0.13547274937E+03  0.00000000000E+00 0.  1.
         12    1    4    4    0    0 -0.26448615318E+02 -0.25094882115E+01 -0.35787579140E+03  0.35886057021E+03  0.00000000000E+00 0. -1.
         -5    1    5    5    0  501  0.29558808105E+02  0.55840071897E+02 -0.51085391298E+02  0.81385772529E+02  0.47000000000E+01 0.  1.
         13    1    6    6    0    0 -0.45295675481E+02 -0.57128545238E+02 -0.89052691347E+02  0.11509018522E+03  0.00000000000E+00 0. -1.
        -14    1    6    6    0    0 -0.10625929766E+02  0.21143958791E+02 -0.85831373097E+02  0.89033712629E+02  0.00000000000E+00 0.  1.
</event>
<event>
12    1  0.1345781E-002  0.1786269E+03  0.7818608E-02  0.1169139E+00
         -2   -1    0    0    0  501 -0.00000000000E+00  0.00000000000E+00  0.21635800269E+02  0.21635800269E+02  0.00000000000E+00 0. -1.
          2   -1    0    0  502    0  0.00000000000E+00 -0.00000000000E+00 -0.16823529036E+04  0.16823529036E+04  0.00000000000E+00 0.  1.
          6    2    1    2  502    0  0.32077791424E+02 -0.33717907037E+02 -0.11266383948E+04  0.11405967558E+04  0.17170033452E+03 0.  0.
         24    2    3    3    0    0  0.13798680028E+02 -0.45333294660E+02 -0.31592622544E+03  0.32958174077E+03  0.81050803541E+02 0.  0.
         -6    2    1    2    0  501 -0.32077791424E+02  0.33717907037E+02 -0.53407870857E+03  0.56339194805E+03  0.17321818099E+03 0.  0.
        -24    2    5    5    0    0  0.43556876330E+02  0.38670407518E+02 -0.36123335922E+03  0.37459911181E+03  0.80264268865E+02 0.  0.
          5    1    3    3  502    0  0.18279111396E+02  0.11615387623E+02 -0.81071216932E+03  0.81101501505E+03  0.47000000000E+01 0. -1.
        -13    1    4    4    0    0 -0.97880325836E+01 -0.45400267697E+02 -0.29310534177E+03  0.29676207854E+03  0.00000000000E+00 0.  1.
         14    1    4    4    0    0  0.23586712612E+02  0.66973037663E-01 -0.22820883673E+02  0.32819662229E+02  0.00000000000E+00 0. -1.
         -5    1    5    5    0  501 -0.75634667754E+02 -0.49525004807E+01 -0.17284534935E+03  0.18879283625E+03  0.47000000000E+01 0.  1.
         11    1    6    6    0    0 -0.69853141531E+01  0.44746963132E+02 -0.12522441924E+03  0.13316245904E+03  0.00000000000E+00 0. -1.
        -12    1    6    6    0    0  0.50542190483E+02 -0.60765556145E+01 -0.23600893998E+03  0.24143665276E+03  0.00000000000E+00 0.  1.
</event>
<event>
12    1  0.1345781E-002  0.1756706E+03  0.7818608E-02  0.1172060E+00
          2   -1    0    0  502    0  0.00000000000E+00  0.00000000000E+00  0.21385157275E+04  0.21385157275E+04  0.00000000000E+00 0.  1.
         -2   -1    0    0    0  501 -0.00000000000E+00 -0.00000000000E+00 -0.15695220687E+02  0.15695220687E+02  0.00000000000E+00 0. -1.
          6    2    1    2  502    0  0.21542334978E+02 -0.27034674948E+02  0.13636641577E+04  0.13748535012E+04  0.17160206552E+03 0.  0.
         24    2    3    3    0    0 -0.19361959886E+01  0.50340139103E+02  0.74031069108E+03  0.74626004146E+03  0.79411911540E+02 0.  0.
         -6    2    1    2    0  501 -0.21542334978E+02  0.27034674948E+02  0.75915634916E+03  0.77935744704E+03  0.17287198138E+03 0.  0.
        -24    2    5    5    0    0 -0.14938624279E+02  0.52944258063E+02  0.73947830505E+03  0.74582789423E+03  0.80030164362E+02 0.  0.
          5    1    3    3  502    0  0.23478530966E+02 -0.77374814051E+02  0.62335346661E+03  0.62859345972E+03  0.47000000000E+01 0. -1.
        -11    1    4    4    0    0 -0.22898679005E+02 -0.98641050380E+00  0.45706156497E+03  0.45763587783E+03  0.00000000000E+00 0.  1.
         12    1    4    4    0    0  0.20962483017E+02  0.51326549607E+02  0.28324912611E+03  0.28862416363E+03  0.00000000000E+00 0. -1.
         -5    1    5    5    0  501 -0.66037106985E+01 -0.25909583115E+02  0.19678044108E+02  0.33529552816E+02  0.47000000000E+01 0.  1.
         13    1    6    6    0    0  0.66306091983E+01 -0.84365271843E+01  0.15047882601E+02  0.18481848935E+02  0.00000000000E+00 0. -1.
        -14    1    6    6    0    0 -0.21569233478E+02  0.61380785248E+02  0.72443042245E+03  0.72734604529E+03  0.00000000000E+00 0.  1.
</event>
<event>
12    1  0.1345781E-002  0.2148831E+03  0.7818608E-02  0.1137756E+00
         -1   -1    0    0    0  501 -0.00000000000E+00  0.00000000000E+00  0.27255689046E+02  0.27255689046E+02  0.00000000000E+00 0. -1.
          1   -1    0    0  502    0  0.00000000000E+00 -0.00000000000E+00 -0.17146077407E+04  0.17146077407E+04  0.00000000000E+00 0.  1.
          6    2    1    2  502    0 -0.10109660887E+03  0.79627956505E+02 -0.74987288413E+03  0.78015069524E+03  0.17252428567E+03 0.  0.
         24    2    3    3    0    0 -0.14014571907E+03  0.57718443554E+02 -0.66344229307E+03  0.68269713278E+03  0.54290492482E+02 0.  0.
         -6    2    1    2    0  501  0.10109660887E+03 -0.79627956505E+02 -0.93747916754E+03  0.96171273452E+03  0.17164806550E+03 0.  0.
        -24    2    5    5    0    0  0.26429752234E+02 -0.99586353266E+02 -0.46257395137E+03  0.48053653870E+03  0.79528177268E+02 0.  0.
          5    1    3    3  502    0  0.39049110197E+02  0.21909512951E+02 -0.86430591061E+02  0.97453562460E+02  0.47000000000E+01 0. -1.
        -13    1    4    4    0    0 -0.20725536243E+02  0.32926867536E+02 -0.14928832640E+03  0.15427485491E+03  0.00000000000E+00 0.  1.
         14    1    4    4    0    0 -0.11942018282E+03  0.24791576018E+02 -0.51415396667E+03  0.52842227787E+03  0.00000000000E+00 0. -1.
         -5    1    5    5    0  501  0.74666856635E+02  0.19958396761E+02 -0.47490521617E+03  0.48117619582E+03  0.47000000000E+01 0.  1.
         11    1    6    6    0    0  0.40129566602E+02 -0.33915604243E+02 -0.30161601167E+03  0.30615824147E+03  0.00000000000E+00 0. -1.
        -12    1    6    6    0    0 -0.13699814368E+02 -0.65670749023E+02 -0.16095793970E+03  0.17437829723E+03  0.00000000000E+00 0.  1.
</event>
<event>
12    1  0.1345781E-002  0.2022675E+03  0.7818608E-02  0.1147840E+00
          2   -1    0    0  502    0  0.00000000000E+00  0.00000000000E+00  0.53018398982E+03  0.53018398982E+03  0.00000000000E+00 0. -1.
         -2   -1    0    0    0  501 -0.00000000000E+00 -0.00000000000E+00 -0.16434569893E+03  0.16434569893E+03  0.00000000000E+00 0.  1.
          6    2    1    2  502    0 -0.10092629877E+03 -0.34877099463E+02  0.43634852219E+03  0.48145888464E+03  0.17320535479E+03 0.  0.
         24    2    3    3    0    0 -0.87458403531E+01 -0.11412527002E+02  0.84405074678E+02  0.11685759100E+03  0.79528261939E+02 0.  0.
         -6    2    1    2    0  501  0.10092629877E+03  0.34877099463E+02 -0.70510231297E+02  0.21307080411E+03  0.17036708895E+03 0.  0.
        -24    2    5    5    0    0  0.48676300130E+02 -0.27477102478E+02 -0.97550433302E+02  0.12721411316E+03  0.59522854387E+02 0.  0.
          5    1    3    3  502    0 -0.92180458417E+02 -0.23464572462E+02  0.35194344751E+03  0.36460129364E+03  0.47000000000E+01 0. -1.
        -13    1    4    4    0    0 -0.21421836769E+02 -0.38164678856E+02  0.24794843572E+02  0.50301312811E+02  0.00000000000E+00 0.  1.
         14    1    4    4    0    0  0.12675996416E+02  0.26752151854E+02  0.59610231106E+02  0.66556278190E+02  0.00000000000E+00 0. -1.
         -5    1    5    5    0  501  0.52249998640E+02  0.62354201941E+02  0.27040202005E+02  0.85856690956E+02  0.47000000000E+01 0.  1.
         11    1    6    6    0    0 -0.10838486894E+02  0.32345485889E+01 -0.36649366488E+01  0.11889779787E+02  0.00000000000E+00 0. -1.
        -12    1    6    6    0    0  0.59514787025E+02 -0.30711651067E+02 -0.93885496653E+02  0.11532433337E+03  0.00000000000E+00 0.  1.
</event>
<event>
12    1  0.1345781E-002  0.1752737E+03  0.7818608E-02  0.1172457E+00
          1   -1    0    0  502    0  0.00000000000E+00  0.00000000000E+00  0.59831858387E+03  0.59831858387E+03  0.00000000000E+00 0. -1.
         -1   -1    0    0    0  501 -0.00000000000E+00 -0.00000000000E+00 -0.56799628871E+02  0.56799628871E+02  0.00000000000E+00 0.  1.
          6    2    1    2  502    0  0.13972833328E+02  0.26362076234E+02  0.16860678832E+03  0.24287034107E+03  0.17224271936E+03 0.  0.
         24    2    3    3    0    0 -0.35154027508E+02  0.15322375229E+02  0.21449972000E+02  0.87266542784E+02  0.75397396228E+02 0.  0.
         -6    2    1    2    0  501 -0.13972833328E+02 -0.26362076234E+02  0.37291216669E+03  0.41224787167E+03  0.17318956233E+03 0.  0.
        -24    2    5    5    0    0  0.40744219300E+02 -0.45545707972E+02  0.31330727746E+03  0.32896041527E+03  0.79492149175E+02 0.  0.
          5    1    3    3  502    0  0.49126860836E+02  0.11039701005E+02  0.14715681632E+03  0.15560379829E+03  0.47000000000E+01 0. -1.
        -13    1    4    4    0    0  0.17013492292E+02  0.26200701309E+02  0.95131311364E+01  0.32656321487E+02  0.00000000000E+00 0.  1.
         14    1    4    4    0    0 -0.52167519800E+02 -0.10878326080E+02  0.11936840864E+02  0.54610221297E+02  0.00000000000E+00 0. -1.
         -5    1    5    5    0  501 -0.54717052628E+02  0.19183631738E+02  0.59604889226E+02  0.83287456406E+02  0.47000000000E+01 0.  1.
         11    1    6    6    0    0  0.15662267045E+02 -0.64652179743E+02  0.24233301364E+03  0.25129763320E+03  0.00000000000E+00 0. -1.
        -12    1    6    6    0    0  0.25081952255E+02  0.19106471771E+02  0.70974263824E+02  0.77662782063E+02  0.00000000000E+00 0.  1.
</event>
<event>
12    1  0.1345781E-002  0.2078769E+03  0.7818608E-02  0.1143258E+00
         -1   -1    0    0    0  501 -0.00000000000E+00  0.00000000000E+00  0.35862877236E+03  0.35862877236E+03  0.00000000000E+00 0.  1.
          1   -1    0    0  502    0  0.00000000000E+00 -0.00000000000E+00 -0.15090999855E+03  0.15090999855E+03  0.00000000000E+00 0. -1.
          6    2    1    2  502    0 -0.11050682371E+03  0.29867101551E+01 -0.11764319924E+02  0.20494201494E+03  0.17216896277E+03 0.  0.
         24    2    3    3    0    0 -0.15310667689E+02  0.19564942971E+02  0.40944677218E+02  0.94771808882E+02  0.81780349888E+02 0.  0.
         -6    2    1    2    0  501  0.11050682371E+03 -0.29867101551E+01  0.21948309374E+03  0.30459675596E+03  0.17996020889E+03 0.  0.
        -24    2    5    5    0    0  0.70590577921E+02  0.22252978672E+02  0.23186948162E+03  0.25554717723E+03  0.77863203957E+02 0.  0.
          5    1    3    3  502    0 -0.95196156017E+02 -0.16578232816E+02 -0.52708997142E+02  0.11017020606E+03  0.47000000000E+01 0. -1.
        -11    1    4    4    0    0 -0.25523081035E+02 -0.26600413324E+02  0.97681891606E+01  0.38136952867E+02  0.00000000000E+00 0.  1.
         12    1    4    4    0    0  0.10212413346E+02  0.46165356295E+02  0.31176488058E+02  0.56634856015E+02  0.00000000000E+00 0. -1.
         -5    1    5    5    0  501  0.39916245785E+02 -0.25239688827E+02 -0.12386387881E+02  0.49049578738E+02  0.47000000000E+01 0.  1.
         11    1    6    6    0    0  0.47493938625E+02  0.25752196374E+02  0.54837224091E+02  0.76980328463E+02  0.00000000000E+00 0. -1.
        -12    1    6    6    0    0  0.23096639295E+02 -0.34992177026E+01  0.17703225753E+03  0.17856684876E+03  0.00000000000E+00 0.  1.
</event>
<event>
12    1  0.1345781E-002  0.2086949E+03  0.7818608E-02  0.1142604E+00
         -1   -1    0    0    0  501 -0.00000000000E+00  0.00000000000E+00  0.14995598034E+03  0.14995598034E+03  0.00000000000E+00 0. -1.
          1   -1    0    0  502    0  0.00000000000E+00 -0.00000000000E+00 -0.36078504313E+03  0.36078504313E+03  0.00000000000E+00 0.  1.
          6    2    1    2  502    0  0.11353331744E+03 -0.15900760395E+02  0.63199793839E+01  0.21123335222E+03  0.17730464912E+03 0.  0.
         24    2    3    3    0    0  0.14377660360E+02  0.45422229246E+02  0.70202722611E+01  0.94550303747E+02  0.81366944695E+02 0.  0.
         -6    2    1    2    0  501 -0.11353331744E+03  0.15900760395E+02 -0.21714904218E+03  0.29950767126E+03  0.17148903835E+03 0.  0.
        -24    2    5    5    0    0 -0.11506762003E+02 -0.13509948930E+02 -0.15786923420E+03  0.17780888954E+03  0.79864771967E+02 0.  0.
          5    1    3    3  502    0  0.99155657082E+02 -0.61322989641E+02 -0.70029287722E+00  0.11668304847E+03  0.47000000000E+01 0. -1.
        -11    1    4    4    0    0  0.29201854113E+02  0.13548737916E+02 -0.29640769227E+02  0.43759476495E+02  0.00000000000E+00 0.  1.
         12    1    4    4    0    0 -0.14824193753E+02  0.31873491330E+02  0.36661041488E+02  0.50790827252E+02  0.00000000000E+00 0. -1.
         -5    1    5    5    0  501 -0.10202655544E+03  0.29410709325E+02 -0.59279807980E+02  0.12169878172E+03  0.47000000000E+01 0.  1.
         11    1    6    6    0    0 -0.32890500765E+01  0.21091182555E+02 -0.13229154041E+03  0.13400263988E+03  0.00000000000E+00 0. -1.
        -12    1    6    6    0    0 -0.82177119264E+01 -0.34601131485E+02 -0.25577693786E+02  0.43806249654E+02  0.00000000000E+00 0.  1.
</event>
<event>
12    1  0.1345781E-002  0.1759959E+03  0.7818608E-02  0.1171735E+00
         -2   -1    0    0    0  501 -0.00000000000E+00  0.00000000000E+00  0.15848820672E+03  0.15848820672E+03  0.00000000000E+00 0. -1.
          2   -1    0    0  502    0  0.00000000000E+00 -0.00000000000E+00 -0.19581048942E+03  0.19581048942E+03  0.00000000000E+00 0.  1.
          6    2    1    2  502    0 -0.39867284306E+02  0.53487382691E+01 -0.10956941503E+02  0.17655833181E+03  0.17156567433E+03 0.  0.
         24    2    3    3    0    0  0.50744502005E+02 -0.19537059241E+02  0.18301843361E+02  0.78029324776E+02  0.52885885519E+02 0.  0.
         -6    2    1    2    0  501  0.39867284306E+02 -0.53487382691E+01 -0.26365341197E+02  0.17774036433E+03  0.17110960387E+03 0.  0.
        -24    2    5    5    0    0 -0.34582735681E+02  0.71390298823E+01  0.19993549150E+02  0.89027419703E+02  0.79241454407E+02 0.  0.
          5    1    3    3  502    0 -0.90611786311E+02  0.24885797510E+02 -0.29258784864E+02  0.98529007038E+02  0.47000000000E+01 0. -1.
        -13    1    4    4    0    0  0.39213504425E+02 -0.18484869800E+01 -0.12041402553E+02  0.41062284506E+02  0.00000000000E+00 0.  1.
         14    1    4    4    0    0  0.11530997580E+02 -0.17688572261E+02  0.30343245914E+02  0.36967040271E+02  0.00000000000E+00 0. -1.
         -5    1    5    5    0  501  0.74450019987E+02 -0.12487768151E+02 -0.46358890347E+02  0.88712944623E+02  0.47000000000E+01 0.  1.
         13    1    6    6    0    0  0.99763651774E+01  0.32517949206E+02  0.16009580948E+02  0.37593238287E+02  0.00000000000E+00 0. -1.
        -14    1    6    6    0    0 -0.44559100858E+02 -0.25378919324E+02  0.39839682021E+01  0.51434181417E+02  0.00000000000E+00 0.  1.
</event>
<event>
12    1  0.1345781E-002  0.2294971E+03  0.7818608E-02  0.1126994E+00
         -2   -1    0    0    0  501 -0.00000000000E+00  0.00000000000E+00  0.89054409694E+02  0.89054409694E+02  0.00000000000E+00 0. -1.
          2   -1    0    0  502    0  0.00000000000E+00 -0.00000000000E+00 -0.73047014623E+03  0.73047014623E+03  0.00000000000E+00 0.  1.
          6    2    1    2  502    0 -0.15023363830E+03  0.25443121037E+02 -0.49958617689E+03  0.54981507480E+03  0.17173459132E+03 0.  0.
         24    2    3    3    0    0 -0.82174312004E+02  0.78443834166E+02 -0.34317666455E+03  0.37113331010E+03  0.84045571561E+02 0.  0.
         -6    2    1    2    0  501  0.15023363830E+03 -0.25443121037E+02 -0.14182955965E+03  0.26970948112E+03  0.17149367840E+03 0.  0.
        -24    2    5    5    0    0  0.14883394487E+02  0.18280505763E+02 -0.74051773605E+01  0.73945724021E+02  0.69695345088E+02 0.  0.
          5    1    3    3  502    0 -0.68059326297E+02 -0.53000713129E+02 -0.15640951233E+03  0.17868176470E+03  0.47000000000E+01 0. -1.
        -11    1    4    4    0    0 -0.81936282553E+01  0.22795122288E+02 -0.19442251595E+03  0.19592566921E+03  0.00000000000E+00 0.  1.
         12    1    4    4    0    0 -0.73980683749E+02  0.55648711878E+02 -0.14875414860E+03  0.17520764089E+03  0.00000000000E+00 0. -1.
         -5    1    5    5    0  501  0.13535024381E+03 -0.43723626800E+02 -0.13442438229E+03  0.19576375710E+03  0.47000000000E+01 0.  1.
         11    1    6    6    0    0  0.23731668244E+02  0.18225533500E+02  0.25844631471E+02  0.39538678846E+02  0.00000000000E+00 0. -1.
        -12    1    6    6    0    0 -0.88482737573E+01  0.54972263239E-01 -0.33249808831E+02  0.34407045176E+02  0.00000000000E+00 0.  1.
</event>
<event>
12    1  0.1345781E-002  0.3736882E+03  0.7818608E-02  0.1053292E+00
         -2   -1    0    0    0  501 -0.00000000000E+00  0.00000000000E+00  0.13294089527E+03  0.13294089527E+03  0.00000000000E+00 0. -1.
          2   -1    0    0  502    0  0.00000000000E+00 -0.00000000000E+00 -0.12731204371E+04  0.12731204371E+04  0.00000000000E+00 0.  1.
          6    2    1    2  502    0  0.12050995239E+03 -0.30869168020E+03 -0.27648728695E+03  0.46513205750E+03  0.17346299035E+03 0.  0.
         24    2    3    3    0    0  0.11599060583E+03 -0.11479155277E+03 -0.12217388043E+03  0.21723610888E+03  0.75060966641E+02 0.  0.
         -6    2    1    2    0  501 -0.12050995239E+03  0.30869168020E+03 -0.86369225490E+03  0.94092927489E+03  0.17196042310E+03 0.  0.
        -24    2    5    5    0    0 -0.10791164554E+03  0.16976219383E+03 -0.39439335725E+03  0.45131344094E+03  0.87598949928E+02 0.  0.
          5    1    3    3  502    0  0.45193465567E+01 -0.19390012743E+03 -0.15431340652E+03  0.24789594862E+03  0.47000000000E+01 0. -1.
        -11    1    4    4    0    0  0.61833601904E+02 -0.13824203269E+02 -0.29586528405E+02  0.69927573842E+02  0.00000000000E+00 0.  1.
         12    1    4    4    0    0  0.54157003931E+02 -0.10096734950E+03 -0.92587352024E+02  0.14730853504E+03  0.00000000000E+00 0. -1.
         -5    1    5    5    0  501 -0.12598306847E+02  0.13892948638E+03 -0.46929889765E+03  0.48961583395E+03  0.47000000000E+01 0.  1.
         13    1    6    6    0    0 -0.17574476393E+02  0.20135030589E+02 -0.91057149434E+01  0.28234654628E+02  0.00000000000E+00 0. -1.
        -14    1    6    6    0    0 -0.90337169151E+02  0.14962716324E+03 -0.38528764231E+03  0.42307878631E+03  0.00000000000E+00 0.  1.
</event>
<event>
12    1  0.1345781E-002  0.1824617E+03  0.7818608E-02  0.1165442E+00
          3   -1    0    0  502    0  0.00000000000E+00  0.00000000000E+00  0.93912748919E+02  0.93912748919E+02  0.00000000000E+00 0. -1.
         -3   -1    0    0    0  501 -0.00000000000E+00 -0.00000000000E+00 -0.45612219359E+03  0.45612219359E+03  0.00000000000E+00 0.  1.
          6    2    1    2  502    0 -0.63882375896E+02  0.71062261829E+01 -0.31162254763E+03  0.36158069003E+03  0.17175717398E+03 0.  0.
         24    2    3    3    0    0 -0.39330380593E+02 -0.53718268327E+02 -0.25369216835E+03  0.27394257932E+03  0.79071418938E+02 0.  0.
         -6    2    1    2    0  501  0.63882375896E+02 -0.71062261829E+01 -0.50586897050E+02  0.18845425248E+03  0.16977783932E+03 0.  0.
        -24    2    5    5    0    0  0.74394421258E+01  0.53627043890E+02 -0.40225713513E+02  0.10476566909E+03  0.80165655090E+02 0.  0.
          5    1    3    3  502    0 -0.24551995303E+02  0.60824494510E+02 -0.57930379273E+02  0.87638110708E+02  0.47000000000E+01 0. -1.
        -11    1    4    4    0    0 -0.45678367110E+02 -0.23136700577E+02 -0.22746783677E+03  0.23315968112E+03  0.00000000000E+00 0.  1.
         12    1    4    4    0    0  0.63479865174E+01 -0.30581567751E+02 -0.26224331587E+02  0.40782898206E+02  0.00000000000E+00 0. -1.
         -5    1    5    5    0  501  0.56442933770E+02 -0.60733270073E+02 -0.10361183536E+02  0.83688583395E+02  0.47000000000E+01 0.  1.
         13    1    6    6    0    0 -0.23656714958E+02  0.42299484384E+02  0.50017834033E+01  0.48722729593E+02  0.00000000000E+00 0. -1.
        -14    1    6    6    0    0  0.31096157084E+02  0.11327559506E+02 -0.45227496917E+02  0.56042939494E+02  0.00000000000E+00 0.  1.
</event>
<event>
12    1  0.1345781E-002  0.2879412E+03  0.7818608E-02  0.1091429E+00
         -2   -1    0    0    0  501 -0.00000000000E+00  0.00000000000E+00  0.10530731223E+03  0.10530731223E+03  0.00000000000E+00 0. -1.
          2   -1    0    0  502    0  0.00000000000E+00 -0.00000000000E+00 -0.83753494474E+03  0.83753494474E+03  0.00000000000E+00 0.  1.
          6    2    1    2  502    0  0.19335686641E+02 -0.23110960833E+03 -0.25063453069E+03  0.38171583543E+03  0.17059833296E+03 0.  0.
         24    2    3    3    0    0 -0.27850557067E+02 -0.10666357897E+03 -0.19437067821E+03  0.23714382253E+03  0.79400626003E+02 0.  0.
         -6    2    1    2    0  501 -0.19335686641E+02  0.23110960833E+03 -0.48159310183E+03  0.56112642154E+03  0.17072031331E+03 0.  0.
        -24    2    5    5    0    0 -0.62805904572E+02  0.19192620850E+03 -0.30005369609E+03  0.37032903029E+03  0.79568329012E+02 0.  0.
          5    1    3    3  502    0  0.47186243708E+02 -0.12444602936E+03 -0.56263852476E+02  0.14457201290E+03  0.47000000000E+01 0. -1.
        -13    1    4    4    0    0  0.14962601181E+02 -0.50497383720E+02 -0.13489865972E+03  0.14481544666E+03  0.00000000000E+00 0.  1.
         14    1    4    4    0    0 -0.42813158248E+02 -0.56166195247E+02 -0.59472018485E+02  0.92328375868E+02  0.00000000000E+00 0. -1.
         -5    1    5    5    0  501  0.43470217930E+02  0.39183399828E+02 -0.18153940574E+03  0.19079739124E+03  0.47000000000E+01 0.  1.
         11    1    6    6    0    0 -0.30986040689E+02  0.24212089328E+02 -0.24966444966E+02  0.46579860042E+02  0.00000000000E+00 0. -1.
        -12    1    6    6    0    0 -0.31819863882E+02  0.16771411917E+03 -0.27508725113E+03  0.32374917025E+03  0.00000000000E+00 0.  1.
</event>
<event>
12    1  0.1345781E-002  0.1896661E+03  0.7818608E-02  0.1158763E+00
          2   -1    0    0  502    0  0.00000000000E+00  0.00000000000E+00  0.73468887563E+03  0.73468887563E+03  0.00000000000E+00 0.  1.
         -2   -1    0    0    0  501 -0.00000000000E+00 -0.00000000000E+00 -0.57558496014E+02  0.57558496014E+02  0.00000000000E+00 0. -1.
          6    2    1    2  502    0  0.77302391886E+02  0.16973700460E+02  0.18696955070E+03  0.26701621721E+03  0.17342514542E+03 0.  0.
         24    2    3    3    0    0  0.11793393680E+03  0.12654529384E+02  0.10936212600E+03  0.17918353508E+03  0.77962260589E+02 0.  0.
         -6    2    1    2    0  501 -0.77302391886E+02 -0.16973700460E+02  0.49016082892E+03  0.52523115444E+03  0.17130779635E+03 0.  0.
        -24    2    5    5    0    0  0.36355899669E+01 -0.54348041396E+02  0.20761905347E+03  0.22892094007E+03  0.79575111189E+02 0.  0.
          5    1    3    3  502    0 -0.40631544918E+02  0.43191710764E+01  0.77607424698E+02  0.87832682126E+02  0.47000000000E+01 0. -1.
        -13    1    4    4    0    0  0.17621497691E+02 -0.18370457094E+02  0.55752614081E+02  0.61289027171E+02  0.00000000000E+00 0.  1.
         14    1    4    4    0    0  0.10031243911E+03  0.31024986478E+02  0.53609511920E+02  0.11789450791E+03  0.00000000000E+00 0. -1.
         -5    1    5    5    0  501 -0.80937981853E+02  0.37374340936E+02  0.28254177544E+03  0.29631021437E+03  0.47000000000E+01 0.  1.
         13    1    6    6    0    0 -0.11684791133E+02 -0.50888771246E+02  0.56283704103E+02  0.76772760341E+02  0.00000000000E+00 0. -1.
        -14    1    6    6    0    0  0.15320381100E+02 -0.34592701504E+01  0.15133534937E+03  0.15214817973E+03  0.00000000000E+00 0.  1.
</event>
<event>
12    1  0.1345781E-002  0.1944661E+03  0.7818608E-02  0.1154494E+00
          1   -1    0    0  502    0  0.00000000000E+00  0.00000000000E+00  0.46043311215E+03  0.46043311215E+03  0.00000000000E+00 0.  1.
         -1   -1    0    0    0  501 -0.00000000000E+00 -0.00000000000E+00 -0.87071444846E+02  0.87071444846E+02  0.00000000000E+00 0. -1.
          6    2    1    2  502    0  0.57485426454E+02 -0.71022636123E+02  0.12172889018E+03  0.22964589902E+03  0.17196083025E+03 0.  0.
         24    2    3    3    0    0  0.32949844878E+02  0.24464029636E+02  0.28154065719E+02  0.93638414401E+02  0.79317842958E+02 0.  0.
         -6    2    1    2    0  501 -0.57485426454E+02  0.71022636123E+02  0.25163277713E+03  0.31785865797E+03  0.17136593252E+03 0.  0.
        -24    2    5    5    0    0  0.27808607455E+02  0.62663214016E+02  0.13893993716E+03  0.17620161319E+03  0.83920827638E+02 0.  0.
          5    1    3    3  502    0  0.24535581576E+02 -0.95486665759E+02  0.93574824459E+02  0.13600748462E+03  0.47000000000E+01 0. -1.
        -13    1    4    4    0    0  0.47249593568E+02 -0.27350496855E+01  0.38714019964E+02  0.61145563461E+02  0.00000000000E+00 0.  1.
         14    1    4    4    0    0 -0.14299748691E+02  0.27199079322E+02 -0.10559954245E+02  0.32492850940E+02  0.00000000000E+00 0. -1.
         -5    1    5    5    0  501 -0.85294033908E+02  0.83594221068E+01  0.11269283996E+03  0.14165704479E+03  0.47000000000E+01 0.  1.
         11    1    6    6    0    0 -0.10789386193E+02  0.67118612584E+02  0.10208427114E+03  0.12264794097E+03  0.00000000000E+00 0. -1.
        -12    1    6    6    0    0  0.38597993648E+02 -0.44553985679E+01  0.36855666019E+02  0.53553672215E+02  0.00000000000E+00 0.  1.
</event>
<event>
12    1  0.1345781E-002  0.2255696E+03  0.7818608E-02  0.1129797E+00
          1   -1    0    0  502    0  0.00000000000E+00  0.00000000000E+00  0.78150380676E+03  0.78150380676E+03  0.00000000000E+00 0.  1.
         -1   -1    0    0    0  501 -0.00000000000E+00 -0.00000000000E+00 -0.66607202059E+02  0.66607202059E+02  0.00000000000E+00 0. -1.
          6    2    1    2  502    0 -0.14451815887E+03 -0.17789853058E+02  0.42064664304E+03  0.47717860422E+03  0.17191231750E+03 0.  0.
         24    2    3    3    0    0 -0.17499522708E+03 -0.19941507042E+02  0.38132823739E+03  0.42716352325E+03  0.77694644373E+02 0.  0.
         -6    2    1    2    0  501  0.14451815887E+03  0.17789853058E+02  0.29424996166E+03  0.37093240460E+03  0.17264365534E+03 0.  0.
        -24    2    5    5    0    0  0.11166581345E+03  0.61838576070E+02  0.13459450491E+03  0.20201964170E+03  0.80018694677E+02 0.  0.
          5    1    3    3  502    0  0.30477068204E+02  0.21516539838E+01  0.39318405658E+02  0.50015080972E+02  0.47000000000E+01 0. -1.
        -13    1    4    4    0    0 -0.17158736705E+03 -0.19236763409E+02  0.30288022793E+03  0.34863836575E+03  0.00000000000E+00 0.  1.
         14    1    4    4    0    0 -0.34078600243E+01 -0.70474363318E+00  0.78448009453E+02  0.78525157502E+02  0.00000000000E+00 0. -1.
         -5    1    5    5    0  501  0.32852345422E+02 -0.44048723012E+02  0.15965545675E+03  0.16891276290E+03  0.47000000000E+01 0.  1.
         13    1    6    6    0    0  0.11152463824E+03  0.58415400921E+02  0.14443331674E+03  0.19160137521E+03  0.00000000000E+00 0. -1.
        -14    1    6    6    0    0  0.14117521453E+00  0.34231751495E+01 -0.98388118277E+01  0.10418266493E+02  0.00000000000E+00 0.  1.
</event>
<event>
12    1  0.1345781E-002  0.1830754E+03  0.7818608E-02  0.1164859E+00
          2   -1    0    0  502    0  0.00000000000E+00  0.00000000000E+00  0.21076615191E+04  0.21076615191E+04  0.00000000000E+00 0. -1.
         -2   -1    0    0    0  501 -0.00000000000E+00 -0.00000000000E+00 -0.20345893561E+02  0.20345893561E+02  0.00000000000E+00 0.  1.
          6    2    1    2  502    0 -0.33884056589E+02 -0.51842231424E+02  0.15360318138E+04  0.15467757481E+04  0.17113075598E+03 0.  0.
         24    2    3    3    0    0 -0.53781317464E+01 -0.93732296020E+02  0.12686564450E+04  0.12746010926E+04  0.79398376274E+02 0.  0.
         -6    2    1    2    0  501  0.33884056589E+02  0.51842231424E+02  0.55128381172E+03  0.58123166455E+03  0.17343777142E+03 0.  0.
        -24    2    5    5    0    0 -0.30304936823E+02  0.81194631977E+01  0.42212499675E+03  0.43044706049E+03  0.78171888310E+02 0.  0.
          5    1    3    3  502    0 -0.28505924843E+02  0.41890064596E+02  0.26737536884E+03  0.27217465555E+03  0.47000000000E+01 0. -1.
        -13    1    4    4    0    0 -0.23884017897E+02 -0.20929173522E+02  0.14501065215E+03  0.14844718203E+03  0.00000000000E+00 0.  1.
         14    1    4    4    0    0  0.18505886150E+02 -0.72803122498E+02  0.11236457928E+04  0.11261539105E+04  0.00000000000E+00 0. -1.
         -5    1    5    5    0  501  0.64188993413E+02  0.43722768227E+02  0.12915881497E+03  0.15078460406E+03  0.47000000000E+01 0.  1.
         13    1    6    6    0    0 -0.16809358623E+01  0.36177482756E+02  0.29337992881E+03  0.29560686465E+03  0.00000000000E+00 0. -1.
        -14    1    6    6    0    0 -0.28624000961E+02 -0.28058019558E+02  0.12874506795E+03  0.13484019584E+03  0.00000000000E+00 0.  1.
</event>
<event>
12    1  0.1345781E-002  0.4659940E+03  0.7818608E-02  0.1023057E+00
          2   -1    0    0  502    0  0.00000000000E+00  0.00000000000E+00  0.52520344202E+03  0.52520344202E+03  0.00000000000E+00 0. -1.
         -2   -1    0    0    0  501 -0.00000000000E+00 -0.00000000000E+00 -0.41574981626E+03  0.41574981626E+03  0.00000000000E+00 0.  1.
          6    2    1    2  502    0  0.57298671475E+02  0.43156556269E+03  0.19970410330E+02  0.46763326487E+03  0.16955848686E+03 0.  0.
         24    2    3    3    0    0  0.39551515559E+02  0.36327139187E+03 -0.37624443688E+02  0.37642848143E+03  0.82172844290E+02 0.  0.
         -6    2    1    2    0  501 -0.57298671475E+02 -0.43156556269E+03  0.89483215439E+02  0.47331999341E+03  0.16276546828E+03 0.  0.
        -24    2    5    5    0    0 -0.99231076186E+02 -0.36655163028E+03  0.78503164352E+02  0.39503979481E+03  0.75410798452E+02 0.  0.
          5    1    3    3  502    0  0.17747155915E+02  0.68294170826E+02  0.57594854017E+02  0.91204783433E+02  0.47000000000E+01 0. -1.
        -13    1    4    4    0    0  0.45703593866E+02  0.94218485433E+02 -0.20918077347E+02  0.10678720639E+03  0.00000000000E+00 0.  1.
         14    1    4    4    0    0 -0.61520783064E+01  0.26905290643E+03 -0.16706366341E+02  0.26964127504E+03  0.00000000000E+00 0. -1.
         -5    1    5    5    0  501  0.41932404712E+02 -0.65013932410E+02  0.10980051087E+02  0.78280198608E+02  0.47000000000E+01 0.  1.
         11    1    6    6    0    0 -0.12966136084E+01 -0.14201083082E+03  0.23086462068E+02  0.14388099947E+03  0.00000000000E+00 0. -1.
        -12    1    6    6    0    0 -0.97934462578E+02 -0.22454079946E+03  0.55416702283E+02  0.25115879534E+03  0.00000000000E+00 0.  1.
</event>
<event>
12    1  0.1345781E-002  0.2249221E+03  0.7818608E-02  0.1130266E+00
         -1   -1    0    0    0  501 -0.00000000000E+00  0.00000000000E+00  0.13328826257E+03  0.13328826257E+03  0.00000000000E+00 0. -1.
          1   -1    0    0  502    0  0.00000000000E+00 -0.00000000000E+00 -0.13283204567E+04  0.13283204567E+04  0.00000000000E+00 0.  1.
          6    2    1    2  502    0  0.99068721665E+02 -0.10763691686E+03 -0.12155980047E+04  0.12363401097E+04  0.17163344770E+03 0.  0.
         24    2    3    3    0    0  0.79322094123E+02 -0.58877428413E+02 -0.11180206662E+04  0.11253858669E+04  0.82247146686E+02 0.  0.
         -6    2    1    2    0  501 -0.99068721665E+02  0.10763691686E+03  0.20565810593E+02  0.22526860953E+03  0.17006668219E+03 0.  0.
        -24    2    5    5    0    0 -0.75533475540E+02  0.14295148798E+03  0.62937559210E+01  0.18024852192E+03  0.79432263268E+02 0.  0.
          5    1    3    3  502    0  0.19746627543E+02 -0.48759488442E+02 -0.97577338479E+02  0.11095424281E+03  0.47000000000E+01 0. -1.
        -13    1    4    4    0    0 -0.52668516223E+01 -0.41944693874E+02 -0.36538651200E+03  0.36782387120E+03  0.00000000000E+00 0.  1.
         14    1    4    4    0    0  0.84588945745E+02 -0.16932734539E+02 -0.75263415424E+03  0.75756199573E+03  0.00000000000E+00 0. -1.
         -5    1    5    5    0  501 -0.23535246125E+02 -0.35314571122E+02  0.14272054672E+02  0.45020087608E+02  0.47000000000E+01 0.  1.
         13    1    6    6    0    0 -0.50314888676E+02  0.70890816641E+02  0.41319074829E+02  0.96251555059E+02  0.00000000000E+00 0. -1.
        -14    1    6    6    0    0 -0.25218586864E+02  0.72060671336E+02 -0.35025318908E+02  0.83996966859E+02  0.00000000000E+00 0.  1.
</event>
<event>
12    1  0.1345781E-002  0.2240548E+03  0.7818608E-02  0.1130896E+00
          2   -1    0    0  502    0  0.00000000000E+00  0.00000000000E+00  0.89613315393E+03  0.89613315393E+03  0.00000000000E+00 0. -1.
         -2   -1    0    0    0  501 -0.00000000000E+00 -0.00000000000E+00 -0.70980935045E+02  0.70980935045E+02  0.00000000000E+00 0.  1.
          6    2    1    2  502    0 -0.11414619216E+03  0.85911793867E+02  0.19065938166E+03  0.29424451067E+03  0.17268075381E+03 0.  0.
         24    2    3    3    0    0 -0.12752554729E+03  0.56366397470E+02  0.80996601165E+02  0.17978948450E+03  0.79522785169E+02 0.  0.
         -6    2    1    2    0  501  0.11414619216E+03 -0.85911793867E+02  0.63449283723E+03  0.67286957831E+03  0.17251701192E+03 0.  0.
        -24    2    5    5    0    0  0.12603106998E+03 -0.93473128165E+02  0.39278685321E+03  0.43070786208E+03  0.81281572985E+02 0.  0.
          5    1    3    3  502    0  0.13379355123E+02  0.29545396397E+02  0.10966278049E+03  0.11445502618E+03  0.47000000000E+01 0. -1.
        -11    1    4    4    0    0 -0.50532043477E+02  0.55162203063E+01 -0.81595810963E+01  0.51482957064E+02  0.00000000000E+00 0.  1.
         12    1    4    4    0    0 -0.76993503809E+02  0.50850177164E+02  0.89156182262E+02  0.12830652743E+03  0.00000000000E+00 0. -1.
         -5    1    5    5    0  501 -0.11884877820E+02  0.75613342982E+01  0.24170598402E+03  0.24216171623E+03  0.47000000000E+01 0.  1.
         11    1    6    6    0    0  0.61463412330E+02 -0.31554481410E+02  0.27055128494E+03  0.27923365509E+03  0.00000000000E+00 0. -1.
        -12    1    6    6    0    0  0.64567657653E+02 -0.61918646756E+02  0.12223556827E+03  0.15147420698E+03  0.00000000000E+00 0.  1.
</event>
<event>
12    1  0.1345781E-002  0.2907011E+03  0.7818608E-02  0.1089984E+00
          1   -1    0    0  502    0  0.00000000000E+00  0.00000000000E+00  0.74944691447E+03  0.74944691447E+03  0.00000000000E+00 0. -1.
         -1   -1    0    0    0  501 -0.00000000000E+00 -0.00000000000E+00 -0.11317068382E+03  0.11317068382E+03  0.00000000000E+00 0.  1.
          6    2    1    2  502    0 -0.19331739300E+03 -0.13386022633E+03  0.34406786607E+03  0.45038949079E+03  0.17081517007E+03 0.  0.
         24    2    3    3    0    0 -0.16542772445E+03 -0.88328852154E+02  0.16159768694E+03  0.26020958671E+03  0.80167939046E+02 0.  0.
         -6    2    1    2    0  501  0.19331739300E+03  0.13386022633E+03  0.29220836458E+03  0.41222810750E+03  0.17104417456E+03 0.  0.
        -24    2    5    5    0    0  0.12563346862E+03  0.13838782393E+03  0.27569423880E+03  0.34225368996E+03  0.78710334336E+02 0.  0.
          5    1    3    3  502    0 -0.27889668549E+02 -0.45531374179E+02  0.18247017913E+03  0.19017990408E+03  0.47000000000E+01 0. -1.
        -11    1    4    4    0    0 -0.60236503322E+00  0.99301867061E+01  0.17896845935E+02  0.20476048107E+02  0.00000000000E+00 0.  1.
         12    1    4    4    0    0 -0.16482535942E+03 -0.98259038860E+02  0.14370084100E+03  0.23973353860E+03  0.00000000000E+00 0. -1.
         -5    1    5    5    0  501  0.67683924382E+02 -0.45275976000E+01  0.16514125780E+02  0.69974417540E+02  0.47000000000E+01 0.  1.
         13    1    6    6    0    0  0.55958094987E+02  0.11697801355E+03  0.16837111338E+03  0.21251822479E+03  0.00000000000E+00 0. -1.
        -14    1    6    6    0    0  0.69675373634E+02  0.21409810387E+02  0.10732312543E+03  0.12973546517E+03  0.00000000000E+00 0.  1.
</event>
<event>
12    1  0.1345781E-002  0.2092724E+03  0.7818608E-02  0.1142143E+00
          2   -1    0    0  502    0  0.00000000000E+00  0.00000000000E+00  0.73910185879E+03  0.73910185879E+03  0.00000000000E+00 0.  1.
         -2   -1    0    0    0  501 -0.00000000000E+00 -0.00000000000E+00 -0.80790310555E+02  0.80790310555E+02  0.00000000000E+00 0. -1.
          6    2    1    2  502    0  0.21247085962E+02  0.11788667608E+03  0.11790215128E+03  0.24050291922E+03  0.17202334091E+03 0.  0.
         24    2    3    3    0    0 -0.16494454750E+02  0.63862820049E+02  0.13697722190E+03  0.17173556334E+03  0.79873760227E+02 0.  0.
         -6    2    1    2    0  501 -0.21247085962E+02 -0.11788667608E+03  0.54040939695E+03  0.57938925012E+03  0.17117499752E+03 0.  0.
        -24    2    5    5    0    0 -0.63537476833E+02 -0.54768664676E+02  0.43046818329E+03  0.44566744567E+03  0.79246436575E+02 0.  0.
          5    1    3    3  502    0  0.37741540711E+02  0.54023856032E+02 -0.19075070626E+02  0.68767355884E+02  0.47000000000E+01 0. -1.
        -11    1    4    4    0    0 -0.30947184901E+02  0.87653184492E+00  0.16649477744E+02  0.35152548564E+02  0.00000000000E+00 0.  1.
         12    1    4    4    0    0  0.14452730151E+02  0.62986288205E+02  0.12032774416E+03  0.13658301477E+03  0.00000000000E+00 0. -1.
         -5    1    5    5    0  501  0.42290390871E+02 -0.63118011405E+02  0.10994121366E+03  0.13372180445E+03  0.47000000000E+01 0.  1.
         13    1    6    6    0    0 -0.48531052697E+02  0.53047150724E+01  0.12952061495E+03  0.13841601344E+03  0.00000000000E+00 0. -1.
        -14    1    6    6    0    0 -0.15006424136E+02 -0.60073379749E+02  0.30094756834E+03  0.30725143223E+03  0.00000000000E+00 0.  1.
</event>
<event>
12    1  0.1345781E-002  0.3373395E+03  0.7818608E-02  0.1067935E+00
         -2   -1    0    0    0  501 -0.00000000000E+00  0.00000000000E+00  0.16266205986E+03  0.16266205986E+03  0.00000000000E+00 0.  1.
          2   -1    0    0  502    0  0.00000000000E+00 -0.00000000000E+00 -0.75825082923E+03  0.75825082923E+03  0.00000000000E+00 0. -1.
          6    2    1    2  502    0 -0.12866967752E+03 -0.25988062273E+03 -0.16966223920E+03  0.37752781158E+03  0.17218637901E+03 0.  0.
         24    2    3    3    0    0 -0.89281254558E+02 -0.73461749729E+02 -0.38013271143E+02  0.14588803764E+03  0.80439664695E+02 0.  0.
         -6    2    1    2    0  501  0.12866967752E+03  0.25988062273E+03 -0.42592653017E+03  0.54338507752E+03  0.17251118625E+03 0.  0.
        -24    2    5    5    0    0  0.53011324410E+02  0.22289126307E+03 -0.25007847293E+03  0.34835423801E+03  0.79502936119E+02 0.  0.
          5    1    3    3  502    0 -0.39388422959E+02 -0.18641887301E+03 -0.13164896806E+03  0.23163977393E+03  0.47000000000E+01 0. -1.
        -11    1    4    4    0    0 -0.10600548834E+02 -0.10328171647E+02 -0.42405291551E+02  0.44913823225E+02  0.00000000000E+00 0.  1.
         12    1    4    4    0    0 -0.78680705724E+02 -0.63133578081E+02  0.43920204077E+01  0.10097421442E+03  0.00000000000E+00 0. -1.
         -5    1    5    5    0  501  0.75658353107E+02  0.36989359670E+02 -0.17584805724E+03  0.19503083951E+03  0.47000000000E+01 0.  1.
         11    1    6    6    0    0  0.33946551155E+02  0.21794830730E+03 -0.24088786392E+03  0.32662026265E+03  0.00000000000E+00 0. -1.
        -12    1    6    6    0    0  0.19064773255E+02  0.49429557660E+01 -0.91906090051E+01  0.21733975358E+02  0.00000000000E+00 0.  1.
</event>
<event>
12    1  0.1345781E-002  0.2070949E+03  0.7818608E-02  0.1143887E+00
         -2   -1    0    0    0  501 -0.00000000000E+00  0.00000000000E+00  0.23595415969E+02  0.23595415969E+02  0.00000000000E+00 0.  1.
          2   -1    0    0  502    0  0.00000000000E+00 -0.00000000000E+00 -0.28725366366E+04  0.28725366366E+04  0.00000000000E+00 0. -1.
          6    2    1    2  502    0 -0.22623755430E+02  0.11400137201E+03 -0.54674575838E+03  0.58463652315E+03  0.17134991324E+03 0.  0.
         24    2    3    3    0    0  0.44226764959E+02  0.66677034150E+02 -0.40857466745E+03  0.42394450282E+03  0.79961546792E+02 0.  0.
         -6    2    1    2    0  501  0.22623755430E+02 -0.11400137201E+03 -0.23021954623E+04  0.23114955294E+04  0.17146279180E+03 0.  0.
        -24    2    5    5    0    0  0.29369862000E+02 -0.14233541069E+03 -0.21624619695E+04  0.21686814310E+04  0.76258913092E+02 0.  0.
          5    1    3    3  502    0 -0.66850520389E+02  0.47324337863E+02 -0.13817109093E+03  0.16069202033E+03  0.47000000000E+01 0. -1.
        -13    1    4    4    0    0 -0.38305094069E+00  0.67143354876E+02 -0.27661947824E+03  0.28465191475E+03  0.00000000000E+00 0.  1.
         14    1    4    4    0    0  0.44609815899E+02 -0.46632072627E+00 -0.13195518922E+03  0.13929258807E+03  0.00000000000E+00 0. -1.
         -5    1    5    5    0  501 -0.67461065695E+01  0.28334038679E+02 -0.13973349274E+03  0.14281409838E+03  0.47000000000E+01 0.  1.
         11    1    6    6    0    0 -0.44569570564E+01 -0.11620087277E+03 -0.17902865673E+04  0.17940592243E+04  0.00000000000E+00 0. -1.
        -12    1    6    6    0    0  0.33826819056E+02 -0.26134537926E+02 -0.37217540221E+03  0.37462220673E+03  0.00000000000E+00 0.  1.
</event>
<event>
12    1  0.1345781E-002  0.2169254E+03  0.7818608E-02  0.1136196E+00
         -2   -1    0    0    0  501 -0.00000000000E+00  0.00000000000E+00  0.63346709086E+02  0.63346709086E+02  0.00000000000E+00 0. -1.
          2   -1    0    0  502    0  0.00000000000E+00 -0.00000000000E+00 -0.11976748126E+04  0.11976748126E+04  0.00000000000E+00 0.  1.
          6    2    1    2  502    0 -0.12134216760E+03  0.51664436149E+02 -0.95545951670E+03  0.97974029897E+03  0.17203206034E+03 0.  0.
         24    2    3    3    0    0 -0.25822766294E+01  0.38404380658E+02 -0.54974389467E+03  0.55676630836E+03  0.79302003737E+02 0.  0.
         -6    2    1    2    0  501  0.12134216760E+03 -0.51664436149E+02 -0.17886858679E+03  0.28128122268E+03  0.17242975176E+03 0.  0.
        -24    2    5    5    0    0  0.11686640329E+03 -0.83715968659E+02 -0.93695998439E+02  0.19004639924E+03  0.81685825668E+02 0.  0.
          5    1    3    3  502    0 -0.11875989097E+03  0.13260055491E+02 -0.40571562203E+03  0.42297399061E+03  0.47000000000E+01 0. -1.
        -13    1    4    4    0    0 -0.31949239871E+02  0.26656379680E+02 -0.45465186899E+03  0.45655190120E+03  0.00000000000E+00 0.  1.
         14    1    4    4    0    0  0.29366963241E+02  0.11748000978E+02 -0.95092025676E+02  0.10021440717E+03  0.00000000000E+00 0. -1.
         -5    1    5    5    0  501  0.44757643154E+01  0.32051532510E+02 -0.85172588347E+02  0.91234823441E+02  0.47000000000E+01 0.  1.
         13    1    6    6    0    0  0.22326223381E+02  0.11667099387E+02  0.18042061637E+01  0.25255427505E+02  0.00000000000E+00 0. -1.
        -14    1    6    6    0    0  0.94540179904E+02 -0.95383068046E+02 -0.95500204602E+02  0.16479097173E+03  0.00000000000E+00 0.  1.
</event>
<event>
12    1  0.1345781E-002  0.2458463E+03  0.7818608E-02  0.1115958E+00
          3   -1    0    0  502    0  0.00000000000E+00  0.00000000000E+00  0.40763118817E+03  0.40763118817E+03  0.00000000000E+00 0. -1.
         -3   -1    0    0    0  501 -0.00000000000E+00 -0.00000000000E+00 -0.17649488452E+03  0.17649488452E+03  0.00000000000E+00 0.  1.
          6    2    1    2  502    0  0.14958201965E+03 -0.92233442924E+02  0.23229307557E+03  0.33811049278E+03  0.17168821676E+03 0.  0.
         24    2    3    3    0    0  0.88953881746E+02 -0.12670768189E+03  0.16696410698E+03  0.24243286533E+03  0.83240924098E+02 0.  0.
         -6    2    1    2    0  501 -0.14958201965E+03  0.92233442924E+02 -0.11567719247E+01  0.24601557991E+03  0.17216427864E+03 0.  0.
        -24    2    5    5    0    0 -0.42059364096E+02  0.23885067800E+02  0.51507612690E+02  0.10807265966E+03  0.81775173673E+02 0.  0.
          5    1    3    3  502    0  0.60628137902E+02  0.34474238966E+02  0.65328968596E+02  0.95677627456E+02  0.47000000000E+01 0. -1.
        -13    1    4    4    0    0  0.39843852520E+02 -0.57451560650E+02  0.20021119609E+02  0.72725921343E+02  0.00000000000E+00 0.  1.
         14    1    4    4    0    0  0.49110029226E+02 -0.69256121240E+02  0.14694298737E+03  0.16970694399E+03  0.00000000000E+00 0. -1.
         -5    1    5    5    0  501 -0.10752265555E+03  0.68348375124E+02 -0.52664384614E+02  0.13794292025E+03  0.47000000000E+01 0.  1.
         11    1    6    6    0    0 -0.33232208175E+01  0.43046870189E+02  0.48230368109E+02  0.64732103609E+02  0.00000000000E+00 0. -1.
        -12    1    6    6    0    0 -0.38736143278E+02 -0.19161802389E+02  0.32772445803E+01  0.43340556052E+02  0.00000000000E+00 0.  1.
</event>
<event>
12    1  0.1345781E-002  0.2850155E+03  0.7818608E-02  0.1092981E+00
          1   -1    0    0  502    0  0.00000000000E+00  0.00000000000E+00  0.22705973324E+04  0.22705973324E+04  0.00000000000E+00 0. -1.
         -1   -1    0    0    0  501 -0.00000000000E+00 -0.00000000000E+00 -0.37813815685E+02  0.37813815685E+02  0.00000000000E+00 0.  1.
          6    2    1    2  502    0 -0.22440369279E+03 -0.35602998077E+02  0.13840510933E+04  0.14130789015E+04  0.17195918702E+03 0.  0.
         24    2    3    3    0    0 -0.81729058847E+02  0.40916327823E+02  0.52963733989E+03  0.54344897415E+03  0.80419467534E+02 0.  0.
         -6    2    1    2    0  501  0.22440369279E+03  0.35602998077E+02  0.84873242333E+03  0.89533224657E+03  0.17218744009E+03 0.  0.
        -24    2    5    5    0    0  0.11992571861E+03 -0.39961603465E+02  0.34659180562E+03  0.37687979354E+03  0.77028509802E+02 0.  0.
          5    1    3    3  502    0 -0.14267463394E+03 -0.76519325900E+02  0.85441375346E+03  0.86962992733E+03  0.47000000000E+01 0. -1.
        -13    1    4    4    0    0  0.27070320504E+01  0.31763398154E+02  0.85182239977E+02  0.90951940563E+02  0.00000000000E+00 0.  1.
         14    1    4    4    0    0 -0.84436090897E+02  0.91529296694E+01  0.44445509991E+03  0.45249703359E+03  0.00000000000E+00 0. -1.
         -5    1    5    5    0  501  0.10447797418E+03  0.75564601542E+02  0.50214061771E+03  0.51845245303E+03  0.47000000000E+01 0.  1.
         13    1    6    6    0    0  0.58804530237E+02 -0.24021609794E+02  0.27112473759E+03  0.27846657582E+03  0.00000000000E+00 0. -1.
        -14    1    6    6    0    0  0.61121188370E+02 -0.15939993671E+02  0.75467068028E+02  0.98413217724E+02  0.00000000000E+00 0.  1.
</event>
<event>
12    1  0.1345781E-002  0.1881265E+03  0.7818608E-02  0.1160162E+00
         -1   -1    0    0    0  501 -0.00000000000E+00  0.00000000000E+00  0.11974823601E+03  0.11974823601E+03  0.00000000000E+00 0.  1.
          1   -1    0    0  502    0  0.00000000000E+00 -0.00000000000E+00 -0.30322626446E+03  0.30322626446E+03  0.00000000000E+00 0. -1.
          6    2    1    2  502    0  0.47509864778E+02 -0.58797553418E+02 -0.58143066719E+02  0.19701329210E+03  0.17239281167E+03 0.  0.
         24    2    3    3    0    0  0.47814830172E+02  0.28119397659E+02 -0.13421297885E+02  0.99152288647E+02  0.81080741228E+02 0.  0.
         -6    2    1    2    0  501 -0.47509864778E+02  0.58797553418E+02 -0.12533496173E+03  0.22596120837E+03  0.17214899220E+03 0.  0.
        -24    2    5    5    0    0 -0.10489304706E+01  0.82738340903E+02 -0.12698833287E+03  0.17345784316E+03  0.84349590145E+02 0.  0.
          5    1    3    3  502    0 -0.30496539374E+00 -0.86916951077E+02 -0.44721768834E+02  0.97861003449E+02  0.47000000000E+01 0. -1.
        -11    1    4    4    0    0  0.61475169185E+02  0.49911565920E+00  0.74624091500E+01  0.61928451403E+02  0.00000000000E+00 0.  1.
         12    1    4    4    0    0 -0.13660339013E+02  0.27620281999E+02 -0.20883707035E+02  0.37223837245E+02  0.00000000000E+00 0. -1.
         -5    1    5    5    0  501 -0.46460934308E+02 -0.23940787485E+02  0.16533711396E+01  0.52503365209E+02  0.47000000000E+01 0.  1.
         13    1    6    6    0    0 -0.31118985322E+02  0.56615186581E+02 -0.35593775051E+02  0.73760337726E+02  0.00000000000E+00 0. -1.
        -14    1    6    6    0    0  0.30070054851E+02  0.26123154322E+02 -0.91394557820E+02  0.99697505433E+02  0.00000000000E+00 0.  1.
</event>
<event>
12    1  0.1345781E-002  0.1674621E+03  0.7818608E-02  0.1180521E+00
         -2   -1    0    0    0  501 -0.00000000000E+00  0.00000000000E+00  0.68367113760E+02  0.68367113760E+02  0.00000000000E+00 0.  1.
          2   -1    0    0  502    0  0.00000000000E+00 -0.00000000000E+00 -0.87535528154E+03  0.87535528154E+03  0.00000000000E+00 0. -1.
          6    2    1    2  502    0  0.14650228849E+02 -0.20532303311E+02 -0.53186772473E+02  0.17022920229E+03  0.15972771789E+03 0.  0.
         24    2    3    3    0    0 -0.40227659394E+02 -0.45353397013E+02 -0.31054451679E+02  0.10588948723E+03  0.81074097811E+02 0.  0.
         -6    2    1    2    0  501 -0.14650228849E+02  0.20532303311E+02 -0.75380139531E+03  0.77349319301E+03  0.17157788720E+03 0.  0.
        -24    2    5    5    0    0  0.24308297406E+02  0.64634428309E+02 -0.35867692442E+03  0.37398324108E+03  0.80285900692E+02 0.  0.
          5    1    3    3  502    0  0.54877888244E+02  0.24821093702E+02 -0.22132320794E+02  0.64339715063E+02  0.47000000000E+01 0. -1.
        -11    1    4    4    0    0 -0.13924157941E+01 -0.52163999890E+02 -0.39647744367E+02  0.65535985074E+02  0.00000000000E+00 0.  1.
         12    1    4    4    0    0 -0.38835243600E+02  0.68106028772E+01  0.85932926877E+01  0.40353502156E+02  0.00000000000E+00 0. -1.
         -5    1    5    5    0  501 -0.38958526255E+02 -0.44102124998E+02 -0.39512447089E+03  0.39950995193E+03  0.47000000000E+01 0.  1.
         13    1    6    6    0    0  0.13793457888E+02  0.43296261967E+02 -0.64797088756E+02  0.79142204241E+02  0.00000000000E+00 0. -1.
        -14    1    6    6    0    0  0.10514839517E+02  0.21338166342E+02 -0.29387983567E+03  0.29484103684E+03  0.00000000000E+00 0.  1.
</event>
<event>
12    1  0.1345781E-002  0.1985961E+03  0.7818608E-02  0.1150929E+00
          3   -1    0    0  502    0  0.00000000000E+00  0.00000000000E+00  0.20470180868E+03  0.20470180868E+03  0.00000000000E+00 0.  1.
         -3   -1    0    0    0  501 -0.00000000000E+00 -0.00000000000E+00 -0.19289381254E+03  0.19289381254E+03  0.00000000000E+00 0. -1.
          6    2    1    2  502    0  0.67941576120E+02 -0.72235750618E+02 -0.77190444858E+00  0.19929364798E+03  0.17286787109E+03 0.  0.
         24    2    3    3    0    0  0.55558677955E+02  0.25997683275E+02 -0.12111501838E+02  0.99524814313E+02  0.77432899697E+02 0.  0.
         -6    2    1    2    0  501 -0.67941576120E+02  0.72235750618E+02  0.12579900587E+02  0.19830197325E+03  0.17126399874E+03 0.  0.
        -24    2    5    5    0    0  0.11230653171E+02  0.61590448268E+02 -0.32187479806E+02  0.10660806560E+03  0.80060820047E+02 0.  0.
          5    1    3    3  502    0  0.12382898164E+02 -0.98233433893E+02  0.11339597389E+02  0.99768833662E+02  0.47000000000E+01 0. -1.
        -11    1    4    4    0    0  0.24891896324E+02  0.53047970808E+00  0.31689434226E+02  0.40300225221E+02  0.00000000000E+00 0.  1.
         12    1    4    4    0    0  0.30666781631E+02  0.25467203567E+02 -0.43800936063E+02  0.59224589092E+02  0.00000000000E+00 0. -1.
         -5    1    5    5    0  501 -0.79172229291E+02  0.10645302350E+02  0.44767380393E+02  0.91693907650E+02  0.47000000000E+01 0.  1.
         11    1    6    6    0    0  0.18383228727E+02  0.46136709587E+01 -0.44065301631E+02  0.47968529955E+02  0.00000000000E+00 0. -1.
        -12    1    6    6    0    0 -0.71525755561E+01  0.56976777309E+02  0.11877821826E+02  0.58639535647E+02  0.00000000000E+00 0.  1.
</event>
<event>
12    1  0.1345781E-002  0.2312414E+03  0.7818608E-02  0.1125769E+00
          2   -1    0    0  502    0  0.00000000000E+00  0.00000000000E+00  0.10624464012E+04  0.10624464012E+04  0.00000000000E+00 0. -1.
         -2   -1    0    0    0  501 -0.00000000000E+00 -0.00000000000E+00 -0.17008834408E+03  0.17008834408E+03  0.00000000000E+00 0.  1.
          6    2    1    2  502    0 -0.13227416114E+03  0.80247970155E+02  0.96331288029E+03  0.99068729163E+03  0.17191106437E+03 0.  0.
         24    2    3    3    0    0 -0.12669459646E+03  0.10895992833E+03  0.64891860839E+03  0.67490040735E+03  0.80445091625E+02 0.  0.
         -6    2    1    2    0  501  0.13227416114E+03 -0.80247970155E+02 -0.70954823123E+02  0.24184745370E+03  0.17181214601E+03 0.  0.
        -24    2    5    5    0    0  0.11553810099E+02 -0.59284260598E+02 -0.58579876883E+00  0.10047288080E+03  0.80289118399E+02 0.  0.
          5    1    3    3  502    0 -0.55795646727E+01 -0.28711958174E+02  0.31439427190E+03  0.31578688429E+03  0.47000000000E+01 0. -1.
        -11    1    4    4    0    0 -0.21625771054E+02  0.18166322143E+02  0.32605087945E+02  0.43136770785E+02  0.00000000000E+00 0.  1.
         12    1    4    4    0    0 -0.10506882541E+03  0.90793606186E+02  0.61631352044E+03  0.63176363656E+03  0.00000000000E+00 0. -1.
         -5    1    5    5    0  501  0.12072035104E+03 -0.20963709556E+02 -0.70369024355E+02  0.14137457290E+03  0.47000000000E+01 0.  1.
         11    1    6    6    0    0 -0.24187936301E+02 -0.52217593880E+02 -0.17716245897E+02  0.60212944969E+02  0.00000000000E+00 0. -1.
        -12    1    6    6    0    0  0.35741746400E+02 -0.70666667180E+01  0.17130447128E+02  0.40259935830E+02  0.00000000000E+00 0.  1.
</event>
<event>
12    1  0.1345781E-002  0.2174971E+03  0.7818608E-02  0.1135763E+00
          2   -1    0    0  502    0  0.00000000000E+00  0.00000000000E+00  0.15471651208E+04  0.15471651208E+04  0.00000000000E+00 0. -1.
         -2   -1    0    0    0  501 -0.00000000000E+00 -0.00000000000E+00 -0.30725664916E+02  0.30725664916E+02  0.00000000000E+00 0.  1.
          6    2    1    2  502    0 -0.13396085588E+03  0.17451834870E+02  0.70422168903E+03  0.73714466263E+03  0.17089174610E+03 0.  0.
         24    2    3    3    0    0 -0.12476087575E+03  0.48694284542E+02  0.67694162813E+03  0.69440098451E+03  0.77500644692E+02 0.  0.
         -6    2    1    2    0  501  0.13396085588E+03 -0.17451834870E+02  0.81221776684E+03  0.84074612308E+03  0.17001842621E+03 0.  0.
        -24    2    5    5    0    0  0.76633289921E+02  0.53638527531E+02  0.42028618910E+03  0.43828775123E+03  0.81889678019E+02 0.  0.
          5    1    3    3  502    0 -0.91999801327E+01 -0.31242449672E+02  0.27280060900E+02  0.42743678114E+02  0.47000000000E+01 0. -1.
        -13    1    4    4    0    0 -0.71005498147E+02  0.11067742667E+02  0.19140647853E+03  0.20445223334E+03  0.00000000000E+00 0.  1.
         14    1    4    4    0    0 -0.53755377604E+02  0.37626541875E+02  0.48553514960E+03  0.48994875117E+03  0.00000000000E+00 0. -1.
         -5    1    5    5    0  501  0.57327565963E+02 -0.71090362401E+02  0.39193157774E+03  0.40245837185E+03  0.47000000000E+01 0.  1.
         13    1    6    6    0    0  0.77468688477E+02  0.14360852628E+02  0.33859233948E+03  0.34763832375E+03  0.00000000000E+00 0. -1.
        -14    1    6    6    0    0 -0.83539855604E+00  0.39277674902E+02  0.81693849616E+02  0.90649427476E+02  0.00000000000E+00 0.  1.
</event>
<event>
12    1  0.1345781E-002  0.1782268E+03  0.7818608E-02  0.1169530E+00
          2   -1    0    0  502    0  0.00000000000E+00  0.00000000000E+00  0.16050023490E+03  0.16050023490E+03  0.00000000000E+00 0. -1.
         -2   -1    0    0    0  501 -0.00000000000E+00 -0.00000000000E+00 -0.27856620390E+03  0.27856620390E+03  0.00000000000E+00 0.  1.
          6    2    1    2  502    0  0.39765190363E+02  0.24247343790E+02 -0.17708831408E+03  0.25103084207E+03  0.17171781690E+03 0.  0.
         24    2    3    3    0    0  0.18201959644E+02 -0.52066500841E+02 -0.91044224413E+02  0.13392212690E+03  0.81264096812E+02 0.  0.
         -6    2    1    2    0  501 -0.39765190363E+02 -0.24247343790E+02  0.59022345080E+02  0.18803559672E+03  0.17235006345E+03 0.  0.
        -24    2    5    5    0    0 -0.74804718352E+02 -0.72525306108E+02  0.51492693940E+02  0.12772543329E+03  0.52977569461E+02 0.  0.
          5    1    3    3  502    0  0.21563230719E+02  0.76313844631E+02 -0.86044089667E+02  0.11710871517E+03  0.47000000000E+01 0. -1.
        -11    1    4    4    0    0 -0.26156764190E+02 -0.14377321863E+02 -0.62131337696E+02  0.68928853325E+02  0.00000000000E+00 0.  1.
         12    1    4    4    0    0  0.44358723834E+02 -0.37689178978E+02 -0.28912886718E+02  0.64993273579E+02  0.00000000000E+00 0. -1.
         -5    1    5    5    0  501  0.35039527989E+02  0.48277962318E+02  0.75296511397E+01  0.60310163435E+02  0.47000000000E+01 0.  1.
         11    1    6    6    0    0 -0.25729501789E+02 -0.15813544390E+02 -0.88451580673E+01  0.31469227346E+02  0.00000000000E+00 0. -1.
        -12    1    6    6    0    0 -0.49075216563E+02 -0.56711761718E+02  0.60337852008E+02  0.96256205944E+02  0.00000000000E+00 0.  1.
</event>
<event>
12    1  0.1345781E-002  0.2147593E+03  0.7818608E-02  0.1137852E+00
         -1   -1    0    0    0  501 -0.00000000000E+00  0.00000000000E+00  0.47101322378E+02  0.47101322378E+02  0.00000000000E+00 0.  1.
          1   -1    0    0  502    0  0.00000000000E+00 -0.00000000000E+00 -0.98350950979E+03  0.98350950979E+03  0.00000000000E+00 0. -1.
          6    2    1    2  502    0  0.12026927828E+03 -0.46818273457E+02 -0.43716548215E+03  0.48766491705E+03  0.17334001995E+03 0.  0.
         24    2    3    3    0    0 -0.62625834210E+01  0.13863251801E+01 -0.17162135256E+03  0.18955458494E+03  0.80224124600E+02 0.  0.
         -6    2    1    2    0  501 -0.12026927828E+03  0.46818273457E+02 -0.49924270526E+03  0.54294591511E+03  0.16997157985E+03 0.  0.
        -24    2    5    5    0    0 -0.54571775565E+02 -0.74228106404E+01 -0.40164431509E+03  0.41330875674E+03  0.80453686982E+02 0.  0.
          5    1    3    3  502    0  0.12653186170E+03 -0.48204598637E+02 -0.26554412959E+03  0.29811033212E+03  0.47000000000E+01 0. -1.
        -13    1    4    4    0    0  0.18140139434E+02  0.27824535249E+02 -0.34904809870E+02  0.48183141996E+02  0.00000000000E+00 0.  1.
         14    1    4    4    0    0 -0.24402722855E+02 -0.26438210069E+02 -0.13671654269E+03  0.14137144294E+03  0.00000000000E+00 0. -1.
         -5    1    5    5    0  501 -0.65697502711E+02  0.54241084097E+02 -0.97598390163E+02  0.12963715836E+03  0.47000000000E+01 0.  1.
         13    1    6    6    0    0 -0.70320324996E+02 -0.23943244205E+02 -0.32207132733E+03  0.33052710470E+03  0.00000000000E+00 0. -1.
        -14    1    6    6    0    0  0.15748549431E+02  0.16520433565E+02 -0.79572987759E+02  0.82781652045E+02  0.00000000000E+00 0.  1.
</event>
<event>
12    1  0.1345781E-002  0.2675862E+03  0.7818608E-02  0.1102669E+00
          1   -1    0    0  502    0  0.00000000000E+00  0.00000000000E+00  0.67829804292E+03  0.67829804292E+03  0.00000000000E+00 0.  1.
         -1   -1    0    0    0  501 -0.00000000000E+00 -0.00000000000E+00 -0.10589077020E+03  0.10589077020E+03  0.00000000000E+00 0. -1.
          6    2    1    2  502    0 -0.86645359762E+02  0.18479782932E+03  0.30740643541E+03  0.40716483364E+03  0.17212445828E+03 0.  0.
         24    2    3    3    0    0 -0.74747385433E+02  0.21079214335E+03  0.28113493003E+03  0.36805539553E+03  0.80046398849E+02 0.  0.
         -6    2    1    2    0  501  0.86645359762E+02 -0.18479782932E+03  0.26500083732E+03  0.37702397948E+03  0.17396545989E+03 0.  0.
        -24    2    5    5    0    0  0.21497771828E+02 -0.15298833218E+03  0.10589067006E+03  0.20211203693E+03  0.75952995252E+02 0.  0.
          5    1    3    3  502    0 -0.11897974329E+02 -0.25994314028E+02  0.26271505374E+02  0.39109438113E+02  0.47000000000E+01 0. -1.
        -13    1    4    4    0    0  0.88879730825E+01  0.87546949480E+02  0.91908826841E+02  0.12724266926E+03  0.00000000000E+00 0.  1.
         14    1    4    4    0    0 -0.83635358516E+02  0.12324519387E+03  0.18922610319E+03  0.24081272627E+03  0.00000000000E+00 0. -1.
         -5    1    5    5    0  501  0.65147587934E+02 -0.31809497134E+02  0.15911016726E+03  0.17491194255E+03  0.47000000000E+01 0.  1.
         11    1    6    6    0    0  0.18653805580E+02 -0.27198672943E+02  0.59464485324E+02  0.67998215324E+02  0.00000000000E+00 0. -1.
        -12    1    6    6    0    0  0.28439662476E+01 -0.12578965924E+03  0.46426184735E+02  0.13411382160E+03  0.00000000000E+00 0.  1.
</event>
<event>
12    1  0.1345781E-002  0.2169586E+03  0.7818608E-02  0.1136171E+00
          2   -1    0    0  502    0  0.00000000000E+00  0.00000000000E+00  0.70644487217E+03  0.70644487217E+03  0.00000000000E+00 0.  1.
         -2   -1    0    0    0  501 -0.00000000000E+00 -0.00000000000E+00 -0.93135299692E+02  0.93135299692E+02  0.00000000000E+00 0. -1.
          6    2    1    2  502    0 -0.65718662165E+02  0.11784542372E+03  0.91711695357E+02  0.23401254052E+03  0.16776277182E+03 0.  0.
         24    2    3    3    0    0  0.22073208850E+02  0.28537271727E+02  0.45362539946E+02  0.10039482899E+03  0.81974137571E+02 0.  0.
         -6    2    1    2    0  501  0.65718662165E+02 -0.11784542372E+03  0.52159787712E+03  0.56556763134E+03  0.17203462953E+03 0.  0.
        -24    2    5    5    0    0  0.12882645771E+02 -0.11993900735E+03  0.25818151499E+03  0.29685533621E+03  0.83150874346E+02 0.  0.
          5    1    3    3  502    0 -0.87791871016E+02  0.89308151988E+02  0.46349155411E+02  0.13361771153E+03  0.47000000000E+01 0. -1.
        -11    1    4    4    0    0 -0.62405090019E+01  0.12980387482E+01  0.58592305957E+02  0.58937994321E+02  0.00000000000E+00 0.  1.
         12    1    4    4    0    0  0.28313717852E+02  0.27239232979E+02 -0.13229766011E+02  0.41456834667E+02  0.00000000000E+00 0. -1.
         -5    1    5    5    0  501  0.52836016394E+02  0.20935836305E+01  0.26341636213E+03  0.26871229513E+03  0.47000000000E+01 0.  1.
         11    1    6    6    0    0  0.11292134763E+02 -0.10579818026E+03  0.13047393022E+03  0.16835739877E+03  0.00000000000E+00 0. -1.
        -12    1    6    6    0    0  0.15905110081E+01 -0.14140827083E+02  0.12770758478E+03  0.12849793744E+03  0.00000000000E+00 0.  1.
</event>
<event>
12    1  0.1345781E-002  0.1981343E+03  0.7818608E-02  0.1151323E+00
          2   -1    0    0  502    0  0.00000000000E+00  0.00000000000E+00  0.19856764228E+04  0.19856764228E+04  0.00000000000E+00 0.  1.
         -2   -1    0    0    0  501 -0.00000000000E+00 -0.00000000000E+00 -0.21997306333E+02  0.21997306333E+02  0.00000000000E+00 0. -1.
          6    2    1    2  502    0  0.32696951619E+02  0.92296078294E+02  0.66052843732E+03  0.68948216955E+03  0.17175619027E+03 0.  0.
         24    2    3    3    0    0  0.63069149018E+02  0.55874514572E+02  0.23558441968E+03  0.26187427812E+03  0.77320371240E+02 0.  0.
         -6    2    1    2    0  501 -0.32696951619E+02 -0.92296078294E+02  0.13031506791E+04  0.13181915596E+04  0.17274153669E+03 0.  0.
        -24    2    5    5    0    0  0.79439856665E+01 -0.11247798939E+03  0.11373533834E+04  0.11462327604E+04  0.86962160909E+02 0.  0.
          5    1    3    3  502    0 -0.30372197399E+02  0.36421563722E+02  0.42494401764E+03  0.42760789143E+03  0.47000000000E+01 0. -1.
        -11    1    4    4    0    0 -0.99225153285E+01  0.37892968080E+02  0.82733274626E+02  0.91537577370E+02  0.00000000000E+00 0.  1.
         12    1    4    4    0    0  0.72991664347E+02  0.17981546491E+02  0.15285114505E+03  0.17033670075E+03  0.00000000000E+00 0. -1.
         -5    1    5    5    0  501 -0.40640937286E+02  0.20181911096E+02  0.16579729575E+03  0.17195879912E+03  0.47000000000E+01 0.  1.
         11    1    6    6    0    0  0.18552801324E+02 -0.65420713942E+02  0.30525943008E+03  0.31274173994E+03  0.00000000000E+00 0. -1.
        -12    1    6    6    0    0 -0.10608815658E+02 -0.47057275448E+02  0.83209395331E+03  0.83349102051E+03  0.00000000000E+00 0.  1.
</event>
<event>
12    1  0.1345781E-002  0.2079598E+03  0.7818608E-02  0.1143192E+00
          2   -1    0    0  502    0  0.00000000000E+00  0.00000000000E+00  0.49959505361E+03  0.49959505361E+03  0.00000000000E+00 0. -1.
         -2   -1    0    0    0  501 -0.00000000000E+00 -0.00000000000E+00 -0.10166568489E+03  0.10166568489E+03  0.00000000000E+00 0.  1.
          6    2    1    2  502    0 -0.96797471162E+02  0.64557082556E+02  0.83274263635E+02  0.22421061355E+03  0.17262221442E+03 0.  0.
         24    2    3    3    0    0 -0.12368329809E+03  0.82360056505E+02  0.90156393084E+02  0.19090524946E+03  0.78967727100E+02 0.  0.
         -6    2    1    2    0  501  0.96797471162E+02 -0.64557082556E+02  0.31465510509E+03  0.37705012495E+03  0.17210925086E+03 0.  0.
        -24    2    5    5    0    0 -0.85545024010E-01  0.17051643271E+02  0.11217315910E+03  0.13816242872E+03  0.78837004201E+02 0.  0.
          5    1    3    3  502    0  0.26885826931E+02 -0.17802973949E+02 -0.68821294492E+01  0.33305364087E+02  0.47000000000E+01 0. -1.
        -13    1    4    4    0    0 -0.78743515946E+02  0.99870624565E+01  0.23631835333E+02  0.82817548631E+02  0.00000000000E+00 0.  1.
         14    1    4    4    0    0 -0.44939782148E+02  0.72372994049E+02  0.66524557751E+02  0.10808770083E+03  0.00000000000E+00 0. -1.
         -5    1    5    5    0  501  0.96883016186E+02 -0.81608725827E+02  0.20248194599E+03  0.23888769623E+03  0.47000000000E+01 0.  1.
         11    1    6    6    0    0 -0.24822736207E+02  0.22520144650E+02  0.10723573491E+03  0.11235135953E+03  0.00000000000E+00 0. -1.
        -12    1    6    6    0    0  0.24737191183E+02 -0.54685013785E+01  0.49374241923E+01  0.25811069187E+02  0.00000000000E+00 0.  1.
</event>
<event>
12    1  0.1345781E-002  0.1754367E+03  0.7818608E-02  0.1172294E+00
          2   -1    0    0  502    0  0.00000000000E+00  0.00000000000E+00  0.17169868876E+04  0.17169868876E+04  0.00000000000E+00 0.  1.
         -2   -1    0    0    0  501 -0.00000000000E+00 -0.00000000000E+00 -0.18757467833E+02  0.18757467833E+02  0.00000000000E+00 0. -1.
          6    2    1    2  502    0 -0.12484918987E+02 -0.31475830433E+02  0.10295648828E+04  0.10443218013E+04  0.17163209426E+03 0.  0.
         24    2    3    3    0    0 -0.67843171621E+02 -0.40095031735E+02  0.80667696948E+03  0.81445240654E+03  0.79966755140E+02 0.  0.
         -6    2    1    2    0  501  0.12484918987E+02  0.31475830433E+02  0.66866453694E+03  0.69142255405E+03  0.17264496572E+03 0.  0.
        -24    2    5    5    0    0 -0.30342471834E+02 -0.38657959757E+02  0.40173121083E+03  0.41208686976E+03  0.77540434778E+02 0.  0.
          5    1    3    3  502    0  0.55358252634E+02  0.86192013021E+01  0.22288791331E+03  0.22986939480E+03  0.47000000000E+01 0. -1.
        -11    1    4    4    0    0 -0.12496975968E+02  0.14083317109E+02  0.40139733871E+03  0.40183869619E+03  0.00000000000E+00 0.  1.
         12    1    4    4    0    0 -0.55346195654E+02 -0.54178348844E+02  0.40527963077E+03  0.41261371036E+03  0.00000000000E+00 0. -1.
         -5    1    5    5    0  501  0.42827390821E+02  0.70133790190E+02  0.26693332611E+03  0.27933568429E+03  0.47000000000E+01 0.  1.
         13    1    6    6    0    0  0.14160024173E+02 -0.59397975484E+01  0.15120536155E+02  0.21550361786E+02  0.00000000000E+00 0. -1.
        -14    1    6    6    0    0 -0.44502496007E+02 -0.32718162209E+02  0.38661067467E+03  0.39053650797E+03  0.00000000000E+00 0.  1.
</event>
<event>
12    1  0.1345781E-002  0.1971693E+03  0.7818608E-02  0.1152149E+00
          2   -1    0    0  502    0  0.00000000000E+00  0.00000000000E+00  0.41079283936E+03  0.41079283936E+03  0.00000000000E+00 0.  1.
         -2   -1    0    0    0  501 -0.00000000000E+00 -0.00000000000E+00 -0.10079171529E+03  0.10079171529E+03  0.00000000000E+00 0. -1.
          6    2    1    2  502    0 -0.90370629659E+02 -0.53022148018E+02  0.89643467328E+02  0.21382052129E+03  0.16341684493E+03 0.  0.
         24    2    3    3    0    0 -0.10801726024E+03 -0.35146121728E+02  0.20891113886E+02  0.14047250162E+03  0.79956905200E+02 0.  0.
         -6    2    1    2    0  501  0.90370629659E+02  0.53022148018E+02  0.22035765674E+03  0.29776403336E+03  0.17066846162E+03 0.  0.
        -24    2    5    5    0    0  0.11298845075E+03  0.11975967909E+02  0.20449906506E+03  0.24806554583E+03  0.82503536953E+02 0.  0.
          5    1    3    3  502    0  0.17646630578E+02 -0.17876026291E+02  0.68752353442E+02  0.73348019677E+02  0.47000000000E+01 0. -1.
        -11    1    4    4    0    0 -0.11473124458E+02  0.40002615666E+00  0.34810934605E+02  0.36655064778E+02  0.00000000000E+00 0.  1.
         12    1    4    4    0    0 -0.96544135779E+02 -0.35546147884E+02 -0.13919820720E+02  0.10381743684E+03  0.00000000000E+00 0. -1.
         -5    1    5    5    0  501 -0.22617821088E+02  0.41046180109E+02  0.15858591683E+02  0.49698487527E+02  0.47000000000E+01 0.  1.
         11    1    6    6    0    0  0.90310976207E+02  0.33386360645E+02  0.99195481364E+02  0.13824060555E+03  0.00000000000E+00 0. -1.
        -12    1    6    6    0    0  0.22677474540E+02 -0.21410392735E+02  0.10530358369E+03  0.10982494028E+03  0.00000000000E+00 0.  1.
</event>
<event>
12    1  0.1345781E-002  0.2795048E+03  0.7818608E-02  0.1095960E+00
         -2   -1    0    0    0  501 -0.00000000000E+00  0.00000000000E+00  0.56507193709E+02  0.56507193709E+02  0.00000000000E+00 0. -1.
          2   -1    0    0  502    0  0.00000000000E+00 -0.00000000000E+00 -0.16336420764E+04  0.16336420764E+04  0.00000000000E+00 0.  1.
          6    2    1    2  502    0  0.10886354384E+03  0.18862629545E+03 -0.11145383230E+04  0.11485168731E+04  0.17165134374E+03 0.  0.
         24    2    3    3    0    0  0.14322090119E+02  0.11997051793E+03 -0.80018390971E+03  0.81311787277E+03  0.79172837622E+02 0.  0.
         -6    2    1    2    0  501 -0.10886354384E+03 -0.18862629545E+03 -0.46259655970E+03  0.54163239704E+03  0.17871464955E+03 0.  0.
        -24    2    5    5    0    0 -0.42606550040E+02 -0.41852096347E+02 -0.80971801178E+02  0.12739550700E+03  0.78142603893E+02 0.  0.
          5    1    3    3  502    0  0.94541453717E+02  0.68655777520E+02 -0.31435441331E+03  0.33539900033E+03  0.47000000000E+01 0. -1.
        -11    1    4    4    0    0 -0.13311302639E+02  0.18987741796E+02 -0.35631733678E+03  0.35707109881E+03  0.00000000000E+00 0.  1.
         12    1    4    4    0    0  0.27633392758E+02  0.10098277613E+03 -0.44386657293E+03  0.45604677396E+03  0.00000000000E+00 0. -1.
         -5    1    5    5    0  501 -0.66256993797E+02 -0.14677419910E+03 -0.38162475852E+03  0.41423689004E+03  0.47000000000E+01 0.  1.
         13    1    6    6    0    0  0.58168111801E+01 -0.48867468647E+02 -0.36432277197E+02  0.61230512051E+02  0.00000000000E+00 0. -1.
        -14    1    6    6    0    0 -0.48423361220E+02  0.70153723002E+01 -0.44539523981E+02  0.66164994951E+02  0.00000000000E+00 0.  1.
</event>
<event>
12    1  0.1345781E-002  0.1988385E+03  0.7818608E-02  0.1150723E+00
          2   -1    0    0  502    0  0.00000000000E+00  0.00000000000E+00  0.31872045425E+04  0.31872045425E+04  0.00000000000E+00 0.  1.
         -2   -1    0    0    0  501 -0.00000000000E+00 -0.00000000000E+00 -0.21116074209E+02  0.21116074209E+02  0.00000000000E+00 0. -1.
          6    2    1    2  502    0 -0.14278102954E+02  0.95758262744E+02  0.26236944444E+04  0.26313887724E+04  0.17624081545E+03 0.  0.
         24    2    3    3    0    0 -0.30586757535E+01 -0.22891687827E-01  0.18532936675E+04  0.18549614725E+04  0.78583015498E+02 0.  0.
         -6    2    1    2    0  501  0.14278102954E+02 -0.95758262744E+02  0.54239402389E+03  0.57693184427E+03  0.17113026229E+03 0.  0.
        -24    2    5    5    0    0  0.32828657406E+02 -0.53976099844E+02  0.14808282202E+03  0.17995163553E+03  0.80392343245E+02 0.  0.
          5    1    3    3  502    0 -0.11219427201E+02  0.95781154431E+02  0.77040077692E+03  0.77642729999E+03  0.47000000000E+01 0. -1.
        -11    1    4    4    0    0  0.20144055708E+02 -0.29154309690E+02  0.55279844100E+03  0.55393309444E+03  0.00000000000E+00 0.  1.
         12    1    4    4    0    0 -0.23202731462E+02  0.29131418002E+02  0.13004952265E+04  0.13010283780E+04  0.00000000000E+00 0. -1.
         -5    1    5    5    0  501 -0.18550554452E+02 -0.41782162900E+02  0.39431120187E+03  0.39698020874E+03  0.47000000000E+01 0.  1.
         13    1    6    6    0    0  0.12229581118E+02  0.16873089031E+02  0.93957918757E+01  0.22859236487E+02  0.00000000000E+00 0. -1.
        -14    1    6    6    0    0  0.20599076288E+02 -0.70849188875E+02  0.13868703014E+03  0.15709239905E+03  0.00000000000E+00 0.  1.
</event>
<event>
12    1  0.1345781E-002  0.1947145E+03  0.7818608E-02  0.1154277E+00
          1   -1    0    0  502    0  0.00000000000E+00  0.00000000000E+00  0.30509778428E+03  0.30509778428E+03  0.00000000000E+00 0. -1.
         -1   -1    0    0    0  501 -0.00000000000E+00 -0.00000000000E+00 -0.19210965915E+03  0.19210965915E+03  0.00000000000E+00 0.  1.
          6    2    1    2  502    0 -0.15696084119E+02  0.87080623800E+02 -0.91430591940E+02  0.21417473748E+03  0.17228425039E+03 0.  0.
         24    2    3    3    0    0  0.20819592005E+02  0.26645739722E+02 -0.11042728242E+03  0.14090309177E+03  0.80722027418E+02 0.  0.
         -6    2    1    2    0  501  0.15696084119E+02 -0.87080623800E+02  0.20441871708E+03  0.28303270595E+03  0.17461700562E+03 0.  0.
        -24    2    5    5    0    0 -0.42686394789E+02 -0.39506746448E+01  0.77389279163E+02  0.12031309931E+03  0.81537753254E+02 0.  0.
          5    1    3    3  502    0 -0.36515676124E+02  0.60434884077E+02  0.18996690478E+02  0.73271645712E+02  0.47000000000E+01 0. -1.
        -11    1    4    4    0    0 -0.17569842827E+02  0.40390608160E+01 -0.90184238534E+02  0.91968528689E+02  0.00000000000E+00 0.  1.
         12    1    4    4    0    0  0.38389434832E+02  0.22606678906E+02 -0.20243043885E+02  0.48934563078E+02  0.00000000000E+00 0. -1.
         -5    1    5    5    0  501  0.58382478908E+02 -0.83129949155E+02  0.12702943791E+03  0.16271960664E+03  0.47000000000E+01 0.  1.
         11    1    6    6    0    0 -0.43491743243E+01 -0.31562443746E+02  0.63538274402E+02  0.71078938417E+02  0.00000000000E+00 0. -1.
        -12    1    6    6    0    0 -0.38337220465E+02  0.27611769101E+02  0.13851004761E+02  0.49234160892E+02  0.00000000000E+00 0.  1.
</event>
<event>
12    1  0.1345781E-002  0.1752239E+03  0.7818608E-02  0.1172507E+00
          2   -1    0    0  502    0  0.00000000000E+00  0.00000000000E+00  0.36212443432E+03  0.36212443432E+03  0.00000000000E+00 0. -1.
         -2   -1    0    0    0  501 -0.00000000000E+00 -0.00000000000E+00 -0.84878000817E+02  0.84878000817E+02  0.00000000000E+00 0.  1.
          6    2    1    2  502    0 -0.25478982710E+02  0.13321688524E+02  0.14666622935E+03  0.22933546278E+03  0.17394575508E+03 0.  0.
         24    2    3    3    0    0  0.38001080723E+02 -0.21239503149E+02  0.12640806265E+03  0.15412457433E+03  0.76682380501E+02 0.  0.
         -6    2    1    2    0  501  0.25478982710E+02 -0.13321688524E+02  0.13058020415E+03  0.21766697236E+03  0.17175877035E+03 0.  0.
        -24    2    5    5    0    0  0.82824929082E+02 -0.16934085728E+02  0.96875417407E+02  0.15088591495E+03  0.78961893946E+02 0.  0.
          5    1    3    3  502    0 -0.63480063433E+02  0.34561191673E+02  0.20258166699E+02  0.75210888449E+02  0.47000000000E+01 0. -1.
        -13    1    4    4    0    0  0.11221780357E+01 -0.35507953589E+02  0.10114007065E+03  0.10719789151E+03  0.00000000000E+00 0.  1.
         14    1    4    4    0    0  0.36878902687E+02  0.14268450440E+02  0.25267991999E+02  0.46926682826E+02  0.00000000000E+00 0. -1.
         -5    1    5    5    0  501 -0.57345946372E+02  0.36123972040E+01  0.33704786746E+02  0.66781057407E+02  0.47000000000E+01 0.  1.
         13    1    6    6    0    0  0.33827567224E+02 -0.46800024671E+02  0.55947959803E+02  0.80403487609E+02  0.00000000000E+00 0. -1.
        -14    1    6    6    0    0  0.48997361858E+02  0.29865938943E+02  0.40927457604E+02  0.70482427341E+02  0.00000000000E+00 0.  1.
</event>
<event>
12    1  0.1345781E-002  0.2927868E+03  0.7818608E-02  0.1088903E+00
         -2   -1    0    0    0  501 -0.00000000000E+00  0.00000000000E+00  0.92107256233E+02  0.92107256233E+02  0.00000000000E+00 0. -1.
          2   -1    0    0  502    0  0.00000000000E+00 -0.00000000000E+00 -0.13904554873E+04  0.13904554873E+04  0.00000000000E+00 0.  1.
          6    2    1    2  502    0 -0.69973901469E+02 -0.22620713256E+03 -0.22297960503E+03  0.36805910262E+03  0.17228344393E+03 0.  0.
         24    2    3    3    0    0  0.29938338467E+02 -0.95342494158E+02 -0.97408696837E+02  0.16094041139E+03  0.80167739746E+02 0.  0.
         -6    2    1    2    0  501  0.69973901469E+02  0.22620713256E+03 -0.10753686260E+04  0.11145036409E+04  0.17214723362E+03 0.  0.
        -24    2    5    5    0    0  0.97342526181E+02  0.99626913732E+02 -0.66455268431E+03  0.68373291141E+03  0.80369985606E+02 0.  0.
          5    1    3    3  502    0 -0.99912239935E+02 -0.13086463840E+03 -0.12557090819E+03  0.20711869123E+03  0.47000000000E+01 0. -1.
        -13    1    4    4    0    0  0.18606471524E+02 -0.47356183981E+02 -0.99323226352E+02  0.11159709780E+03  0.00000000000E+00 0.  1.
         14    1    4    4    0    0  0.11331866942E+02 -0.47986310178E+02  0.19145295154E+01  0.49343313591E+02  0.00000000000E+00 0. -1.
         -5    1    5    5    0  501 -0.27368624712E+02  0.12658021882E+03 -0.41081594171E+03  0.43077072949E+03  0.47000000000E+01 0.  1.
         11    1    6    6    0    0  0.62587347690E+02  0.23157462653E+02 -0.18039590936E+03  0.19234377630E+03  0.00000000000E+00 0. -1.
        -12    1    6    6    0    0  0.34755178490E+02  0.76469451079E+02 -0.48415677494E+03  0.49138913511E+03  0.00000000000E+00 0.  1.
</event>
<event>
12    1  0.1345781E-002  0.1961243E+03  0.7818608E-02  0.1153051E+00
         -1   -1    0    0    0  501 -0.00000000000E+00  0.00000000000E+00  0.44355641175E+02  0.44355641175E+02  0.00000000000E+00 0. -1.
          1   -1    0    0  502    0  0.00000000000E+00 -0.00000000000E+00 -0.92036827916E+03  0.92036827916E+03  0.00000000000E+00 0.  1.
          6    2    1    2  502    0 -0.74876403344E+01 -0.87646286183E+02 -0.31399328050E+03  0.36811226125E+03  0.17081253013E+03 0.  0.
         24    2    3    3    0    0 -0.44122428475E+02 -0.37450892528E+02 -0.28048550084E+03  0.29735530722E+03  0.79991902753E+02 0.  0.
         -6    2    1    2    0  501  0.74876403344E+01  0.87646286183E+02 -0.56201935749E+03  0.59661165908E+03  0.17983819762E+03 0.  0.
        -24    2    5    5    0    0 -0.29662464031E+02 -0.16773490146E+02 -0.27174287782E+03  0.28586072250E+03  0.81920383749E+02 0.  0.
          5    1    3    3  502    0  0.36634788140E+02 -0.50195393655E+02 -0.33507779657E+02  0.70756954031E+02  0.47000000000E+01 0. -1.
        -11    1    4    4    0    0  0.16429343141E+02 -0.29424457893E+02 -0.14290827715E+03  0.14682812304E+03  0.00000000000E+00 0.  1.
         12    1    4    4    0    0 -0.60551771615E+02 -0.80264346352E+01 -0.13757722369E+03  0.15052718418E+03  0.00000000000E+00 0. -1.
         -5    1    5    5    0  501  0.37150104366E+02  0.10441977633E+03 -0.29027647967E+03  0.31075093659E+03  0.47000000000E+01 0.  1.
         13    1    6    6    0    0 -0.28219645251E+02 -0.23983673119E+02 -0.41983616953E+02  0.55983828440E+02  0.00000000000E+00 0. -1.
        -14    1    6    6    0    0 -0.14428187801E+01  0.72101829729E+01 -0.22975926087E+03  0.22987689406E+03  0.00000000000E+00 0.  1.
</event>
<event>
12    1  0.1345781E-002  0.1875640E+03  0.7818608E-02  0.1160677E+00
         -1   -1    0    0    0  501 -0.00000000000E+00  0.00000000000E+00  0.58246858421E+02  0.58246858421E+02  0.00000000000E+00 0.  1.
          1   -1    0    0  502    0  0.00000000000E+00 -0.00000000000E+00 -0.10419899183E+04  0.10419899183E+04  0.00000000000E+00 0. -1.
          6    2    1    2  502    0 -0.44853080425E+02 -0.41502359961E+02 -0.12714402150E+03  0.22213333157E+03  0.17159070513E+03 0.  0.
         24    2    3    3    0    0 -0.15706427555E+02 -0.27406619498E+02  0.67569131943E+01  0.84293687116E+02  0.77858558635E+02 0.  0.
         -6    2    1    2    0  501  0.44853080425E+02  0.41502359961E+02 -0.85659903837E+03  0.87810344514E+03  0.18321982185E+03 0.  0.
        -24    2    5    5    0    0  0.96131521152E+02  0.54949725443E+02 -0.68616474979E+03  0.69955304093E+03  0.79319931436E+02 0.  0.
          5    1    3    3  502    0 -0.29146652870E+02 -0.14095740463E+02 -0.13390093469E+03  0.13783964446E+03  0.47000000000E+01 0. -1.
        -11    1    4    4    0    0 -0.23937685780E+02 -0.52259222554E+02  0.82555020094E+01  0.58070581673E+02  0.00000000000E+00 0.  1.
         12    1    4    4    0    0  0.82312582252E+01  0.24852603056E+02 -0.14985888151E+01  0.26223105443E+02  0.00000000000E+00 0. -1.
         -5    1    5    5    0  501 -0.51278440727E+02 -0.13447365482E+02 -0.17043428858E+03  0.17855040421E+03  0.47000000000E+01 0.  1.
         11    1    6    6    0    0 -0.45219915623E+01  0.53722010914E+01 -0.21865854124E+03  0.21877126551E+03  0.00000000000E+00 0. -1.
        -12    1    6    6    0    0  0.10065351271E+03  0.49577524351E+02 -0.46750620855E+03  0.48078177542E+03  0.00000000000E+00 0.  1.
</event>
<event>
12    1  0.1345781E-002  0.1666086E+03  0.7818608E-02  0.1181431E+00
         -2   -1    0    0    0  501 -0.00000000000E+00  0.00000000000E+00  0.43362170976E+02  0.43362170976E+02  0.00000000000E+00 0. -1.
          2   -1    0    0  502    0  0.00000000000E+00 -0.00000000000E+00 -0.72383333259E+03  0.72383333259E+03  0.00000000000E+00 0.  1.
          6    2    1    2  502    0 -0.20743097912E+01 -0.21499497915E+02 -0.22307362974E+03  0.28264515326E+03  0.17222051912E+03 0.  0.
         24    2    3    3    0    0 -0.42744583839E+01 -0.34387071930E+02 -0.34479067574E+02  0.93539550237E+02  0.79750232899E+02 0.  0.
         -6    2    1    2    0  501  0.20743097912E+01  0.21499497915E+02 -0.45739753187E+03  0.48455035030E+03  0.15846137902E+03 0.  0.
        -24    2    5    5    0    0 -0.94187404042E+01 -0.52564149213E+01 -0.23429694479E+03  0.25950828527E+03  0.11105471273E+03 0.  0.
          5    1    3    3  502    0  0.22001485927E+01  0.12887574015E+02 -0.18859456216E+03  0.18910560302E+03  0.47000000000E+01 0. -1.
        -11    1    4    4    0    0 -0.14654262879E+02  0.15472143258E+02 -0.36836760752E+02  0.42556804159E+02  0.00000000000E+00 0.  1.
         12    1    4    4    0    0  0.10379804495E+02 -0.49859215188E+02  0.23576931777E+01  0.50982746078E+02  0.00000000000E+00 0. -1.
         -5    1    5    5    0  501  0.11493050195E+02  0.26755912837E+02 -0.22310058709E+03  0.22504206503E+03  0.47000000000E+01 0.  1.
         13    1    6    6    0    0 -0.55059121653E+02 -0.26649420689E+02 -0.12930706648E+03  0.14304550305E+03  0.00000000000E+00 0. -1.
        -14    1    6    6    0    0  0.45640381249E+02  0.21393005767E+02 -0.10498987830E+03  0.11646278222E+03  0.00000000000E+00 0.  1.
</event>
<event>
12    1  0.1345781E-002  0.2423880E+03  0.7818608E-02  0.1118212E+00
          2   -1    0    0  502    0  0.00000000000E+00  0.00000000000E+00  0.58996438695E+03  0.58996438695E+03  0.00000000000E+00 0. -1.
         -2   -1    0    0    0  501 -0.00000000000E+00 -0.00000000000E+00 -0.10103197904E+03  0.10103197904E+03  0.00000000000E+00 0.  1.
          6    2    1    2  502    0  0.16404311614E+03 -0.47783514665E+02  0.20247288368E+03  0.31531560578E+03  0.17098319917E+03 0.  0.
         24    2    3    3    0    0  0.90910331940E+02 -0.95019833453E+02  0.13833404760E+03  0.20707719194E+03  0.80319346947E+02 0.  0.
         -6    2    1    2    0  501 -0.16404311614E+03  0.47783514665E+02  0.28645952424E+03  0.37568076021E+03  0.17286863897E+03 0.  0.
        -24    2    5    5    0    0 -0.13848783552E+03  0.51715110953E+02  0.30179208359E+03  0.34525532360E+03  0.79179817315E+02 0.  0.
          5    1    3    3  502    0  0.73132784199E+02  0.47236318788E+02  0.64138836074E+02  0.10823841384E+03  0.47000000000E+01 0. -1.
        -13    1    4    4    0    0 -0.88620623624E+01 -0.31111893432E+02  0.13759671959E+02  0.35154155297E+02  0.00000000000E+00 0.  1.
         14    1    4    4    0    0  0.99772394302E+02 -0.63907940021E+02  0.12457437564E+03  0.17192303665E+03  0.00000000000E+00 0. -1.
         -5    1    5    5    0  501 -0.25555280621E+02 -0.39315962883E+01 -0.15332559349E+02  0.30425436615E+02  0.47000000000E+01 0.  1.
         11    1    6    6    0    0 -0.13757959686E+03  0.23626365625E+02  0.25176453137E+03  0.28787450370E+03  0.00000000000E+00 0. -1.
        -12    1    6    6    0    0 -0.90823866156E+00  0.28088745328E+02  0.50027552218E+02  0.57380819901E+02  0.00000000000E+00 0.  1.
</event>
<event>
12    1  0.1345781E-002  0.2126566E+03  0.7818608E-02  0.1139479E+00
          3   -1    0    0  502    0  0.00000000000E+00  0.00000000000E+00  0.38015433708E+03  0.38015433708E+03  0.00000000000E+00 0.  1.
         -3   -1    0    0    0  501 -0.00000000000E+00 -0.00000000000E+00 -0.16063544615E+03  0.16063544615E+03  0.00000000000E+00 0. -1.
          6    2    1    2  502    0 -0.10891748295E+03  0.61093675548E+02  0.24751116729E+03  0.32636024604E+03  0.17220272060E+03 0.  0.
         24    2    3    3    0    0 -0.10634284112E+03  0.10416099196E+03  0.15701012619E+03  0.22599117231E+03  0.65280304289E+02 0.  0.
         -6    2    1    2    0  501  0.10891748295E+03 -0.61093675548E+02 -0.27992276346E+02  0.21442953719E+03  0.17204942197E+03 0.  0.
        -24    2    5    5    0    0  0.10256259050E+03  0.40867455801E+01  0.22074377704E+02  0.13186058537E+03  0.79775618862E+02 0.  0.
          5    1    3    3  502    0 -0.25746418270E+01 -0.43067316415E+02  0.90501041091E+02  0.10036907373E+03  0.47000000000E+01 0. -1.
        -11    1    4    4    0    0 -0.35856764087E+02  0.61869180472E+02  0.11028405858E+03  0.13143848980E+03  0.00000000000E+00 0.  1.
         12    1    4    4    0    0 -0.70486077036E+02  0.42291811491E+02  0.46726067614E+02  0.94552682510E+02  0.00000000000E+00 0. -1.
         -5    1    5    5    0  501  0.63548924525E+01 -0.65180421128E+02 -0.50066654050E+02  0.82568951818E+02  0.47000000000E+01 0.  1.
         13    1    6    6    0    0  0.46253611681E+02  0.27868733165E+02 -0.20075689315E+02  0.57611597645E+02  0.00000000000E+00 0. -1.
        -14    1    6    6    0    0  0.56308978817E+02 -0.23781987585E+02  0.42150067019E+02  0.74248987728E+02  0.00000000000E+00 0.  1.
</event>
<event>
12    1  0.1345781E-002  0.2093010E+03  0.7818608E-02  0.1142121E+00
         -1   -1    0    0    0  501 -0.00000000000E+00  0.00000000000E+00  0.32919344737E+03  0.32919344737E+03  0.00000000000E+00 0.  1.
          1   -1    0    0  502    0  0.00000000000E+00 -0.00000000000E+00 -0.16704691142E+03  0.16704691142E+03  0.00000000000E+00 0. -1.
          6    2    1    2  502    0 -0.26952690043E+02  0.11668081765E+03 -0.31076200189E+02  0.21076992549E+03  0.17063812753E+03 0.  0.
         24    2    3    3    0    0 -0.20222242715E+01  0.27864727244E+02 -0.76697291292E+02  0.10774953920E+03  0.70334602367E+02 0.  0.
         -6    2    1    2    0  501  0.26952690043E+02 -0.11668081765E+03  0.19322273614E+03  0.28547043330E+03  0.17267739233E+03 0.  0.
        -24    2    5    5    0    0 -0.37803112539E+02 -0.10315045887E+03  0.93999557254E+02  0.16612340232E+03  0.81804495908E+02 0.  0.
          5    1    3    3  502    0 -0.24930465771E+02  0.88816090410E+02  0.45621091103E+02  0.10302038630E+03  0.47000000000E+01 0. -1.
        -13    1    4    4    0    0  0.83513051804E+01 -0.67762883743E+01 -0.70188351994E+02  0.71007514659E+02  0.00000000000E+00 0.  1.
         14    1    4    4    0    0 -0.10373529452E+02  0.34641015618E+02 -0.65089392981E+01  0.36742024538E+02  0.00000000000E+00 0. -1.
         -5    1    5    5    0  501  0.64755802582E+02 -0.13530358780E+02  0.99223178882E+02  0.11934703098E+03  0.47000000000E+01 0.  1.
         13    1    6    6    0    0 -0.48388580466E+01  0.14220183121E+02  0.11558864437E+02  0.18953508970E+02  0.00000000000E+00 0. -1.
        -14    1    6    6    0    0 -0.32964254493E+02 -0.11737064199E+03  0.82440692817E+02  0.14716989335E+03  0.00000000000E+00 0.  1.
</event>
<event>
12    1  0.1345781E-002  0.2573747E+03  0.7818608E-02  0.1108731E+00
          1   -1    0    0  502    0  0.00000000000E+00  0.00000000000E+00  0.10400116848E+04  0.10400116848E+04  0.00000000000E+00 0.  1.
         -1   -1    0    0    0  501 -0.00000000000E+00 -0.00000000000E+00 -0.67952668785E+02  0.67952668785E+02  0.00000000000E+00 0. -1.
          6    2    1    2  502    0 -0.19046844398E+03  0.19174790783E+02  0.34763143974E+03  0.43263874345E+03  0.17228686451E+03 0.  0.
         24    2    3    3    0    0 -0.86794224181E+02 -0.54762210021E+02  0.17468285268E+03  0.21781712512E+03  0.79987898925E+02 0.  0.
         -6    2    1    2    0  501  0.19046844398E+03 -0.19174790783E+02  0.62442757631E+03  0.67532561017E+03  0.17178178292E+03 0.  0.
        -24    2    5    5    0    0  0.89376819802E+02  0.53458898664E+02  0.35443200947E+03  0.37797923734E+03  0.80001154737E+02 0.  0.
          5    1    3    3  502    0 -0.10367421980E+03  0.73937000804E+02  0.17294858706E+03  0.21482161833E+03  0.47000000000E+01 0. -1.
        -11    1    4    4    0    0  0.86641763991E+01 -0.30006256850E+02  0.36228339934E+02  0.47832374154E+02  0.00000000000E+00 0.  1.
         12    1    4    4    0    0 -0.95458400580E+02 -0.24755953170E+02  0.13845451275E+03  0.16998475096E+03  0.00000000000E+00 0. -1.
         -5    1    5    5    0  501  0.10109162418E+03 -0.72633689447E+02  0.26999556683E+03  0.29734637282E+03  0.47000000000E+01 0.  1.
         11    1    6    6    0    0  0.46801239358E+02 -0.55185565753E+01  0.69938311916E+02  0.84333729586E+02  0.00000000000E+00 0. -1.
        -12    1    6    6    0    0  0.42575580444E+02  0.58977455239E+02  0.28449369756E+03  0.29364550776E+03  0.00000000000E+00 0.  1.
</event>
<event>
12    1  0.1345781E-002  0.2562678E+03  0.7818608E-02  0.1109407E+00
         -1   -1    0    0    0  501 -0.00000000000E+00  0.00000000000E+00  0.15694346163E+03  0.15694346163E+03  0.00000000000E+00 0.  1.
          1   -1    0    0  502    0  0.00000000000E+00 -0.00000000000E+00 -0.55935728523E+03  0.55935728523E+03  0.00000000000E+00 0. -1.
          6    2    1    2  502    0  0.16738116439E+03  0.89816009401E+02 -0.38099542455E+03  0.45919308099E+03  0.17209707252E+03 0.  0.
         24    2    3    3    0    0  0.17868745749E+03  0.97725756046E+02 -0.27109800280E+03  0.34833312582E+03  0.79764080652E+02 0.  0.
         -6    2    1    2    0  501 -0.16738116439E+03 -0.89816009401E+02 -0.21418399051E+02  0.25710766586E+03  0.17193671594E+03 0.  0.
        -24    2    5    5    0    0 -0.12583518259E+03 -0.53194393603E+02 -0.79459284558E+02  0.17674569887E+03  0.79127286569E+02 0.  0.
          5    1    3    3  502    0 -0.11306293091E+02 -0.79097466453E+01 -0.10989742174E+03  0.11085995518E+03  0.47000000000E+01 0. -1.
        -13    1    4    4    0    0  0.11464818130E+03  0.96439626625E+02 -0.15393139646E+03  0.21480149412E+03  0.00000000000E+00 0.  1.
         14    1    4    4    0    0  0.64039276188E+02  0.12861294206E+01 -0.11716660634E+03  0.13353163170E+03  0.00000000000E+00 0. -1.
         -5    1    5    5    0  501 -0.41545981805E+02 -0.36621615797E+02  0.58040885507E+02  0.80361966988E+02  0.47000000000E+01 0.  1.
         11    1    6    6    0    0 -0.58333061109E+02  0.72321120244E+01 -0.41343578413E+01  0.58924887590E+02  0.00000000000E+00 0. -1.
        -12    1    6    6    0    0 -0.67502121480E+02 -0.60426505628E+02 -0.75324926717E+02  0.11782081128E+03  0.00000000000E+00 0.  1.
</event>
<event>
12    1  0.1345781E-002  0.1766993E+03  0.7818608E-02  0.1171036E+00
          1   -1    0    0  502    0  0.00000000000E+00  0.00000000000E+00  0.11723526544E+04  0.11723526544E+04  0.00000000000E+00 0.  1.
         -1   -1    0    0    0  501 -0.00000000000E+00 -0.00000000000E+00 -0.29518495980E+02  0.29518495980E+02  0.00000000000E+00 0. -1.
          6    2    1    2  502    0 -0.24607732241E+02  0.31436060522E+02  0.75999593917E+03  0.78031965134E+03  0.17236926731E+03 0.  0.
         24    2    3    3    0    0 -0.38818888267E+02  0.62173382022E+02  0.71821430087E+03  0.72633321612E+03  0.79722790587E+02 0.  0.
         -6    2    1    2    0  501  0.24607732241E+02 -0.31436060522E+02  0.38283821926E+03  0.42155149906E+03  0.17189182018E+03 0.  0.
        -24    2    5    5    0    0  0.31450063491E+02  0.33320420876E+02  0.70930002189E+02  0.10288388970E+03  0.58776463040E+02 0.  0.
          5    1    3    3  502    0  0.14211156027E+02 -0.30737321499E+02  0.41781638302E+02  0.53986435220E+02  0.47000000000E+01 0. -1.
        -11    1    4    4    0    0 -0.54763583390E+01  0.71137820464E+02  0.55029812668E+03  0.55490414328E+03  0.00000000000E+00 0.  1.
         12    1    4    4    0    0 -0.33342529928E+02 -0.89644384420E+01  0.16791617419E+03  0.17142907284E+03  0.00000000000E+00 0. -1.
         -5    1    5    5    0  501 -0.68423312503E+01 -0.64756481399E+02  0.31190821707E+03  0.31866760936E+03  0.47000000000E+01 0.  1.
         13    1    6    6    0    0  0.35618410747E+02  0.52973398527E+01  0.64439437933E+02  0.73818521759E+02  0.00000000000E+00 0. -1.
        -14    1    6    6    0    0 -0.41683472564E+01  0.28023081024E+02  0.64905642563E+01  0.29065367936E+02  0.00000000000E+00 0.  1.
</event>
<event>
12    1  0.1345781E-002  0.1729460E+03  0.7818608E-02  0.1174810E+00
         -1   -1    0    0    0  501 -0.00000000000E+00  0.00000000000E+00  0.85696147061E+02  0.85696147061E+02  0.00000000000E+00 0. -1.
          1   -1    0    0  502    0  0.00000000000E+00 -0.00000000000E+00 -0.38072456122E+03  0.38072456122E+03  0.00000000000E+00 0.  1.
          6    2    1    2  502    0  0.53645859869E+01  0.13261608402E+02 -0.21507618842E+03  0.27620538367E+03  0.17270494522E+03 0.  0.
         24    2    3    3    0    0 -0.54351181410E+02  0.38324053195E+02 -0.15435873136E+03  0.18730769750E+03  0.82672677596E+02 0.  0.
         -6    2    1    2    0  501 -0.53645859869E+01 -0.13261608402E+02 -0.79952225736E+02  0.19021532461E+03  0.17200250660E+03 0.  0.
        -24    2    5    5    0    0  0.13601875526E+02  0.57276421400E+02 -0.48870605453E+02  0.11069490314E+03  0.79996412660E+02 0.  0.
          5    1    3    3  502    0  0.59715767396E+02 -0.25062444794E+02 -0.60717457059E+02  0.88897686171E+02  0.47000000000E+01 0. -1.
        -13    1    4    4    0    0 -0.60886641673E+01  0.35261681840E+02 -0.12657327722E+03  0.13153422575E+03  0.00000000000E+00 0.  1.
         14    1    4    4    0    0 -0.48262517242E+02  0.30623713553E+01 -0.27785454139E+02  0.55773471746E+02  0.00000000000E+00 0. -1.
         -5    1    5    5    0  501 -0.18966461513E+02 -0.70538029802E+02 -0.31081620283E+02  0.79520421465E+02  0.47000000000E+01 0.  1.
         11    1    6    6    0    0  0.38538000479E+02  0.31573748687E+02  0.35444479603E+00  0.49821729378E+02  0.00000000000E+00 0. -1.
        -12    1    6    6    0    0 -0.24936124954E+02  0.25702672714E+02 -0.49225050249E+02  0.60873173766E+02  0.00000000000E+00 0.  1.
</event>
<event>
12    1  0.1345781E-002  0.2039819E+03  0.7818608E-02  0.1146422E+00
         -1   -1    0    0    0  501 -0.00000000000E+00  0.00000000000E+00  0.57460157091E+02  0.57460157091E+02  0.00000000000E+00 0. -1.
          1   -1    0    0  502    0  0.00000000000E+00 -0.00000000000E+00 -0.73139490508E+03  0.73139490508E+03  0.00000000000E+00 0.  1.
          6    2    1    2  502    0  0.10424589833E+03  0.30382685747E+02 -0.29729318207E+03  0.36041759025E+03  0.17241603273E+03 0.  0.
         24    2    3    3    0    0  0.13251104619E+03  0.17588703340E+02 -0.28799948030E+03  0.32769042322E+03  0.81047967060E+02 0.  0.
         -6    2    1    2    0  501 -0.10424589833E+03 -0.30382685747E+02 -0.37664156592E+03  0.42843747192E+03  0.17294358403E+03 0.  0.
        -24    2    5    5    0    0 -0.94929430722E+01 -0.20919213487E+02 -0.73944632228E+02  0.11108088462E+03  0.79645620290E+02 0.  0.
          5    1    3    3  502    0 -0.28265147859E+02  0.12793982407E+02 -0.92937017645E+01  0.32727167030E+02  0.47000000000E+01 0. -1.
        -11    1    4    4    0    0  0.43577183724E+02  0.42886026583E+02 -0.85825671899E+02  0.10537660165E+03  0.00000000000E+00 0.  1.
         12    1    4    4    0    0  0.88933862469E+02 -0.25297323243E+02 -0.20217380840E+03  0.22231382157E+03  0.00000000000E+00 0. -1.
         -5    1    5    5    0  501 -0.94752955262E+02 -0.94634722608E+01 -0.30269693369E+03  0.31735658730E+03  0.47000000000E+01 0.  1.
         11    1    6    6    0    0  0.16280424083E+01 -0.12552692046E+02  0.15810524090E+02  0.20253228673E+02  0.00000000000E+00 0. -1.
        -12    1    6    6    0    0 -0.11120985481E+02 -0.83665214406E+01 -0.89755156318E+02  0.90827655947E+02  0.00000000000E+00 0.  1.
</event>
<event>
12    1  0.1345781E-002  0.1779975E+03  0.7818608E-02  0.1169755E+00
         -2   -1    0    0    0  501 -0.00000000000E+00  0.00000000000E+00  0.37324008186E+02  0.37324008186E+02  0.00000000000E+00 0.  1.
          2   -1    0    0  502    0  0.00000000000E+00 -0.00000000000E+00 -0.85819268932E+03  0.85819268932E+03  0.00000000000E+00 0. -1.
          6    2    1    2  502    0 -0.15721362698E+02  0.44964518615E+02 -0.36483645029E+03  0.40614697453E+03  0.17199058194E+03 0.  0.
         24    2    3    3    0    0 -0.24164379527E+02  0.17145917373E+02 -0.36670174692E+03  0.37663886649E+03  0.80676916374E+02 0.  0.
         -6    2    1    2    0  501  0.15721362698E+02 -0.44964518615E+02 -0.45603223084E+03  0.48936972298E+03  0.17102152211E+03 0.  0.
        -24    2    5    5    0    0  0.75084606692E+02 -0.40945466622E+02 -0.28009326940E+03  0.30358286750E+03  0.79975549243E+02 0.  0.
          5    1    3    3  502    0  0.84430168289E+01  0.27818601242E+02  0.18652966299E+01  0.29508108035E+02  0.47000000000E+01 0. -1.
        -13    1    4    4    0    0 -0.41414912860E+02  0.35438287353E+02 -0.17491959355E+03  0.18321553271E+03  0.00000000000E+00 0.  1.
         14    1    4    4    0    0  0.17250533333E+02 -0.18292369981E+02 -0.19178215337E+03  0.19342333378E+03  0.00000000000E+00 0. -1.
         -5    1    5    5    0  501 -0.59363243994E+02 -0.40190519928E+01 -0.17593896144E+03  0.18578685548E+03  0.47000000000E+01 0.  1.
         13    1    6    6    0    0  0.67955777076E+02  0.38494373722E+01 -0.20333199748E+03  0.21442179694E+03  0.00000000000E+00 0. -1.
        -14    1    6    6    0    0  0.71288296161E+01 -0.44794903995E+02 -0.76761271925E+02  0.89161070558E+02  0.00000000000E+00 0.  1.
</event>
<event>
12    1  0.1345781E-002  0.2016781E+03  0.7818608E-02  0.1148331E+00
         -2   -1    0    0    0  501 -0.00000000000E+00  0.00000000000E+00  0.41789914840E+03  0.41789914840E+03  0.00000000000E+00 0.  1.
          2   -1    0    0  502    0  0.00000000000E+00 -0.00000000000E+00 -0.97655231336E+02  0.97655231336E+02  0.00000000000E+00 0. -1.
          6    2    1    2  502    0 -0.34901886917E+02 -0.10018293148E+03  0.17488543327E+03  0.26683266717E+03  0.17134758834E+03 0.  0.
         24    2    3    3    0    0  0.10322940885E+02 -0.12532870578E+03  0.11846146245E+03  0.19012967181E+03  0.79387193018E+02 0.  0.
         -6    2    1    2    0  501  0.34901886917E+02  0.10018293148E+03  0.14535848379E+03  0.24872171256E+03  0.17169344780E+03 0.  0.
        -24    2    5    5    0    0  0.87706258246E+02  0.85605570992E+02  0.12034041717E+03  0.18831645842E+03  0.77204734225E+02 0.  0.
          5    1    3    3  502    0 -0.45224827801E+02  0.25145774298E+02  0.56423970821E+02  0.76702995365E+02  0.47000000000E+01 0. -1.
        -13    1    4    4    0    0  0.16039856187E+02  0.35038645197E+01  0.23215473068E+01  0.16581424396E+02  0.00000000000E+00 0.  1.
         14    1    4    4    0    0 -0.57169153026E+01 -0.12883257030E+03  0.11613991514E+03  0.17354824741E+03  0.00000000000E+00 0. -1.
         -5    1    5    5    0  501 -0.52804371330E+02  0.14577360492E+02  0.25018066623E+02  0.60405254142E+02  0.47000000000E+01 0.  1.
         13    1    6    6    0    0 -0.42181413637E+01  0.31599481872E+01 -0.84090322022E+01  0.99242033276E+01  0.00000000000E+00 0. -1.
        -14    1    6    6    0    0  0.91924399610E+02  0.82445622805E+02  0.12874944937E+03  0.17839225509E+03  0.00000000000E+00 0.  1.
</event>
<event>
12    1  0.1345781E-002  0.2963851E+03  0.7818608E-02  0.1087062E+00
          1   -1    0    0  502    0  0.00000000000E+00  0.00000000000E+00  0.22918816805E+04  0.22918816805E+04  0.00000000000E+00 0. -1.
         -1   -1    0    0    0  501 -0.00000000000E+00 -0.00000000000E+00 -0.38363450072E+02  0.38363450072E+02  0.00000000000E+00 0.  1.
          6    2    1    2  502    0  0.22617394192E+03  0.83704313973E+02  0.10925779476E+04  0.11321357628E+04  0.17275343617E+03 0.  0.
         24    2    3    3    0    0  0.15486123513E+03 -0.81491378336E+00  0.80982425713E+03  0.82849001284E+03  0.81226274736E+02 0.  0.
         -6    2    1    2    0  501 -0.22617394192E+03 -0.83704313973E+02  0.11609402828E+04  0.11981093677E+04  0.17182157200E+03 0.  0.
        -24    2    5    5    0    0 -0.18965706391E+03 -0.33257259168E+01  0.84873201092E+03  0.87362470733E+03  0.83025541559E+02 0.  0.
          5    1    3    3  502    0  0.71312706791E+02  0.84519227756E+02  0.28275369044E+03  0.30364574996E+03  0.47000000000E+01 0. -1.
        -13    1    4    4    0    0  0.48270005344E+02 -0.55515599441E+01  0.10576221565E+03  0.11638925849E+03  0.00000000000E+00 0.  1.
         14    1    4    4    0    0  0.10659122978E+03  0.47366461608E+01  0.70406204149E+03  0.71210075435E+03  0.00000000000E+00 0. -1.
         -5    1    5    5    0  501 -0.36516878011E+02 -0.80378588056E+02  0.31220827189E+03  0.32448466040E+03  0.47000000000E+01 0.  1.
         13    1    6    6    0    0 -0.87196184867E+02 -0.41918402455E+02  0.43721390071E+03  0.44779048906E+03  0.00000000000E+00 0. -1.
        -14    1    6    6    0    0 -0.10246087904E+03  0.38592676539E+02  0.41151811021E+03  0.42583421827E+03  0.00000000000E+00 0.  1.
</event>
<event>
12    1  0.1345781E-002  0.1796264E+03  0.7818608E-02  0.1168165E+00
         -2   -1    0    0    0  501 -0.00000000000E+00  0.00000000000E+00  0.19152259947E+02  0.19152259947E+02  0.00000000000E+00 0. -1.
          2   -1    0    0  502    0  0.00000000000E+00 -0.00000000000E+00 -0.17553850478E+04  0.17553850478E+04  0.00000000000E+00 0.  1.
          6    2    1    2  502    0 -0.51949703063E+02  0.87330266456E+01 -0.10474677019E+04  0.10628053005E+04  0.17202175121E+03 0.  0.
         24    2    3    3    0    0 -0.21175466005E+02 -0.57069011980E+02 -0.72443269562E+03  0.73166987922E+03  0.82660808094E+02 0.  0.
         -6    2    1    2    0  501  0.51949703063E+02 -0.87330266456E+01 -0.68876508593E+03  0.71173200720E+03  0.17143532039E+03 0.  0.
        -24    2    5    5    0    0 -0.15544115817E+02 -0.89507365114E+01 -0.56181468158E+03  0.56787805992E+03  0.80796158802E+02 0.  0.
          5    1    3    3  502    0 -0.30774237058E+02  0.65802038626E+02 -0.32303500627E+03  0.33113542128E+03  0.47000000000E+01 0. -1.
        -13    1    4    4    0    0  0.10385406116E+02  0.78857435840E+01 -0.35530908615E+03  0.35554829251E+03  0.00000000000E+00 0.  1.
         14    1    4    4    0    0 -0.31560872120E+02 -0.64954755564E+02 -0.36912360947E+03  0.37612158671E+03  0.00000000000E+00 0. -1.
         -5    1    5    5    0  501  0.67493818880E+02  0.21770986570E+00 -0.12695040435E+03  0.14385394728E+03  0.47000000000E+01 0.  1.
         13    1    6    6    0    0 -0.24587515902E+02  0.13509659042E+02 -0.69226280817E+02  0.74694944818E+02  0.00000000000E+00 0. -1.
        -14    1    6    6    0    0  0.90434000843E+01 -0.22460395554E+02 -0.49258840077E+03  0.49318311510E+03  0.00000000000E+00 0.  1.
</event>
<event>
12    1  0.1345781E-002  0.1768503E+03  0.7818608E-02  0.1170887E+00
          2   -1    0    0  502    0  0.00000000000E+00  0.00000000000E+00  0.13342660231E+04  0.13342660231E+04  0.00000000000E+00 0. -1.
         -2   -1    0    0    0  501 -0.00000000000E+00 -0.00000000000E+00 -0.31391989674E+02  0.31391989674E+02  0.00000000000E+00 0.  1.
          6    2    1    2  502    0  0.23704594952E+02 -0.23416107367E+02  0.31355870776E+03  0.36101996792E+03  0.17580139965E+03 0.  0.
         24    2    3    3    0    0  0.81579434177E+02 -0.99370334081E+01  0.25944339808E+03  0.28051071881E+03  0.67981158039E+02 0.  0.
         -6    2    1    2    0  501 -0.23704594952E+02  0.23416107367E+02  0.98931532564E+03  0.10046380448E+04  0.17158836110E+03 0.  0.
        -24    2    5    5    0    0 -0.28066536792E+02  0.60060139613E+02  0.92032158843E+03  0.92625413443E+03  0.80993484622E+02 0.  0.
          5    1    3    3  502    0 -0.57874839225E+02 -0.13479073959E+02  0.54115309683E+02  0.80509249110E+02  0.47000000000E+01 0. -1.
        -13    1    4    4    0    0  0.86398205574E+01 -0.18241262850E+02  0.14632349853E+02  0.24929818127E+02  0.00000000000E+00 0.  1.
         14    1    4    4    0    0  0.72939613620E+02  0.83042294420E+01  0.24481104822E+03  0.25558090068E+03  0.00000000000E+00 0. -1.
         -5    1    5    5    0  501  0.43619418404E+01 -0.36644032246E+02  0.68993737206E+02  0.78383910399E+02  0.47000000000E+01 0.  1.
         11    1    6    6    0    0 -0.12004793690E+02  0.23415831797E+02  0.77720031176E+03  0.77764563964E+03  0.00000000000E+00 0. -1.
        -12    1    6    6    0    0 -0.16061743102E+02  0.36644307815E+02  0.14312127667E+03  0.14860849478E+03  0.00000000000E+00 0.  1.
</event>
<event>
12    1  0.1345781E-002  0.2062963E+03  0.7818608E-02  0.1144533E+00
          2   -1    0    0  502    0  0.00000000000E+00  0.00000000000E+00  0.57061562720E+03  0.57061562720E+03  0.00000000000E+00 0.  1.
         -2   -1    0    0    0  501 -0.00000000000E+00 -0.00000000000E+00 -0.76423335791E+02  0.76423335791E+02  0.00000000000E+00 0. -1.
          6    2    1    2  502    0 -0.89745663947E+02 -0.74118994654E+02  0.29760189065E+03  0.36225928311E+03  0.17063702212E+03 0.  0.
         24    2    3    3    0    0 -0.80356431476E+02  0.13571611454E+02  0.20301992203E+03  0.23285434165E+03  0.79766603095E+02 0.  0.
         -6    2    1    2    0  501  0.89745663947E+02  0.74118994654E+02  0.19659040076E+03  0.28477967988E+03  0.17001109033E+03 0.  0.
        -24    2    5    5    0    0  0.10020570046E+03 -0.60176722690E+00  0.10002004666E+03  0.16213984984E+03  0.79017571755E+02 0.  0.
          5    1    3    3  502    0 -0.93892324708E+01 -0.87690606108E+02  0.94581968621E+02  0.12940494146E+03  0.47000000000E+01 0. -1.
        -11    1    4    4    0    0 -0.55361975069E+02 -0.70588854286E+01  0.45419937508E+02  0.71956562385E+02  0.00000000000E+00 0.  1.
         12    1    4    4    0    0 -0.24994456407E+02  0.20630496883E+02  0.15759998452E+03  0.16089777927E+03  0.00000000000E+00 0. -1.
         -5    1    5    5    0  501 -0.10460036508E+02  0.74720761881E+02  0.96570354101E+02  0.12263983003E+03  0.47000000000E+01 0.  1.
         13    1    6    6    0    0  0.81519319085E+01  0.17553115633E+02 -0.62866275384E+01  0.20349141212E+02  0.00000000000E+00 0. -1.
        -14    1    6    6    0    0  0.92053768547E+02 -0.18154882859E+02  0.10630667420E+03  0.14179070863E+03  0.00000000000E+00 0.  1.
</event>
<event>
12    1  0.1345781E-002  0.1756160E+03  0.7818608E-02  0.1172115E+00
          2   -1    0    0  502    0  0.00000000000E+00  0.00000000000E+00  0.15747233250E+03  0.15747233250E+03  0.00000000000E+00 0. -1.
         -2   -1    0    0    0  501 -0.00000000000E+00 -0.00000000000E+00 -0.20198118098E+03  0.20198118098E+03  0.00000000000E+00 0.  1.
          6    2    1    2  502    0  0.35532597933E+02  0.10195842678E+02  0.90404444598E+01  0.17599199498E+03  0.17182820472E+03 0.  0.
         24    2    3    3    0    0 -0.33216823586E+02 -0.32879012027E+02 -0.15927943437E+01  0.94034189771E+02  0.81581278802E+02 0.  0.
         -6    2    1    2    0  501 -0.35532597933E+02 -0.10195842678E+02 -0.53549292938E+02  0.18346151850E+03  0.17153449004E+03 0.  0.
        -24    2    5    5    0    0 -0.79083964151E+02  0.12055943857E+02  0.30371406722E+01  0.10852168949E+03  0.73267412256E+02 0.  0.
          5    1    3    3  502    0  0.68749421519E+02  0.43074854705E+02  0.10633238804E+02  0.81957805208E+02  0.47000000000E+01 0. -1.
        -13    1    4    4    0    0 -0.27171771772E+02  0.11073499683E+02  0.28117409081E+02  0.40638851729E+02  0.00000000000E+00 0.  1.
         14    1    4    4    0    0 -0.60450518140E+01 -0.43952511710E+02 -0.29710203425E+02  0.53395338041E+02  0.00000000000E+00 0. -1.
         -5    1    5    5    0  501  0.43551366218E+02 -0.22251786535E+02 -0.56586433610E+02  0.74939829011E+02  0.47000000000E+01 0.  1.
         11    1    6    6    0    0 -0.14842841954E+01 -0.14852558783E+01  0.26301978112E+02  0.26385661584E+02  0.00000000000E+00 0. -1.
        -12    1    6    6    0    0 -0.77599679956E+02  0.13541199735E+02 -0.23264837440E+02  0.82136027909E+02  0.00000000000E+00 0.  1.
</event>
<event>
12    1  0.1345781E-002  0.2093694E+03  0.7818608E-02  0.1142066E+00
         -2   -1    0    0    0  501 -0.00000000000E+00  0.00000000000E+00  0.50181487765E+03  0.50181487765E+03  0.00000000000E+00 0. -1.
          2   -1    0    0  502    0  0.00000000000E+00 -0.00000000000E+00 -0.87569591487E+02  0.87569591487E+02  0.00000000000E+00 0.  1.
          6    2    1    2  502    0  0.11824766615E+03  0.17361408232E+02  0.22138393198E+03  0.30446266669E+03  0.17147227479E+03 0.  0.
         24    2    3    3    0    0  0.12716387688E+03 -0.92884927659E+01  0.10306694009E+03  0.18276337907E+03  0.80763425564E+02 0.  0.
         -6    2    1    2    0  501 -0.11824766615E+03 -0.17361408232E+02  0.19286135418E+03  0.28492180245E+03  0.17233978800E+03 0.  0.
        -24    2    5    5    0    0 -0.15278590946E+03 -0.23285872738E+02  0.15385645031E+03  0.23227712506E+03  0.79969303650E+02 0.  0.
          5    1    3    3  502    0 -0.89162107323E+01  0.26649900998E+02  0.11831699189E+03  0.12169928762E+03  0.47000000000E+01 0. -1.
        -11    1    4    4    0    0  0.32745540419E+02  0.33505819572E+02  0.38467298540E+02  0.60618837167E+02  0.00000000000E+00 0.  1.
         12    1    4    4    0    0  0.94418336462E+02 -0.42794312338E+02  0.64599641551E+02  0.12214454191E+03  0.00000000000E+00 0. -1.
         -5    1    5    5    0  501  0.34538243313E+02  0.59244645063E+01  0.39004903871E+02  0.52644677384E+02  0.47000000000E+01 0.  1.
         11    1    6    6    0    0 -0.15215796373E+02 -0.99331053963E+01  0.66105997635E+02  0.68557931455E+02  0.00000000000E+00 0. -1.
        -12    1    6    6    0    0 -0.13757011309E+03 -0.13352767342E+02  0.87750452676E+02  0.16371919361E+03  0.00000000000E+00 0.  1.
</event>
<event>
12    1  0.1345781E-002  0.2108826E+03  0.7818608E-02  0.1140869E+00
         -1   -1    0    0    0  501 -0.00000000000E+00  0.00000000000E+00  0.14146888509E+02  0.14146888509E+02  0.00000000000E+00 0.  1.
          1   -1    0    0  502    0  0.00000000000E+00 -0.00000000000E+00 -0.31645222506E+04  0.31645222506E+04  0.00000000000E+00 0. -1.
          6    2    1    2  502    0  0.24820181656E+02  0.11859051335E+03 -0.17025146476E+04  0.17154917933E+04  0.17226786195E+03 0.  0.
         24    2    3    3    0    0 -0.20225236094E+02  0.12155472909E+03 -0.15322828548E+04  0.15393133908E+04  0.80064695869E+02 0.  0.
         -6    2    1    2    0  501 -0.24820181656E+02 -0.11859051335E+03 -0.14478607145E+04  0.14631773458E+04  0.17293798164E+03 0.  0.
        -24    2    5    5    0    0  0.28323688751E+02 -0.57997294622E+02 -0.43160915017E+03  0.44372399177E+03  0.80240917432E+02 0.  0.
          5    1    3    3  502    0  0.45045417749E+02 -0.29642157415E+01 -0.17023179274E+03  0.17617840247E+03  0.47000000000E+01 0. -1.
        -13    1    4    4    0    0  0.98922770427E+01  0.17275441230E+02 -0.64012134838E+02  0.67036194860E+02  0.00000000000E+00 0.  1.
         14    1    4    4    0    0 -0.30117513136E+02  0.10427928786E+03 -0.14682707200E+04  0.14722771959E+04  0.00000000000E+00 0. -1.
         -5    1    5    5    0  501 -0.53143870407E+02 -0.60593218725E+02 -0.10162515643E+04  0.10194533540E+04  0.47000000000E+01 0.  1.
         11    1    6    6    0    0  0.38028447370E+02 -0.57792654817E+01 -0.28894459688E+03  0.29149364108E+03  0.00000000000E+00 0. -1.
        -12    1    6    6    0    0 -0.97047586194E+01 -0.52218029140E+02 -0.14266455329E+03  0.15223035069E+03  0.00000000000E+00 0.  1.
</event>
<event>
12    1  0.1345781E-002  0.3038657E+03  0.7818608E-02  0.1083324E+00
         -2   -1    0    0    0  501 -0.00000000000E+00  0.00000000000E+00  0.12644907491E+03  0.12644907491E+03  0.00000000000E+00 0.  1.
          2   -1    0    0  502    0  0.00000000000E+00 -0.00000000000E+00 -0.74644870080E+03  0.74644870080E+03  0.00000000000E+00 0. -1.
          6    2    1    2  502    0  0.25041715498E+03 -0.27647996456E+01 -0.24602408120E+03  0.39128458075E+03  0.17279866603E+03 0.  0.
         24    2    3    3    0    0  0.81954513853E+02  0.45183321420E+02 -0.14254110207E+03  0.18779133581E+03  0.78673662362E+02 0.  0.
         -6    2    1    2    0  501 -0.25041715498E+03  0.27647996456E+01 -0.37397554470E+03  0.48161319496E+03  0.17139768348E+03 0.  0.
        -24    2    5    5    0    0 -0.16848248106E+03  0.63670362852E+02 -0.20142685117E+03  0.28106913481E+03  0.77374547790E+02 0.  0.
          5    1    3    3  502    0  0.16846264113E+03 -0.47948121066E+02 -0.10348297912E+03  0.20349324495E+03  0.47000000000E+01 0. -1.
        -13    1    4    4    0    0  0.12540972415E+02  0.18974387836E+02  0.44130904431E+01  0.23168486142E+02  0.00000000000E+00 0.  1.
         14    1    4    4    0    0  0.69413541438E+02  0.26208933584E+02 -0.14695419251E+03  0.16462284967E+03  0.00000000000E+00 0. -1.
         -5    1    5    5    0  501 -0.81934673924E+02 -0.60905563207E+02 -0.17254869353E+03  0.20054406015E+03  0.47000000000E+01 0.  1.
         11    1    6    6    0    0 -0.64991881092E+01  0.24192328540E+02 -0.49628419800E+02  0.55592160041E+02  0.00000000000E+00 0. -1.
        -12    1    6    6    0    0 -0.16198329295E+03  0.39478034313E+02 -0.15179843137E+03  0.22547697477E+03  0.00000000000E+00 0.  1.
</event>
<event>
12    1  0.1345781E-002  0.2254690E+03  0.7818608E-02  0.1129870E+00
         -2   -1    0    0    0  501 -0.00000000000E+00  0.00000000000E+00  0.78909345113E+02  0.78909345113E+02  0.00000000000E+00 0. -1.
          2   -1    0    0  502    0  0.00000000000E+00 -0.00000000000E+00 -0.73265088882E+03  0.73265088882E+03  0.00000000000E+00 0.  1.
          6    2    1    2  502    0  0.20942026471E+02  0.14520276396E+03 -0.18579904638E+03  0.29209414642E+03  0.17110024431E+03 0.  0.
         24    2    3    3    0    0 -0.11934455909E+02  0.29231465236E+02 -0.13346673647E+03  0.16059902909E+03  0.83556978174E+02 0.  0.
         -6    2    1    2    0  501 -0.20942026471E+02 -0.14520276396E+03 -0.46794249733E+03  0.51946608751E+03  0.17132549179E+03 0.  0.
        -24    2    5    5    0    0 -0.64559365502E+02 -0.62223938308E+02 -0.18573455567E+03  0.22205833693E+03  0.82297324735E+02 0.  0.
          5    1    3    3  502    0  0.32876482380E+02  0.11597129873E+03 -0.52332309906E+02  0.13149511733E+03  0.47000000000E+01 0. -1.
        -13    1    4    4    0    0 -0.30639991374E+02  0.26990235886E+02 -0.13562325338E+03  0.14163667873E+03  0.00000000000E+00 0.  1.
         14    1    4    4    0    0  0.18705535464E+02  0.22412293501E+01  0.21565169039E+01  0.18962350360E+02  0.00000000000E+00 0. -1.
         -5    1    5    5    0  501  0.43617339031E+02 -0.82978825654E+02 -0.28220794166E+03  0.29740775058E+03  0.47000000000E+01 0.  1.
         11    1    6    6    0    0 -0.50736878062E+02 -0.38658626493E+01 -0.13224862893E+03  0.14169994899E+03  0.00000000000E+00 0. -1.
        -12    1    6    6    0    0 -0.13822487440E+02 -0.58358075658E+02 -0.53485926738E+02  0.80358387942E+02  0.00000000000E+00 0.  1.
</event>
<event>
12    1  0.1345781E-002  0.1979094E+03  0.7818608E-02  0.1151515E+00
         -1   -1    0    0    0  501 -0.00000000000E+00  0.00000000000E+00  0.59009155526E+03  0.59009155526E+03  0.00000000000E+00 0.  1.
          1   -1    0    0  502    0  0.00000000000E+00 -0.00000000000E+00 -0.74091024437E+02  0.74091024437E+02  0.00000000000E+00 0. -1.
          6    2    1    2  502    0  0.90469718096E+02  0.13818384197E+02  0.36889501456E+03  0.42022365969E+03  0.17924473427E+03 0.  0.
         24    2    3    3    0    0  0.56419091861E+02 -0.29245212419E+02  0.91428008978E+02  0.13733861645E+03  0.80401606749E+02 0.  0.
         -6    2    1    2    0  501 -0.90469718096E+02 -0.13818384197E+02  0.14710551626E+03  0.24395892000E+03  0.17175623453E+03 0.  0.
        -24    2    5    5    0    0 -0.73470113890E+02  0.25824533133E+02  0.25716075669E+02  0.11504796731E+03  0.80684286499E+02 0.  0.
          5    1    3    3  502    0  0.34050626235E+02  0.43063596615E+02  0.27746700559E+03  0.28288504324E+03  0.47000000000E+01 0. -1.
        -11    1    4    4    0    0  0.37312461563E+02 -0.24650833579E+01  0.97013208186E+02  0.10397047170E+03  0.00000000000E+00 0.  1.
         12    1    4    4    0    0  0.19106630298E+02 -0.26780129061E+02 -0.55851992077E+01  0.33368144750E+02  0.00000000000E+00 0. -1.
         -5    1    5    5    0  501 -0.16999604206E+02 -0.39642917330E+02  0.12138944059E+03  0.12891095269E+03  0.47000000000E+01 0.  1.
         11    1    6    6    0    0  0.12681536159E+02 -0.12267655526E+02  0.71535524118E+01  0.19039171294E+02  0.00000000000E+00 0. -1.
        -12    1    6    6    0    0 -0.86151650049E+02  0.38092188658E+02  0.18562523258E+02  0.96008796017E+02  0.00000000000E+00 0.  1.
</event>
<event>
12    1  0.1345781E-002  0.1767995E+03  0.7818608E-02  0.1170937E+00
          2   -1    0    0  502    0  0.00000000000E+00  0.00000000000E+00  0.19382059555E+04  0.19382059555E+04  0.00000000000E+00 0. -1.
         -2   -1    0    0    0  501 -0.00000000000E+00 -0.00000000000E+00 -0.26721426785E+02  0.26721426785E+02  0.00000000000E+00 0.  1.
          6    2    1    2  502    0  0.40439931139E+02  0.22435854105E+02  0.33246956515E+03  0.37588357680E+03  0.16915583341E+03 0.  0.
         24    2    3    3    0    0  0.53141742490E+02  0.15923994514E+02  0.86674149069E+02  0.12962920244E+03  0.78827048728E+02 0.  0.
         -6    2    1    2    0  501 -0.40439931139E+02 -0.22435854105E+02  0.15790149635E+04  0.15890438054E+04  0.17214297838E+03 0.  0.
        -24    2    5    5    0    0 -0.94450468654E+02 -0.14762180803E+02  0.10561723020E+04  0.10633418346E+04  0.77827454783E+02 0.  0.
          5    1    3    3  502    0 -0.12701811351E+02  0.65118595908E+01  0.24579541608E+03  0.24625437436E+03  0.47000000000E+01 0. -1.
        -11    1    4    4    0    0  0.40462794686E+02 -0.28136995454E+02  0.55293619325E+02  0.74069646989E+02  0.00000000000E+00 0.  1.
         12    1    4    4    0    0  0.12678947804E+02  0.44060989968E+02  0.31380529744E+02  0.55559555446E+02  0.00000000000E+00 0. -1.
         -5    1    5    5    0  501  0.54010537514E+02 -0.76736733018E+01  0.52284266154E+03  0.52570197085E+03  0.47000000000E+01 0.  1.
         11    1    6    6    0    0 -0.88120185248E+01  0.23975845501E+02  0.35177038634E+03  0.35269660835E+03  0.00000000000E+00 0. -1.
        -12    1    6    6    0    0 -0.85638450129E+02 -0.38738026303E+02  0.70440191564E+03  0.71064522624E+03  0.00000000000E+00 0.  1.
</event>
<event>
12    1  0.1345781E-002  0.5518686E+03  0.7818608E-02  0.1001062E+00
          1   -1    0    0  502    0  0.00000000000E+00  0.00000000000E+00  0.40748219306E+03  0.40748219306E+03  0.00000000000E+00 0. -1.
         -1   -1    0    0    0  501 -0.00000000000E+00 -0.00000000000E+00 -0.79836057503E+03  0.79836057503E+03  0.00000000000E+00 0.  1.
          6    2    1    2  502    0 -0.13119314635E+02 -0.52450308890E+03 -0.43193892376E+02  0.55372910944E+03  0.17168170439E+03 0.  0.
         24    2    3    3    0    0 -0.55795541635E+02 -0.20034630488E+03  0.70552401301E+01  0.22290295223E+03  0.79900972172E+02 0.  0.
         -6    2    1    2    0  501  0.13119314635E+02  0.52450308890E+03 -0.34768448959E+03  0.65211365866E+03  0.17056410181E+03 0.  0.
        -24    2    5    5    0    0  0.17859468065E+02  0.10848468268E+03 -0.88514713184E+02  0.16192507620E+03  0.79353568774E+02 0.  0.
          5    1    3    3  502    0  0.42676227000E+02 -0.32415678402E+03 -0.50249132506E+02  0.33082615721E+03  0.47000000000E+01 0. -1.
        -13    1    4    4    0    0 -0.11077772216E+02 -0.13606761155E+03 -0.24100741685E+02  0.13862884872E+03  0.00000000000E+00 0.  1.
         14    1    4    4    0    0 -0.44717769419E+02 -0.64278693330E+02  0.31155981815E+02  0.84274103501E+02  0.00000000000E+00 0. -1.
         -5    1    5    5    0  501 -0.47401534293E+01  0.41601840622E+03 -0.25916977641E+03  0.49018858246E+03  0.47000000000E+01 0.  1.
         11    1    6    6    0    0  0.43973262277E+02  0.93906141411E+02 -0.56388526076E+02  0.11803252545E+03  0.00000000000E+00 0. -1.
        -12    1    6    6    0    0 -0.26113794212E+02  0.14578541265E+02 -0.32126187107E+02  0.43892550753E+02  0.00000000000E+00 0.  1.
</event>
<event>
12    1  0.1345781E-002  0.1829650E+03  0.7818608E-02  0.1164964E+00
         -2   -1    0    0    0  501 -0.00000000000E+00  0.00000000000E+00  0.33759313680E+02  0.33759313680E+02  0.00000000000E+00 0.  1.
          2   -1    0    0  502    0  0.00000000000E+00 -0.00000000000E+00 -0.11544509095E+04  0.11544509095E+04  0.00000000000E+00 0. -1.
          6    2    1    2  502    0 -0.44828825724E+01  0.62895330313E+02 -0.78285266484E+03  0.80389583690E+03  0.17150598510E+03 0.  0.
         24    2    3    3    0    0  0.11315331455E+02  0.13100310261E+02 -0.70909199975E+03  0.71338697931E+03  0.76222459146E+02 0.  0.
         -6    2    1    2    0  501  0.44828825724E+01 -0.62895330313E+02 -0.33783893097E+03  0.38431438627E+03  0.17200722486E+03 0.  0.
        -24    2    5    5    0    0  0.28106923471E+02  0.23860017056E+02 -0.18372201457E+03  0.20582433185E+03  0.85150322275E+02 0.  0.
          5    1    3    3  502    0 -0.15798214027E+02  0.49795020052E+02 -0.73760665088E+02  0.90508857592E+02  0.47000000000E+01 0. -1.
        -13    1    4    4    0    0  0.22540120112E+02  0.40935011098E+02 -0.36287826301E+03  0.36587479541E+03  0.00000000000E+00 0.  1.
         14    1    4    4    0    0 -0.11224788657E+02 -0.27834700837E+02 -0.34621373674E+03  0.34751218390E+03  0.00000000000E+00 0. -1.
         -5    1    5    5    0  501 -0.23624040898E+02 -0.86755347369E+02 -0.15411691640E+03  0.17849005442E+03  0.47000000000E+01 0.  1.
         13    1    6    6    0    0  0.27918655670E+01 -0.30456037686E+02 -0.85036392071E+02  0.90368980969E+02  0.00000000000E+00 0. -1.
        -14    1    6    6    0    0  0.25315057904E+02  0.54316054742E+02 -0.98685622495E+02  0.11545535088E+03  0.00000000000E+00 0.  1.
</event>
<event>
12    1  0.1345781E-002  0.1898999E+03  0.7818608E-02  0.1158552E+00
          2   -1    0    0  502    0  0.00000000000E+00  0.00000000000E+00  0.80330674862E+03  0.80330674862E+03  0.00000000000E+00 0.  1.
         -2   -1    0    0    0  501 -0.00000000000E+00 -0.00000000000E+00 -0.49655147740E+02  0.49655147740E+02  0.00000000000E+00 0. -1.
          6    2    1    2  502    0 -0.22501958173E+02  0.75979451177E+02  0.50823373324E+03  0.54242048223E+03  0.17216049725E+03 0.  0.
         24    2    3    3    0    0 -0.46701305055E+02  0.92578191203E+02  0.24152344119E+03  0.27405953789E+03  0.77610078500E+02 0.  0.
         -6    2    1    2    0  501  0.22501958173E+02 -0.75979451177E+02  0.24541786764E+03  0.31054141413E+03  0.17299371379E+03 0.  0.
        -24    2    5    5    0    0 -0.19237244081E+02 -0.65024196523E+02  0.57458876643E+02  0.11763508737E+03  0.77060194533E+02 0.  0.
          5    1    3    3  502    0  0.24199346882E+02 -0.16598740026E+02  0.26671029205E+03  0.26836094434E+03  0.47000000000E+01 0. -1.
        -13    1    4    4    0    0 -0.99808657335E+01 -0.13660414581E+02  0.26789271370E+02  0.31684217962E+02  0.00000000000E+00 0.  1.
         14    1    4    4    0    0 -0.36720439322E+02  0.10623860578E+03  0.21473416982E+03  0.24237531993E+03  0.00000000000E+00 0. -1.
         -5    1    5    5    0  501  0.41739202254E+02 -0.10955254654E+02  0.18795899099E+03  0.19290632676E+03  0.47000000000E+01 0.  1.
         11    1    6    6    0    0 -0.16840931505E+02 -0.59306520796E+02  0.76129477852E+02  0.97962124216E+02  0.00000000000E+00 0. -1.
        -12    1    6    6    0    0 -0.23963125756E+01 -0.57176757271E+01 -0.18670601208E+02  0.19672963152E+02  0.00000000000E+00 0.  1.
</event>
<event>
12    1  0.1345781E-002  0.2417489E+03  0.7818608E-02  0.1118633E+00
          4   -1    0    0  502    0  0.00000000000E+00  0.00000000000E+00  0.53365168208E+03  0.53365168208E+03  0.00000000000E+00 0.  1.
         -4   -1    0    0    0  501 -0.00000000000E+00 -0.00000000000E+00 -0.12066886640E+03  0.12066886640E+03  0.00000000000E+00 0. -1.
          6    2    1    2  502    0  0.87271831342E+01  0.17038256865E+03  0.10726831617E+03  0.26476800841E+03  0.17172426502E+03 0.  0.
         24    2    3    3    0    0 -0.43601206815E+02  0.10712111777E+03  0.14639526676E+02  0.14090334757E+03  0.79141888444E+02 0.  0.
         -6    2    1    2    0  501 -0.87271831342E+01 -0.17038256865E+03  0.30571449951E+03  0.38955254006E+03  0.17083162129E+03 0.  0.
        -24    2    5    5    0    0  0.60079295726E+02 -0.12137234578E+03  0.19761961738E+03  0.25228299857E+03  0.79072309302E+02 0.  0.
          5    1    3    3  502    0  0.52328389949E+02  0.63261450880E+02  0.92628789491E+02  0.12386466084E+03  0.47000000000E+01 0. -1.
        -11    1    4    4    0    0 -0.49521396952E+01  0.37172987359E+02  0.42119522936E+02  0.56395114053E+02  0.00000000000E+00 0.  1.
         12    1    4    4    0    0 -0.38649067120E+02  0.69948130415E+02 -0.27479996260E+02  0.84508233517E+02  0.00000000000E+00 0. -1.
         -5    1    5    5    0  501 -0.68806478860E+02 -0.49010222874E+02  0.10809488214E+03  0.13726954150E+03  0.47000000000E+01 0.  1.
         11    1    6    6    0    0  0.55616857324E+02 -0.31567537494E+02  0.58720937913E+02  0.86821038875E+02  0.00000000000E+00 0. -1.
        -12    1    6    6    0    0  0.44624384012E+01 -0.89804808287E+02  0.13889867946E+03  0.16546195969E+03  0.00000000000E+00 0.  1.
</event>
<event>
12    1  0.1345781E-002  0.2147816E+03  0.7818608E-02  0.1137834E+00
         -1   -1    0    0    0  501 -0.00000000000E+00  0.00000000000E+00  0.62587937670E+02  0.62587937670E+02  0.00000000000E+00 0. -1.
          1   -1    0    0  502    0  0.00000000000E+00 -0.00000000000E+00 -0.90698756894E+03  0.90698756894E+03  0.00000000000E+00 0.  1.
          6    2    1    2  502    0  0.84001135035E+02 -0.98680836746E+02 -0.21231816964E+03  0.30199013893E+03  0.17124526453E+03 0.  0.
         24    2    3    3    0    0  0.13064464829E+02 -0.13382555454E+02 -0.27611903375E+02  0.86476095842E+02  0.79786746471E+02 0.  0.
         -6    2    1    2    0  501 -0.84001135035E+02  0.98680836746E+02 -0.63208146163E+03  0.66758536767E+03  0.17131593847E+03 0.  0.
        -24    2    5    5    0    0 -0.59643708153E+02  0.89716916076E+02 -0.62681202398E+03  0.64068754079E+03  0.77335079759E+02 0.  0.
          5    1    3    3  502    0  0.70936670206E+02 -0.85298281292E+02 -0.18470626627E+03  0.21551404309E+03  0.47000000000E+01 0. -1.
        -13    1    4    4    0    0  0.64915256998E+00 -0.96888402177E+01 -0.55173989827E+02  0.56021997262E+02  0.00000000000E+00 0.  1.
         14    1    4    4    0    0  0.12415312259E+02 -0.36937152364E+01  0.27562086452E+02  0.30454098580E+02  0.00000000000E+00 0. -1.
         -5    1    5    5    0  501 -0.24357426882E+02  0.89639206699E+01 -0.52694376439E+01  0.26897826886E+02  0.47000000000E+01 0.  1.
         13    1    6    6    0    0 -0.56295879947E+02  0.54333364698E+02 -0.24417788980E+03  0.25640628403E+03  0.00000000000E+00 0. -1.
        -14    1    6    6    0    0 -0.33478282058E+01  0.35383551377E+02 -0.38263413418E+03  0.38428125676E+03  0.00000000000E+00 0.  1.
</event>
<event>
12    1  0.1345781E-002  0.2571149E+03  0.7818608E-02  0.1108889E+00
          2   -1    0    0  502    0  0.00000000000E+00  0.00000000000E+00  0.13577723303E+03  0.13577723303E+03  0.00000000000E+00 0.  1.
         -2   -1    0    0    0  501 -0.00000000000E+00 -0.00000000000E+00 -0.58366488156E+03  0.58366488156E+03  0.00000000000E+00 0. -1.
          6    2    1    2  502    0 -0.18213489412E+03 -0.53193231332E+02 -0.37175266695E+03  0.45307020617E+03  0.17626663560E+03 0.  0.
         24    2    3    3    0    0 -0.17006926200E+03 -0.86950026051E+02 -0.24113101827E+03  0.31753716308E+03  0.78751641607E+02 0.  0.
         -6    2    1    2    0  501  0.18213489412E+03  0.53193231332E+02 -0.76134981575E+02  0.26637190842E+03  0.17074782183E+03 0.  0.
        -24    2    5    5    0    0  0.71498234934E+02 -0.31070930187E+02 -0.17541192873E+02  0.11538766637E+03  0.83241935354E+02 0.  0.
          5    1    3    3  502    0 -0.12065632115E+02  0.33756794718E+02 -0.13062164868E+03  0.13553304310E+03  0.47000000000E+01 0. -1.
        -13    1    4    4    0    0 -0.15827768765E+01 -0.60612196963E+01  0.53302425287E+01  0.82252691300E+01  0.00000000000E+00 0.  1.
         14    1    4    4    0    0 -0.16848648513E+03 -0.80888806354E+02 -0.24646126080E+03  0.30931189395E+03  0.00000000000E+00 0. -1.
         -5    1    5    5    0  501  0.11063665918E+03  0.84264161519E+02 -0.58593788701E+02  0.15098424204E+03  0.47000000000E+01 0.  1.
         13    1    6    6    0    0 -0.18446002159E+02  0.90083935554E+00 -0.89633706821E+00  0.18489724912E+02  0.00000000000E+00 0. -1.
        -14    1    6    6    0    0  0.89944237093E+02 -0.31971769542E+02 -0.16644855805E+02  0.96897941458E+02  0.00000000000E+00 0.  1.
</event>
<event>
12    1  0.1345781E-002  0.1750244E+03  0.7818608E-02  0.1172707E+00
          1   -1    0    0  502    0  0.00000000000E+00  0.00000000000E+00  0.80205301975E+03  0.80205301975E+03  0.00000000000E+00 0.  1.
         -1   -1    0    0    0  501 -0.00000000000E+00 -0.00000000000E+00 -0.97056065264E+02  0.97056065264E+02  0.00000000000E+00 0. -1.
          6    2    1    2  502    0 -0.41455514482E+02 -0.17149309563E+02  0.70068086989E+03  0.72164219105E+03  0.16673665454E+03 0.  0.
         24    2    3    3    0    0 -0.86097418587E+02  0.35849423347E+00  0.59572170184E+03  0.60615219254E+03  0.71576815230E+02 0.  0.
         -6    2    1    2    0  501  0.41455514482E+02  0.17149309563E+02  0.43160845958E+01  0.17746689397E+03  0.17164851112E+03 0.  0.
        -24    2    5    5    0    0 -0.82077417708E+01  0.64444169726E+02  0.25010564204E+02  0.10567835515E+03  0.79510806743E+02 0.  0.
          5    1    3    3  502    0  0.44641904105E+02 -0.17507803796E+02  0.10495916806E+03  0.11548999851E+03  0.47000000000E+01 0. -1.
        -13    1    4    4    0    0 -0.25967273462E+02 -0.13641730370E+02  0.58979251199E+02  0.65870692805E+02  0.00000000000E+00 0.  1.
         14    1    4    4    0    0 -0.60130145125E+02  0.14000224604E+02  0.53674245064E+03  0.54028149974E+03  0.00000000000E+00 0. -1.
         -5    1    5    5    0  501  0.49663256253E+02 -0.47294860163E+02 -0.20694479608E+02  0.71788538819E+02  0.47000000000E+01 0.  1.
         11    1    6    6    0    0  0.48443921182E+01  0.52437193085E+02 -0.20750136671E+02  0.56601197209E+02  0.00000000000E+00 0. -1.
        -12    1    6    6    0    0 -0.13052133889E+02  0.12006976641E+02  0.45760700874E+02  0.49077157941E+02  0.00000000000E+00 0.  1.
</event>
<event>
12    1  0.1345781E-002  0.2095221E+03  0.7818608E-02  0.1141945E+00
          2   -1    0    0  502    0  0.00000000000E+00  0.00000000000E+00  0.57954333991E+03  0.57954333991E+03  0.00000000000E+00 0.  1.
         -2   -1    0    0    0  501 -0.00000000000E+00 -0.00000000000E+00 -0.84518150857E+02  0.84518150857E+02  0.00000000000E+00 0. -1.
          6    2    1    2  502    0  0.11062694815E+03  0.40646886738E+02  0.35359386623E+03  0.41059374191E+03  0.17224432532E+03 0.  0.
         24    2    3    3    0    0  0.11939042220E+03  0.78824343920E+02  0.24288522958E+03  0.29306583483E+03  0.80168564218E+02 0.  0.
         -6    2    1    2    0  501 -0.11062694815E+03 -0.40646886738E+02  0.14143132283E+03  0.25346774886E+03  0.17421994598E+03 0.  0.
        -24    2    5    5    0    0 -0.88675545485E+02 -0.71581032230E+02  0.15930052102E+03  0.21127552588E+03  0.79205399407E+02 0.  0.
          5    1    3    3  502    0 -0.87634740512E+01 -0.38177457182E+02  0.11070863665E+03  0.11752790708E+03  0.47000000000E+01 0. -1.
        -13    1    4    4    0    0  0.22915413569E+02  0.12438046060E+02  0.12200818505E+03  0.12476304897E+03  0.00000000000E+00 0.  1.
         14    1    4    4    0    0  0.96475008631E+02  0.66386297860E+02  0.12087704453E+03  0.16830278586E+03  0.00000000000E+00 0. -1.
         -5    1    5    5    0  501 -0.21951402664E+02  0.30934145493E+02 -0.17869198191E+02  0.42192222983E+02  0.47000000000E+01 0.  1.
         13    1    6    6    0    0 -0.78197157843E+02 -0.17775610551E+02  0.69760720822E+02  0.10628887992E+03  0.00000000000E+00 0. -1.
        -14    1    6    6    0    0 -0.10478387642E+02 -0.53805421679E+02  0.89539800198E+02  0.10498664596E+03  0.00000000000E+00 0.  1.
</event>
<event>
12    1  0.1345781E-002  0.1782723E+03  0.7818608E-02  0.1169486E+00
          2   -1    0    0  502    0  0.00000000000E+00  0.00000000000E+00  0.26683422430E+03  0.26683422430E+03  0.00000000000E+00 0.  1.
         -2   -1    0    0    0  501 -0.00000000000E+00 -0.00000000000E+00 -0.12622808765E+03  0.12622808765E+03  0.00000000000E+00 0. -1.
          6    2    1    2  502    0  0.45430808581E+02 -0.15906196062E+02  0.11685538137E+03  0.21285377002E+03  0.17127341246E+03 0.  0.
         24    2    3    3    0    0 -0.14603729177E+02  0.10498763316E+02  0.93721426766E+00  0.79585322634E+02  0.77520657061E+02 0.  0.
         -6    2    1    2    0  501 -0.45430808581E+02  0.15906196062E+02  0.23750755274E+02  0.18020854193E+03  0.17202922649E+03 0.  0.
        -24    2    5    5    0    0 -0.63183097951E+02 -0.48190427644E+02  0.42749512576E+01  0.11074691302E+03  0.77020661853E+02 0.  0.
          5    1    3    3  502    0  0.60034537758E+02 -0.26404959378E+02  0.11591816711E+03  0.13326844739E+03  0.47000000000E+01 0. -1.
        -13    1    4    4    0    0 -0.57919389026E+01 -0.23535731693E+02  0.26654158261E+02  0.36026675883E+02  0.00000000000E+00 0.  1.
         14    1    4    4    0    0 -0.88117902744E+01  0.34034495009E+02 -0.25716943994E+02  0.43558646751E+02  0.00000000000E+00 0. -1.
         -5    1    5    5    0  501  0.17752289370E+02  0.64096623706E+02  0.19475804016E+02  0.69461628907E+02  0.47000000000E+01 0.  1.
         13    1    6    6    0    0 -0.34227955982E+02 -0.53496426926E+02 -0.25903725294E+02  0.68588801190E+02  0.00000000000E+00 0. -1.
        -14    1    6    6    0    0 -0.28955141969E+02  0.53059992823E+01  0.30178676551E+02  0.42158111831E+02  0.00000000000E+00 0.  1.
</event>
<event>
12    1  0.1345781E-002  0.1918142E+03  0.7818608E-02  0.1156835E+00
         -1   -1    0    0    0  501 -0.00000000000E+00  0.00000000000E+00  0.96181785304E+02  0.96181785304E+02  0.00000000000E+00 0.  1.
          1   -1    0    0  502    0  0.00000000000E+00 -0.00000000000E+00 -0.47176589179E+03  0.47176589179E+03  0.00000000000E+00 0. -1.
          6    2    1    2  502    0  0.66181942792E+02 -0.52944305210E+02 -0.64306831665E+02  0.20232830600E+03  0.17209946485E+03 0.  0.
         24    2    3    3    0    0  0.48194088142E+02 -0.10278434031E+03 -0.30358082712E+02  0.13922363446E+03  0.74661345160E+02 0.  0.
         -6    2    1    2    0  501 -0.66181942792E+02  0.52944305210E+02 -0.31127727482E+03  0.36561937109E+03  0.17204892820E+03 0.  0.
        -24    2    5    5    0    0 -0.77618474805E+02  0.78991890371E+01 -0.29639558925E+03  0.31659477195E+03  0.79340276555E+02 0.  0.
          5    1    3    3  502    0  0.17987854650E+02  0.49840035104E+02 -0.33948748953E+02  0.63104671536E+02  0.47000000000E+01 0. -1.
        -13    1    4    4    0    0 -0.49053378594E+01 -0.45925916461E+02  0.15738584120E+02  0.48795032251E+02  0.00000000000E+00 0.  1.
         14    1    4    4    0    0  0.53099426001E+02 -0.56858423854E+02 -0.46096666832E+02  0.90428602211E+02  0.00000000000E+00 0. -1.
         -5    1    5    5    0  501  0.11436532013E+02  0.45045116173E+02 -0.14881685571E+02  0.49024599142E+02  0.47000000000E+01 0.  1.
         11    1    6    6    0    0 -0.59992993108E+02  0.37572236809E+02 -0.24228911163E+03  0.25241799820E+03  0.00000000000E+00 0. -1.
        -12    1    6    6    0    0 -0.17625481698E+02 -0.29673047772E+02 -0.54106477620E+02  0.64176773755E+02  0.00000000000E+00 0.  1.
</event>
<event>
12    1  0.1345781E-002  0.2070718E+03  0.7818608E-02  0.1143906E+00
          2   -1    0    0  502    0  0.00000000000E+00  0.00000000000E+00  0.33841221736E+03  0.33841221736E+03  0.00000000000E+00 0. -1.
         -2   -1    0    0    0  501 -0.00000000000E+00 -0.00000000000E+00 -0.16255946974E+03  0.16255946974E+03  0.00000000000E+00 0.  1.
          6    2    1    2  502    0 -0.10744580213E+03  0.36387840509E+02  0.20604755663E+03  0.29319144367E+03  0.17503414442E+03 0.  0.
         24    2    3    3    0    0 -0.48106458498E+02 -0.42046698415E+02  0.14552416823E+03  0.17761330930E+03  0.79290906834E+02 0.  0.
         -6    2    1    2    0  501  0.10744580213E+03 -0.36387840509E+02 -0.30194809013E+02  0.20778024343E+03  0.17144161611E+03 0.  0.
        -24    2    5    5    0    0  0.45993098770E+01 -0.49822603569E+02  0.14419240081E+02  0.94774061276E+02  0.79188147652E+02 0.  0.
          5    1    3    3  502    0 -0.59339343636E+02  0.78434538924E+02  0.60523388404E+02  0.11557813437E+03  0.47000000000E+01 0. -1.
        -13    1    4    4    0    0 -0.23308611069E+02 -0.57321184951E+02  0.55949574779E+02  0.83422805707E+02  0.00000000000E+00 0.  1.
         14    1    4    4    0    0 -0.24797847429E+02  0.15274486537E+02  0.89574593450E+02  0.94190503597E+02  0.00000000000E+00 0. -1.
         -5    1    5    5    0  501  0.10284649226E+03  0.13434763059E+02 -0.44614049094E+02  0.11300618215E+03  0.47000000000E+01 0.  1.
         13    1    6    6    0    0 -0.32127222929E+01 -0.69195008144E+02  0.21801987754E+02  0.72619538739E+02  0.00000000000E+00 0. -1.
        -14    1    6    6    0    0  0.78120321699E+01  0.19372404576E+02 -0.73827476728E+01  0.22154522537E+02  0.00000000000E+00 0.  1.
</event>
<event>
12    1  0.1345781E-002  0.1792414E+03  0.7818608E-02  0.1168539E+00
          3   -1    0    0  502    0  0.00000000000E+00  0.00000000000E+00  0.72665576680E+02  0.72665576680E+02  0.00000000000E+00 0.  1.
         -3   -1    0    0    0  501 -0.00000000000E+00 -0.00000000000E+00 -0.45720634547E+03  0.45720634547E+03  0.00000000000E+00 0. -1.
          6    2    1    2  502    0  0.47807219646E+02  0.11390703075E+02 -0.14477618827E+03  0.23086662048E+03  0.17298547162E+03 0.  0.
         24    2    3    3    0    0  0.33370015132E+01 -0.32895096186E+02 -0.14369374022E+03  0.16792145378E+03  0.80352353585E+02 0.  0.
         -6    2    1    2    0  501 -0.47807219646E+02 -0.11390703075E+02 -0.23976458051E+03  0.29900530167E+03  0.17176099089E+03 0.  0.
        -24    2    5    5    0    0  0.91198119121E+01 -0.61136921517E+02 -0.10853351499E+03  0.14748284218E+03  0.78426849480E+02 0.  0.
          5    1    3    3  502    0  0.44470218133E+02  0.44285799261E+02 -0.10824480463E+01  0.62945166699E+02  0.47000000000E+01 0. -1.
        -11    1    4    4    0    0  0.23047642087E+02  0.13789726693E+02 -0.17825473669E+02  0.32235041176E+02  0.00000000000E+00 0.  1.
         12    1    4    4    0    0 -0.19710640574E+02 -0.46684822879E+02 -0.12586826656E+03  0.13568641260E+03  0.00000000000E+00 0. -1.
         -5    1    5    5    0  501 -0.56927031558E+02  0.49746218442E+02 -0.13123106552E+03  0.15152245949E+03  0.47000000000E+01 0.  1.
         13    1    6    6    0    0 -0.28320735927E+02 -0.28373181913E+02 -0.81582629101E+02  0.90900092994E+02  0.00000000000E+00 0. -1.
        -14    1    6    6    0    0  0.37440547839E+02 -0.32763739604E+02 -0.26950885894E+02  0.56582749189E+02  0.00000000000E+00 0.  1.
</event>
<event>
12    1  0.1345781E-002  0.1793353E+03  0.7818608E-02  0.1168448E+00
          2   -1    0    0  502    0  0.00000000000E+00  0.00000000000E+00  0.72582978956E+03  0.72582978956E+03  0.00000000000E+00 0. -1.
         -2   -1    0    0    0  501 -0.00000000000E+00 -0.00000000000E+00 -0.48938935168E+02  0.48938935168E+02  0.00000000000E+00 0.  1.
          6    2    1    2  502    0  0.12129543546E+02  0.50988928062E+02  0.22000152581E+03  0.28409300816E+03  0.17193361892E+03 0.  0.
         24    2    3    3    0    0  0.57604255103E+02  0.51079407556E+02  0.79831356118E+02  0.13665582137E+03  0.79839914904E+02 0.  0.
         -6    2    1    2    0  501 -0.12129543546E+02 -0.50988928062E+02  0.45688932858E+03  0.49067571656E+03  0.17107835528E+03 0.  0.
        -24    2    5    5    0    0  0.56225629291E+02 -0.14599597629E+02  0.25084013960E+03  0.27050539317E+03  0.82933240991E+02 0.  0.
          5    1    3    3  502    0 -0.45474711557E+02 -0.90479493913E-01  0.14017016969E+03  0.14743718679E+03  0.47000000000E+01 0. -1.
        -13    1    4    4    0    0  0.17882063425E+01  0.51910741278E+02  0.22401199015E+02  0.56566213054E+02  0.00000000000E+00 0.  1.
         14    1    4    4    0    0  0.55816048761E+02 -0.83133372237E+00  0.57430157103E+02  0.80089608314E+02  0.00000000000E+00 0. -1.
         -5    1    5    5    0  501 -0.68355172837E+02 -0.36389330433E+02  0.20604918898E+03  0.22017032339E+03  0.47000000000E+01 0.  1.
         13    1    6    6    0    0 -0.16562735861E+01  0.21922840368E+02  0.12810083738E+03  0.12997376162E+03  0.00000000000E+00 0. -1.
        -14    1    6    6    0    0  0.57881902877E+02 -0.36522437997E+02  0.12273930222E+03  0.14053163155E+03  0.00000000000E+00 0.  1.
</event>
<event>
12    1  0.1345781E-002  0.2124069E+03  0.7818608E-02  0.1139674E+00
         -2   -1    0    0    0  501 -0.00000000000E+00  0.00000000000E+00  0.23785845038E+03  0.23785845038E+03  0.00000000000E+00 0.  1.
          2   -1    0    0  502    0  0.00000000000E+00 -0.00000000000E+00 -0.20158222205E+03  0.20158222205E+03  0.00000000000E+00 0. -1.
          6    2    1    2  502    0  0.16826581772E+02  0.12005249802E+03 -0.35358779048E+02  0.21373320489E+03  0.17244101450E+03 0.  0.
         24    2    3    3    0    0 -0.37237010431E+02  0.73569118084E+02  0.28781710322E+02  0.11771409747E+03  0.78925355961E+02 0.  0.
         -6    2    1    2    0  501 -0.16826581772E+02 -0.12005249802E+03  0.71635007381E+02  0.22570746754E+03  0.17639883924E+03 0.  0.
        -24    2    5    5    0    0  0.21626772687E+02 -0.81654409612E+02 -0.21079406448E+02  0.11813829819E+03  0.79857098727E+02 0.  0.
          5    1    3    3  502    0  0.54063592203E+02  0.46483379933E+02 -0.64140489369E+02  0.96019107413E+02  0.47000000000E+01 0. -1.
        -13    1    4    4    0    0 -0.55508725902E+02  0.77515443477E+02  0.22153584560E+02  0.97880763879E+02  0.00000000000E+00 0.  1.
         14    1    4    4    0    0  0.18271715471E+02 -0.39463253934E+01  0.66281257619E+01  0.19833333594E+02  0.00000000000E+00 0. -1.
         -5    1    5    5    0  501 -0.38453354458E+02 -0.38398088405E+02  0.92714413828E+02  0.10756916935E+03  0.47000000000E+01 0.  1.
         11    1    6    6    0    0 -0.88100155004E+00  0.13183073861E+02 -0.15697816495E+02  0.20518066255E+02  0.00000000000E+00 0. -1.
        -12    1    6    6    0    0  0.22507774237E+02 -0.94837483473E+02 -0.53815899526E+01  0.97620231935E+02  0.00000000000E+00 0.  1.
</event>
<event>
12    1  0.1345781E-002  0.1886881E+03  0.7818608E-02  0.1159650E+00
          3   -1    0    0  502    0  0.00000000000E+00  0.00000000000E+00  0.46876323326E+03  0.46876323326E+03  0.00000000000E+00 0. -1.
         -3   -1    0    0    0  501 -0.00000000000E+00 -0.00000000000E+00 -0.93739715397E+02  0.93739715397E+02  0.00000000000E+00 0.  1.
          6    2    1    2  502    0  0.23139766921E+02  0.73758895112E+02  0.65847964304E+02  0.20084161462E+03  0.17327889755E+03 0.  0.
         24    2    3    3    0    0  0.42617905869E+02  0.95293396323E+02  0.41434851117E+01  0.13248471744E+03  0.81473398129E+02 0.  0.
         -6    2    1    2    0  501 -0.23139766921E+02 -0.73758895112E+02  0.30917555356E+03  0.36166133404E+03  0.17097828576E+03 0.  0.
        -24    2    5    5    0    0 -0.80440501139E+02 -0.43696689667E+02  0.18575288965E+03  0.22222549107E+03  0.80622316744E+02 0.  0.
          5    1    3    3  502    0 -0.19478138948E+02 -0.21534501211E+02  0.61704479193E+02  0.68356897178E+02  0.47000000000E+01 0. -1.
        -13    1    4    4    0    0 -0.17238705404E+02  0.16587410254E+02  0.21413537750E+02  0.32106926697E+02  0.00000000000E+00 0.  1.
         14    1    4    4    0    0  0.59856611273E+02  0.78705986069E+02 -0.17270052639E+02  0.10037779074E+03  0.00000000000E+00 0. -1.
         -5    1    5    5    0  501  0.57300734218E+02 -0.30062205445E+02  0.12342266391E+03  0.13943584297E+03  0.47000000000E+01 0.  1.
         13    1    6    6    0    0 -0.67606707670E+01  0.79474647663E+01  0.90858073087E+02  0.91455225714E+02  0.00000000000E+00 0. -1.
        -14    1    6    6    0    0 -0.73679830372E+02 -0.51644154433E+02  0.94894816560E+02  0.13077026535E+03  0.00000000000E+00 0.  1.
</event>
<event>
12    1  0.1345781E-002  0.2365638E+03  0.7818608E-02  0.1122103E+00
         -1   -1    0    0    0  501 -0.00000000000E+00  0.00000000000E+00  0.52908228424E+03  0.52908228424E+03  0.00000000000E+00 0. -1.
          1   -1    0    0  502    0  0.00000000000E+00 -0.00000000000E+00 -0.20174896335E+03  0.20174896335E+03  0.00000000000E+00 0.  1.
          6    2    1    2  502    0 -0.14293040884E+03 -0.75402559495E+02 -0.88478898483E+02  0.25228653278E+03  0.17235234665E+03 0.  0.
         24    2    3    3    0    0 -0.15992011130E+03 -0.90306307681E+02 -0.10269029443E+03  0.22517886828E+03  0.80190741017E+02 0.  0.
         -6    2    1    2    0  501  0.14293040884E+03  0.75402559495E+02  0.41581221937E+03  0.47854471481E+03  0.17317792744E+03 0.  0.
        -24    2    5    5    0    0  0.33666452971E+02  0.92711594729E+02  0.22658483780E+03  0.25930213982E+03  0.78536877607E+02 0.  0.
          5    1    3    3  502    0  0.16989702464E+02  0.14903748186E+02  0.14211395944E+02  0.27107664497E+02  0.47000000000E+01 0. -1.
        -13    1    4    4    0    0 -0.73811044112E+02 -0.83877266744E+02 -0.74724687233E+02  0.13441445232E+03  0.00000000000E+00 0.  1.
         14    1    4    4    0    0 -0.86109067188E+02 -0.64290409367E+01 -0.27965607194E+02  0.90764415963E+02  0.00000000000E+00 0. -1.
         -5    1    5    5    0  501  0.10926395586E+03 -0.17309035234E+02  0.18922738157E+03  0.21924257499E+03  0.47000000000E+01 0.  1.
         13    1    6    6    0    0  0.13620565885E+02  0.90010029255E+02  0.11897504730E+03  0.14980783378E+03  0.00000000000E+00 0. -1.
        -14    1    6    6    0    0  0.20045887086E+02  0.27015654746E+01  0.10760979050E+03  0.10949430605E+03  0.00000000000E+00 0.  1.
</event>
<event>
12    1  0.1345781E-002  0.1847986E+03  0.7818608E-02  0.1163238E+00
         -2   -1    0    0    0  501 -0.00000000000E+00  0.00000000000E+00  0.68338174575E+02  0.68338174575E+02  0.00000000000E+00 0.  1.
          2   -1    0    0  502    0  0.00000000000E+00 -0.00000000000E+00 -0.52870983316E+03  0.52870983316E+03  0.00000000000E+00 0. -1.
          6    2    1    2  502    0  0.67932854420E+02 -0.17906153978E+02 -0.30024227864E+03  0.35262942492E+03  0.17107478592E+03 0.  0.
         24    2    3    3    0    0  0.28276423499E+02 -0.78959235247E+01 -0.29962541309E+03  0.31145530987E+03  0.79794236284E+02 0.  0.
         -6    2    1    2    0  501 -0.67932854420E+02  0.17906153978E+02 -0.16012937994E+03  0.24441858281E+03  0.17077330659E+03 0.  0.
        -24    2    5    5    0    0 -0.23576500716E+01  0.15220838855E+02 -0.15688615198E+03  0.17854046148E+03  0.83822426911E+02 0.  0.
          5    1    3    3  502    0  0.39656430921E+02 -0.10010230453E+02 -0.61686555335E+00  0.41174115051E+02  0.47000000000E+01 0. -1.
        -11    1    4    4    0    0  0.30416825795E+02  0.32450890284E+02 -0.14797202890E+03  0.15451202189E+03  0.00000000000E+00 0.  1.
         12    1    4    4    0    0 -0.21404022959E+01 -0.40346813809E+02 -0.15165338419E+03  0.15694328799E+03  0.00000000000E+00 0. -1.
         -5    1    5    5    0  501 -0.65575204349E+02  0.26853151227E+01 -0.32432279637E+01  0.65878121332E+02  0.47000000000E+01 0.  1.
         13    1    6    6    0    0 -0.17350757429E+02  0.46672435400E+02 -0.81784479549E+02  0.95750018823E+02  0.00000000000E+00 0. -1.
        -14    1    6    6    0    0  0.14993107358E+02 -0.31451596545E+02 -0.75101672430E+02  0.82790442656E+02  0.00000000000E+00 0.  1.
</event>
<event>
12    1  0.1345781E-002  0.1945756E+03  0.7818608E-02  0.1154398E+00
          1   -1    0    0  502    0  0.00000000000E+00  0.00000000000E+00  0.26085775486E+03  0.26085775486E+03  0.00000000000E+00 0. -1.
         -1   -1    0    0    0  501 -0.00000000000E+00 -0.00000000000E+00 -0.14649887906E+03  0.14649887906E+03  0.00000000000E+00 0.  1.
          6    2    1    2  502    0  0.92365021834E+02 -0.11023531231E+02  0.37809144683E+02  0.19908761412E+03  0.17191140502E+03 0.  0.
         24    2    3    3    0    0  0.12810856580E+03 -0.10794470191E+02  0.40702664310E+02  0.16291972974E+03  0.91421038272E+02 0.  0.
         -6    2    1    2    0  501 -0.92365021834E+02  0.11023531231E+02  0.76549731119E+02  0.20826901980E+03  0.16989204742E+03 0.  0.
        -24    2    5    5    0    0 -0.80961564548E+02  0.67066266410E+02  0.67307736897E+02  0.15014560403E+03  0.83430881203E+02 0.  0.
          5    1    3    3  502    0 -0.35743543970E+02 -0.22906104014E+00 -0.28935196274E+01  0.36167884377E+02  0.47000000000E+01 0. -1.
        -11    1    4    4    0    0  0.51508676977E+02  0.21709880634E+02 -0.20593103328E+02  0.59569611596E+02  0.00000000000E+00 0.  1.
         12    1    4    4    0    0  0.76599888826E+02 -0.32504350824E+02  0.61295767638E+02  0.10335011815E+03  0.00000000000E+00 0. -1.
         -5    1    5    5    0  501 -0.11403457286E+02 -0.56042735179E+02  0.92419942218E+01  0.58123415778E+02  0.47000000000E+01 0.  1.
         13    1    6    6    0    0 -0.42222024559E+02  0.45698806720E+02  0.82532963212E+02  0.10335748792E+03  0.00000000000E+00 0. -1.
        -14    1    6    6    0    0 -0.38739539988E+02  0.21367459690E+02 -0.15225226315E+02  0.46788116103E+02  0.00000000000E+00 0.  1.
</event>
<event>
12    1  0.1345781E-002  0.1804579E+03  0.7818608E-02  0.1167361E+00
          2   -1    0    0  502    0  0.00000000000E+00  0.00000000000E+00  0.42001344207E+04  0.42001344207E+04  0.00000000000E+00 0.  1.
         -2   -1    0    0    0  501 -0.00000000000E+00 -0.00000000000E+00 -0.77599617005E+01  0.77599617005E+01  0.00000000000E+00 0. -1.
          6    2    1    2  502    0 -0.17789297499E+02  0.55034130405E+02  0.20363218374E+04  0.20443144818E+04  0.17108436639E+03 0.  0.
         24    2    3    3    0    0 -0.74830907997E+02  0.16547720676E+02  0.12686114979E+04  0.12735121696E+04  0.81145682346E+02 0.  0.
         -6    2    1    2    0  501  0.17789297499E+02 -0.55034130405E+02  0.21560526216E+04  0.21635799006E+04  0.17079187495E+03 0.  0.
        -24    2    5    5    0    0 -0.40636285169E+02 -0.13390649952E+02  0.75089848659E+03  0.75658737706E+03  0.82129804426E+02 0.  0.
          5    1    3    3  502    0  0.57041610498E+02  0.38486409728E+02  0.76771033948E+03  0.77080231215E+03  0.47000000000E+01 0. -1.
        -13    1    4    4    0    0 -0.74661325701E+02 -0.23598391608E+01  0.59981560322E+03  0.60444903860E+03  0.00000000000E+00 0.  1.
         14    1    4    4    0    0 -0.16958229619E+00  0.18907559837E+02  0.66879589468E+03  0.66906313104E+03  0.00000000000E+00 0. -1.
         -5    1    5    5    0  501  0.58425582668E+02 -0.41643480453E+02  0.14051541350E+04  0.14069925236E+04  0.47000000000E+01 0.  1.
         13    1    6    6    0    0 -0.25030537072E+02  0.15583585799E+02  0.64544228466E+03  0.64611540669E+03  0.00000000000E+00 0. -1.
        -14    1    6    6    0    0 -0.15605748097E+02 -0.28974235751E+02  0.10545620193E+03  0.11047197037E+03  0.00000000000E+00 0.  1.
</event>
<event>
12    1  0.1345781E-002  0.2006157E+03  0.7818608E-02  0.1149221E+00
          2   -1    0    0  502    0  0.00000000000E+00  0.00000000000E+00  0.99144679901E+03  0.99144679901E+03  0.00000000000E+00 0.  1.
         -2   -1    0    0    0  501 -0.00000000000E+00 -0.00000000000E+00 -0.53294938915E+02  0.53294938915E+02  0.00000000000E+00 0. -1.
          6    2    1    2  502    0 -0.51369849068E+02 -0.89021183286E+02  0.72367135137E+03  0.75090208660E+03  0.17201769211E+03 0.  0.
         24    2    3    3    0    0 -0.92162197766E+02 -0.60139905168E+02  0.33473100146E+03  0.35873524746E+03  0.67345790781E+02 0.  0.
         -6    2    1    2    0  501  0.51369849068E+02  0.89021183286E+02  0.21448050873E+03  0.29383965133E+03  0.17255787319E+03 0.  0.
        -24    2    5    5    0    0  0.53727496892E+02  0.52498533454E+02  0.22783152347E+03  0.25459933980E+03  0.85269459966E+02 0.  0.
          5    1    3    3  502    0  0.40792348697E+02 -0.28881278118E+02  0.38894034991E+03  0.39216683915E+03  0.47000000000E+01 0. -1.
        -11    1    4    4    0    0 -0.39980085921E+02 -0.25406753640E+02  0.24337013472E+03  0.24793735676E+03  0.00000000000E+00 0.  1.
         12    1    4    4    0    0 -0.52182111844E+02 -0.34733151528E+02  0.91360866739E+02  0.11079789070E+03  0.00000000000E+00 0. -1.
         -5    1    5    5    0  501 -0.23576478237E+01  0.36522649831E+02 -0.13351014745E+02  0.39240311526E+02  0.47000000000E+01 0.  1.
         13    1    6    6    0    0  0.41942339366E+02  0.21208995181E+02  0.34259548206E+02  0.58160965873E+02  0.00000000000E+00 0. -1.
        -14    1    6    6    0    0  0.11785157526E+02  0.31289538274E+02  0.19357197526E+03  0.19643837393E+03  0.00000000000E+00 0.  1.
</event>
<event>
12    1  0.1345781E-002  0.1774660E+03  0.7818608E-02  0.1170278E+00
          2   -1    0    0  502    0  0.00000000000E+00  0.00000000000E+00  0.98644401210E+02  0.98644401210E+02  0.00000000000E+00 0. -1.
         -2   -1    0    0    0  501 -0.00000000000E+00 -0.00000000000E+00 -0.32076933825E+03  0.32076933825E+03  0.00000000000E+00 0.  1.
          6    2    1    2  502    0  0.77367423578E+01 -0.42717152013E+02 -0.12531066437E+03  0.21713185884E+03  0.17192693001E+03 0.  0.
         24    2    3    3    0    0 -0.26374490759E+02 -0.83849714844E+02 -0.10960772588E+03  0.16123788576E+03  0.79103816528E+02 0.  0.
         -6    2    1    2    0  501 -0.77367423578E+01  0.42717152013E+02 -0.96814272675E+02  0.20228188062E+03  0.17222178600E+03 0.  0.
        -24    2    5    5    0    0 -0.73740055817E+01 -0.43422520804E+02 -0.44965501679E+02  0.10163119823E+03  0.79794190524E+02 0.  0.
          5    1    3    3  502    0  0.34111233117E+02  0.41132562832E+02 -0.15702938483E+02  0.55893973082E+02  0.47000000000E+01 0. -1.
        -11    1    4    4    0    0  0.84334873695E+01 -0.42055443363E+01 -0.60855039734E+02  0.61580404135E+02  0.00000000000E+00 0.  1.
         12    1    4    4    0    0 -0.34807978129E+02 -0.79644170508E+02 -0.48752686148E+02  0.99657481626E+02  0.00000000000E+00 0. -1.
         -5    1    5    5    0  501 -0.36273677608E+00  0.86139672816E+02 -0.51848770996E+02  0.10065068239E+03  0.47000000000E+01 0.  1.
         11    1    6    6    0    0  0.87121081647E+01  0.22016187490E+02 -0.13561914931E+02  0.27286239699E+02  0.00000000000E+00 0. -1.
        -12    1    6    6    0    0 -0.16086113746E+02 -0.65438708294E+02 -0.31403586748E+02  0.74344958533E+02  0.00000000000E+00 0.  1.
</event>
<event>
12    1  0.1345781E-002  0.1886476E+03  0.7818608E-02  0.1159687E+00
         -1   -1    0    0    0  501 -0.00000000000E+00  0.00000000000E+00  0.94957426476E+02  0.94957426476E+02  0.00000000000E+00 0.  1.
          1   -1    0    0  502    0  0.00000000000E+00 -0.00000000000E+00 -0.38288837094E+03  0.38288837094E+03  0.00000000000E+00 0. -1.
          6    2    1    2  502    0  0.43298519665E+02 -0.64795692444E+02 -0.10942097086E+03  0.21834748907E+03  0.17213202362E+03 0.  0.
         24    2    3    3    0    0  0.72950651963E+01 -0.58162814392E+02  0.63614046401E+01  0.96824272027E+02  0.76800659049E+02 0.  0.
         -6    2    1    2    0  501 -0.43298519665E+02  0.64795692444E+02 -0.17850997360E+03  0.25949830834E+03  0.17146520869E+03 0.  0.
        -24    2    5    5    0    0 -0.61103588344E+02  0.67205689815E+01 -0.17257977421E+03  0.19828558335E+03  0.75858945041E+02 0.  0.
          5    1    3    3  502    0  0.36003454468E+02 -0.66328780518E+01 -0.11578237550E+03  0.12152321705E+03  0.47000000000E+01 0. -1.
        -13    1    4    4    0    0  0.26272813792E+02 -0.34594922830E+01  0.24559334840E+02  0.36130177957E+02  0.00000000000E+00 0.  1.
         14    1    4    4    0    0 -0.18977748595E+02 -0.54703322109E+02 -0.18197930200E+02  0.60694094071E+02  0.00000000000E+00 0. -1.
         -5    1    5    5    0  501  0.17805068679E+02  0.58075123462E+02 -0.59301993937E+01  0.61212724990E+02  0.47000000000E+01 0.  1.
         13    1    6    6    0    0  0.85655077248E+01  0.23333782091E+02 -0.58828293604E+02  0.63863929080E+02  0.00000000000E+00 0. -1.
        -14    1    6    6    0    0 -0.69669096069E+02 -0.16613213109E+02 -0.11375148061E+03  0.13442165427E+03  0.00000000000E+00 0.  1.
</event>
<event>
12    1  0.1345781E-002  0.2484371E+03  0.7818608E-02  0.1114297E+00
         -2   -1    0    0    0  501 -0.00000000000E+00  0.00000000000E+00  0.87115005402E+02  0.87115005402E+02  0.00000000000E+00 0.  1.
          2   -1    0    0  502    0  0.00000000000E+00 -0.00000000000E+00 -0.70893697261E+03  0.70893697261E+03  0.00000000000E+00 0. -1.
          6    2    1    2  502    0 -0.17842072649E+03  0.92976483614E+01 -0.32082312620E+03  0.40578594863E+03  0.17266834073E+03 0.  0.
         24    2    3    3    0    0 -0.12195318635E+03 -0.36136300631E+02 -0.11603412721E+03  0.18849938457E+03  0.76744298954E+02 0.  0.
         -6    2    1    2    0  501  0.17842072649E+03 -0.92976483614E+01 -0.30099884101E+03  0.39026602939E+03  0.17258872935E+03 0.  0.
        -24    2    5    5    0    0  0.14008552926E+03  0.49559465922E+02 -0.15834840506E+03  0.23119062549E+03  0.79339723715E+02 0.  0.
          5    1    3    3  502    0 -0.56467540141E+02  0.45433948993E+02 -0.20478899899E+03  0.21728656406E+03  0.47000000000E+01 0. -1.
        -13    1    4    4    0    0 -0.65147736326E+02 -0.41782184738E+01 -0.10313149744E+03  0.12205650668E+03  0.00000000000E+00 0.  1.
         14    1    4    4    0    0 -0.56805450025E+02 -0.31958082157E+02 -0.12902629767E+02  0.66442877893E+02  0.00000000000E+00 0. -1.
         -5    1    5    5    0  501  0.38335197231E+02 -0.58857114283E+02 -0.14265043595E+03  0.15907540389E+03  0.47000000000E+01 0.  1.
         11    1    6    6    0    0  0.11169973777E+03  0.86614527072E+01 -0.13712019319E+03  0.17707004140E+03  0.00000000000E+00 0. -1.
        -12    1    6    6    0    0  0.28385791495E+02  0.40898013215E+02 -0.21228211877E+02  0.54120584099E+02  0.00000000000E+00 0.  1.
</event>
<event>
12    1  0.1345781E-002  0.1798163E+03  0.7818608E-02  0.1167981E+00
         -2   -1    0    0    0  501 -0.00000000000E+00  0.00000000000E+00  0.19161365588E+03  0.19161365588E+03  0.00000000000E+00 0. -1.
          2   -1    0    0  502    0  0.00000000000E+00 -0.00000000000E+00 -0.23420147239E+03  0.23420147239E+03  0.00000000000E+00 0.  1.
          6    2    1    2  502    0  0.46380074711E+02 -0.10002224134E+02 -0.13392362947E+03  0.22494129555E+03  0.17439005734E+03 0.  0.
         24    2    3    3    0    0 -0.38742061629E+02  0.18901641034E+02 -0.73626368950E+02  0.11659434755E+03  0.79468108711E+02 0.  0.
         -6    2    1    2    0  501 -0.46380074711E+02  0.10002224134E+02  0.91335812957E+02  0.20087383272E+03  0.17250191339E+03 0.  0.
        -24    2    5    5    0    0 -0.48676651818E+02 -0.34255104389E+02  0.11296344182E+03  0.15133768708E+03  0.81237477400E+02 0.  0.
          5    1    3    3  502    0  0.85122136340E+02 -0.28903865168E+02 -0.60297260515E+02  0.10834694801E+03  0.47000000000E+01 0. -1.
        -11    1    4    4    0    0 -0.25056841244E+02 -0.46561866758E+01 -0.83740757482E+02  0.87533078497E+02  0.00000000000E+00 0.  1.
         12    1    4    4    0    0 -0.13685220385E+02  0.23557827710E+02  0.10114388532E+02  0.29061269050E+02  0.00000000000E+00 0. -1.
         -5    1    5    5    0  501  0.22965771075E+01  0.44257328522E+02 -0.21627628864E+02  0.49536145638E+02  0.47000000000E+01 0.  1.
         13    1    6    6    0    0 -0.19114399727E+02  0.14790200130E+02 -0.57477869696E+00  0.24175207701E+02  0.00000000000E+00 0. -1.
        -14    1    6    6    0    0 -0.29562252091E+02 -0.49045304518E+02  0.11353822052E+03  0.12716247938E+03  0.00000000000E+00 0.  1.
</event>
<event>
12    1  0.1345781E-002  0.2285794E+03  0.7818608E-02  0.1127644E+00
         -2   -1    0    0    0  501 -0.00000000000E+00  0.00000000000E+00  0.86721287065E+02  0.86721287065E+02  0.00000000000E+00 0.  1.
          2   -1    0    0  502    0  0.00000000000E+00 -0.00000000000E+00 -0.60281660776E+03  0.60281660776E+03  0.00000000000E+00 0. -1.
          6    2    1    2  502    0  0.12659942733E+03  0.82526432881E+02 -0.26623762537E+03  0.35098418490E+03  0.17166653070E+03 0.  0.
         24    2    3    3    0    0  0.39879227884E+02  0.98850165649E+02 -0.20013621875E+03  0.24062865400E+03  0.80535302848E+02 0.  0.
         -6    2    1    2    0  501 -0.12659942733E+03 -0.82526432881E+02 -0.24985769533E+03  0.33855370993E+03  0.17132343525E+03 0.  0.
        -24    2    5    5    0    0 -0.50127891394E+02 -0.12856891851E+02 -0.20986093189E+03  0.22754212566E+03  0.71103467229E+02 0.  0.
          5    1    3    3  502    0  0.86720199444E+02 -0.16323732767E+02 -0.66101406617E+02  0.11035553090E+03  0.47000000000E+01 0. -1.
        -13    1    4    4    0    0  0.16634484142E+02  0.91667146346E+02 -0.96337259948E+02  0.13401656404E+03  0.00000000000E+00 0.  1.
         14    1    4    4    0    0  0.23244743742E+02  0.71830193023E+01 -0.10379895880E+03  0.10661208996E+03  0.00000000000E+00 0. -1.
         -5    1    5    5    0  501 -0.76471535934E+02 -0.69669541031E+02 -0.39996763431E+02  0.11101158426E+03  0.47000000000E+01 0.  1.
         11    1    6    6    0    0 -0.68085968507E+02 -0.11666973976E+02 -0.17824550649E+03  0.19116296182E+03  0.00000000000E+00 0. -1.
        -12    1    6    6    0    0  0.17958077113E+02 -0.11899178750E+01 -0.31615425403E+02  0.36379163838E+02  0.00000000000E+00 0.  1.
</event>
<event>
12    1  0.1345781E-002  0.1861331E+03  0.7818608E-02  0.1161996E+00
          1   -1    0    0  502    0  0.00000000000E+00  0.00000000000E+00  0.29247970160E+03  0.29247970160E+03  0.00000000000E+00 0.  1.
         -1   -1    0    0    0  501 -0.00000000000E+00 -0.00000000000E+00 -0.12047032161E+03  0.12047032161E+03  0.00000000000E+00 0. -1.
          6    2    1    2  502    0  0.49616156920E+02  0.47742744994E+02  0.59788433274E+02  0.19648314796E+03  0.17403975969E+03 0.  0.
         24    2    3    3    0    0  0.86668542250E+02  0.51656181352E+02  0.81647099612E+02  0.15303104172E+03  0.81070670209E+02 0.  0.
         -6    2    1    2    0  501 -0.49616156920E+02 -0.47742744994E+02  0.11222094671E+03  0.21646687525E+03  0.17182326522E+03 0.  0.
        -24    2    5    5    0    0 -0.85770271016E+02 -0.69617546610E+02  0.10768078084E+03  0.17370789937E+03  0.79850745484E+02 0.  0.
          5    1    3    3  502    0 -0.37052385330E+02 -0.39134363581E+01 -0.21858666338E+02  0.43452106242E+02  0.47000000000E+01 0. -1.
        -11    1    4    4    0    0 -0.48672416761E+01  0.95631230045E+01  0.44300496692E+02  0.45581546379E+02  0.00000000000E+00 0.  1.
         12    1    4    4    0    0  0.91535783926E+02  0.42093058347E+02  0.37346602920E+02  0.10744949534E+03  0.00000000000E+00 0. -1.
         -5    1    5    5    0  501  0.36154114096E+02  0.21874801616E+02  0.45401658650E+01  0.42758975875E+02  0.47000000000E+01 0.  1.
         11    1    6    6    0    0 -0.48984174605E+02 -0.78327623157E+02  0.50852573981E+02  0.10545449346E+03  0.00000000000E+00 0. -1.
        -12    1    6    6    0    0 -0.36786096411E+02  0.87100765470E+01  0.56828206864E+02  0.68253405907E+02  0.00000000000E+00 0.  1.
</event>
<event>
12    1  0.1345781E-002  0.2330030E+03  0.7818608E-02  0.1124544E+00
          1   -1    0    0  502    0  0.00000000000E+00  0.00000000000E+00  0.12195250180E+04  0.12195250180E+04  0.00000000000E+00 0. -1.
         -1   -1    0    0    0  501 -0.00000000000E+00 -0.00000000000E+00 -0.45816624306E+02  0.45816624306E+02  0.00000000000E+00 0.  1.
          6    2    1    2  502    0  0.66902224727E+02  0.14359751739E+03  0.48326037904E+03  0.53701346148E+03  0.17247234326E+03 0.  0.
         24    2    3    3    0    0 -0.92286502687E+01  0.11650827595E+03  0.37071703774E+03  0.39838507045E+03  0.87293733658E+02 0.  0.
         -6    2    1    2    0  501 -0.66902224727E+02 -0.14359751739E+03  0.69044801469E+03  0.72832818086E+03  0.16925520190E+03 0.  0.
        -24    2    5    5    0    0  0.27548656391E+02 -0.63439845866E+02  0.38031006321E+03  0.39433138417E+03  0.77961233007E+02 0.  0.
          5    1    3    3  502    0  0.76130874996E+02  0.27089241448E+02  0.11254334130E+03  0.13862839103E+03  0.47000000000E+01 0. -1.
        -11    1    4    4    0    0  0.12983806964E+02  0.91573119623E+02  0.15813653049E+03  0.18319764670E+03  0.00000000000E+00 0.  1.
         12    1    4    4    0    0 -0.22212457233E+02  0.24935156324E+02  0.21258050725E+03  0.21518742375E+03  0.00000000000E+00 0. -1.
         -5    1    5    5    0  501 -0.94450881119E+02 -0.80157671528E+02  0.31013795148E+03  0.33399679669E+03  0.47000000000E+01 0.  1.
         11    1    6    6    0    0  0.11582145172E+02 -0.52976704129E+02  0.36717885442E+03  0.37116167421E+03  0.00000000000E+00 0. -1.
        -12    1    6    6    0    0  0.15966511219E+02 -0.10463141736E+02  0.13131208787E+02  0.23169709962E+02  0.00000000000E+00 0.  1.
</event>
<event>
12    1  0.1345781E-002  0.2248017E+03  0.7818608E-02  0.1130353E+00
         -2   -1    0    0    0  501 -0.00000000000E+00  0.00000000000E+00  0.43160539514E+02  0.43160539514E+02  0.00000000000E+00 0.  1.
          2   -1    0    0  502    0  0.00000000000E+00 -0.00000000000E+00 -0.11888959425E+04  0.11888959425E+04  0.00000000000E+00 0. -1.
          6    2    1    2  502    0  0.13669828100E+03  0.51571413068E+02 -0.49626642617E+03  0.54468155277E+03  0.17044529183E+03 0.  0.
         24    2    3    3    0    0  0.48267525873E+02  0.88759317009E+02 -0.30049032849E+03  0.32661434048E+03  0.78578110699E+02 0.  0.
         -6    2    1    2    0  501 -0.13669828100E+03 -0.51571413068E+02 -0.64946897684E+03  0.68737492927E+03  0.17125510456E+03 0.  0.
        -24    2    5    5    0    0 -0.62072342702E+02  0.29750720080E+02 -0.41537239419E+03  0.42852049138E+03  0.79733961425E+02 0.  0.
          5    1    3    3  502    0  0.88430755130E+02 -0.37187903941E+02 -0.19577609768E+03  0.21806721229E+03  0.47000000000E+01 0. -1.
        -11    1    4    4    0    0  0.31189132065E+01 -0.11509915434E+02 -0.86152376262E+01  0.14711495242E+02  0.00000000000E+00 0.  1.
         12    1    4    4    0    0  0.45148612666E+02  0.10026923244E+03 -0.29187509087E+03  0.31190284524E+03  0.00000000000E+00 0. -1.
         -5    1    5    5    0  501 -0.74625938301E+02 -0.81322133148E+02 -0.23409658265E+03  0.25885443789E+03  0.47000000000E+01 0.  1.
         13    1    6    6    0    0  0.91870667932E+01  0.96741131176E+01 -0.10617508339E+02  0.17050576067E+02  0.00000000000E+00 0. -1.
        -14    1    6    6    0    0 -0.71259409496E+02  0.20076606962E+02 -0.40475488585E+03  0.41146991531E+03  0.00000000000E+00 0.  1.
</event>
<event>
12    1  0.1345781E-002  0.1911663E+03  0.7818608E-02  0.1157414E+00
          2   -1    0    0  502    0  0.00000000000E+00  0.00000000000E+00  0.13701283584E+04  0.13701283584E+04  0.00000000000E+00 0. -1.
         -2   -1    0    0    0  501 -0.00000000000E+00 -0.00000000000E+00 -0.40667918743E+02  0.40667918743E+02  0.00000000000E+00 0.  1.
          6    2    1    2  502    0  0.79205729597E+02 -0.24529687276E+02  0.25067381544E+03  0.31518406831E+03  0.17212896913E+03 0.  0.
         24    2    3    3    0    0  0.68772554589E+02  0.51803891411E+01  0.57284072925E+02  0.11919115443E+03  0.78540216375E+02 0.  0.
         -6    2    1    2    0  501 -0.79205729597E+02  0.24529687276E+02  0.10787866242E+04  0.10956122088E+04  0.17236669743E+03 0.  0.
        -24    2    5    5    0    0 -0.58094588115E+02  0.80051039412E+02  0.61516416631E+03  0.62817646531E+03  0.79972307606E+02 0.  0.
          5    1    3    3  502    0  0.10433175008E+02 -0.29710076417E+02  0.19338974251E+03  0.19599291388E+03  0.47000000000E+01 0. -1.
        -11    1    4    4    0    0  0.42442656526E+02  0.39866183595E+02  0.45996029789E+02  0.74204625488E+02  0.00000000000E+00 0.  1.
         12    1    4    4    0    0  0.26329898063E+02 -0.34685794454E+02  0.11288043136E+02  0.44986528947E+02  0.00000000000E+00 0. -1.
         -5    1    5    5    0  501 -0.21111141482E+02 -0.55521352136E+02  0.46362245787E+03  0.46743574347E+03  0.47000000000E+01 0.  1.
         13    1    6    6    0    0  0.14537261761E+02 -0.49558830881E+01  0.78565460009E+02  0.80052634330E+02  0.00000000000E+00 0. -1.
        -14    1    6    6    0    0 -0.72631849876E+02  0.85006922500E+02  0.53659870630E+03  0.54812383098E+03  0.00000000000E+00 0.  1.
</event>
<event>
12    1  0.1345781E-002  0.2645515E+03  0.7818608E-02  0.1104439E+00
         -1   -1    0    0    0  501 -0.00000000000E+00  0.00000000000E+00  0.45823231344E+03  0.45823231344E+03  0.00000000000E+00 0.  1.
          1   -1    0    0  502    0  0.00000000000E+00 -0.00000000000E+00 -0.18988638521E+03  0.18988638521E+03  0.00000000000E+00 0. -1.
          6    2    1    2  502    0 -0.13044803162E+03 -0.15372261666E+03 -0.89799294389E+01  0.26516465275E+03  0.17200093636E+03 0.  0.
         24    2    3    3    0    0 -0.25631772178E+02 -0.30135766077E+02 -0.44023284965E+02  0.99302406754E+02  0.79735601998E+02 0.  0.
         -6    2    1    2    0  501  0.13044803162E+03  0.15372261666E+03  0.27732585767E+03  0.38295404589E+03  0.17057795316E+03 0.  0.
        -24    2    5    5    0    0  0.75366425603E+02  0.48001087511E+02  0.57742832624E+02  0.13305442617E+03  0.79906464657E+02 0.  0.
          5    1    3    3  502    0 -0.10481625944E+03 -0.12358685059E+03  0.35043355526E+02  0.16586224600E+03  0.47000000000E+01 0. -1.
        -11    1    4    4    0    0 -0.50100424091E+02 -0.64208655642E-01 -0.22032764520E+02  0.54731155015E+02  0.00000000000E+00 0.  1.
         12    1    4    4    0    0  0.24468651913E+02 -0.30071557422E+02 -0.21990520445E+02  0.44571251740E+02  0.00000000000E+00 0. -1.
         -5    1    5    5    0  501  0.55081606014E+02  0.10572152915E+03  0.21958302505E+03  0.24989961972E+03  0.47000000000E+01 0.  1.
         13    1    6    6    0    0  0.67615813160E+02  0.67346157016E+02  0.33632383114E+02  0.10118567215E+03  0.00000000000E+00 0. -1.
        -14    1    6    6    0    0  0.77506124429E+01 -0.19345069506E+02  0.24110449510E+02  0.31868754023E+02  0.00000000000E+00 0.  1.
</event>
<event>
12    1  0.1345781E-002  0.3619465E+03  0.7818608E-02  0.1057816E+00
         -2   -1    0    0    0  501 -0.00000000000E+00  0.00000000000E+00  0.57329109743E+02  0.57329109743E+02  0.00000000000E+00 0. -1.
          2   -1    0    0  502    0  0.00000000000E+00 -0.00000000000E+00 -0.23538298739E+04  0.23538298739E+04  0.00000000000E+00 0.  1.
          6    2    1    2  502    0 -0.13502583039E+03  0.28754283726E+03 -0.94081215576E+03  0.10078589611E+04  0.17245090593E+03 0.  0.
         24    2    3    3    0    0 -0.15912244740E+03  0.18864132180E+03 -0.68145622821E+03  0.72920192484E+03  0.80295421246E+02 0.  0.
         -6    2    1    2    0  501  0.13502583039E+03 -0.28754283726E+03 -0.13556886084E+04  0.14033000225E+04  0.17448923215E+03 0.  0.
        -24    2    5    5    0    0  0.16283335674E+03 -0.27124361646E+03 -0.11579645679E+04  0.12029108778E+04  0.77619829612E+02 0.  0.
          5    1    3    3  502    0  0.24096617011E+02  0.98901515461E+02 -0.25935592755E+03  0.27865703628E+03  0.47000000000E+01 0. -1.
        -13    1    4    4    0    0 -0.12361876522E+03  0.15703788722E+03 -0.44214756367E+03  0.48521847162E+03  0.00000000000E+00 0.  1.
         14    1    4    4    0    0 -0.35503682183E+02  0.31603434577E+02 -0.23930866454E+03  0.24398345323E+03  0.00000000000E+00 0. -1.
         -5    1    5    5    0  501 -0.27807526341E+02 -0.16299220800E+02 -0.19772404053E+03  0.20038914473E+03  0.47000000000E+01 0.  1.
         11    1    6    6    0    0  0.44971828383E+01 -0.17748851097E+02 -0.16298859155E+03  0.16401380230E+03  0.00000000000E+00 0. -1.
        -12    1    6    6    0    0  0.15833617390E+03 -0.25349476536E+03 -0.99497597630E+03  0.10388970755E+04  0.00000000000E+00 0.  1.
</event>
<event>
12    1  0.1345781E-002  0.2773978E+03  0.7818608E-02  0.1097119E+00
          2   -1    0    0  502    0  0.00000000000E+00  0.00000000000E+00  0.15464848718E+04  0.15464848718E+04  0.00000000000E+00 0.  1.
         -2   -1    0    0    0  501 -0.00000000000E+00 -0.00000000000E+00 -0.89941832141E+02  0.89941832141E+02  0.00000000000E+00 0. -1.
          6    2    1    2  502    0  0.10701169003E+03  0.18713437130E+03  0.12718130391E+04  0.13012286405E+04  0.17092920664E+03 0.  0.
         24    2    3    3    0    0  0.11707887192E+03  0.20793612495E+03  0.11649115328E+04  0.11917568032E+04  0.79501600383E+02 0.  0.
         -6    2    1    2    0  501 -0.10701169003E+03 -0.18713437130E+03  0.18473000061E+03  0.33519806350E+03  0.17821838829E+03 0.  0.
        -24    2    5    5    0    0 -0.31326845235E+02 -0.18468393211E+03  0.13240760326E+03  0.24303557846E+03  0.80280713660E+02 0.  0.
          5    1    3    3  502    0 -0.10067181886E+02 -0.20801753650E+02  0.10690150633E+03  0.10947183730E+03  0.47000000000E+01 0. -1.
        -11    1    4    4    0    0 -0.61793522445E+01  0.53859630724E+02  0.24980503473E+03  0.25562002972E+03  0.00000000000E+00 0.  1.
         12    1    4    4    0    0  0.12325822416E+03  0.15407649422E+03  0.91510649803E+03  0.93613677346E+03  0.00000000000E+00 0. -1.
         -5    1    5    5    0  501 -0.75684844796E+02 -0.24504391906E+01  0.52322397351E+02  0.92162485038E+02  0.47000000000E+01 0.  1.
         11    1    6    6    0    0 -0.42316163230E+02 -0.10655686126E+03  0.39768151372E+02  0.12135290774E+03  0.00000000000E+00 0. -1.
        -12    1    6    6    0    0  0.10989317995E+02 -0.78127070846E+02  0.92639451883E+02  0.12168267072E+03  0.00000000000E+00 0.  1.
</event>
<event>
12    1  0.1345781E-002  0.3764434E+03  0.7818608E-02  0.1052256E+00
         -2   -1    0    0    0  501 -0.00000000000E+00  0.00000000000E+00  0.47948845086E+03  0.47948845086E+03  0.00000000000E+00 0. -1.
          2   -1    0    0  502    0  0.00000000000E+00 -0.00000000000E+00 -0.44515353932E+03  0.44515353932E+03  0.00000000000E+00 0.  1.
          6    2    1    2  502    0 -0.28622112682E+03  0.17552957073E+03  0.28516311211E+03  0.47162469463E+03  0.16845975315E+03 0.  0.
         24    2    3    3    0    0 -0.18074356819E+03  0.77212524640E+02  0.77964684635E+02  0.21914690298E+03  0.57592201136E+02 0.  0.
         -6    2    1    2    0  501  0.28622112682E+03 -0.17552957073E+03 -0.25082820057E+03  0.45301729556E+03  0.17197883658E+03 0.  0.
        -24    2    5    5    0    0  0.97935368215E+02 -0.11979336931E+03 -0.10543604145E+03  0.20864254036E+03  0.92049786167E+02 0.  0.
          5    1    3    3  502    0 -0.10547755864E+03  0.98317046091E+02  0.20719842748E+03  0.25247779165E+03  0.47000000000E+01 0. -1.
        -13    1    4    4    0    0 -0.72259366930E+02  0.10940884593E+01  0.28857533081E+02  0.77816260217E+02  0.00000000000E+00 0.  1.
         14    1    4    4    0    0 -0.10848420126E+03  0.76118436181E+02  0.49107151554E+02  0.14133064276E+03  0.00000000000E+00 0. -1.
         -5    1    5    5    0  501  0.18828575861E+03 -0.55736201419E+02 -0.14539215912E+03  0.24437475519E+03  0.47000000000E+01 0.  1.
         11    1    6    6    0    0  0.19738753679E+02 -0.26784746201E+02 -0.76950575302E+02  0.83835744556E+02  0.00000000000E+00 0. -1.
        -12    1    6    6    0    0  0.78196614536E+02 -0.93008623111E+02 -0.28485466150E+02  0.12480679581E+03  0.00000000000E+00 0.  1.
</event>
<event>
12    1  0.1345781E-002  0.2254548E+03  0.7818608E-02  0.1129880E+00
          2   -1    0    0  502    0  0.00000000000E+00  0.00000000000E+00  0.42391732882E+02  0.42391732882E+02  0.00000000000E+00 0.  1.
         -2   -1    0    0    0  501 -0.00000000000E+00 -0.00000000000E+00 -0.11991356878E+04  0.11991356878E+04  0.00000000000E+00 0. -1.
          6    2    1    2  502    0  0.28102398070E+02  0.14195068429E+03 -0.58545683826E+03  0.62778270525E+03  0.17438943201E+03 0.  0.
         24    2    3    3    0    0 -0.39900499057E+02  0.44158338080E+02 -0.33787295152E+03  0.35299622820E+03  0.83103532463E+02 0.  0.
         -6    2    1    2    0  501 -0.28102398070E+02 -0.14195068429E+03 -0.57128711665E+03  0.61374471543E+03  0.17138805243E+03 0.  0.
        -24    2    5    5    0    0  0.38432755603E+02 -0.10913819985E+03 -0.44891423604E+03  0.47056371906E+03  0.80734125457E+02 0.  0.
          5    1    3    3  502    0  0.68002897127E+02  0.97792346212E+02 -0.24758388674E+03  0.27478647705E+03  0.47000000000E+01 0. -1.
        -13    1    4    4    0    0  0.94483907370E+01 -0.16439497568E+02 -0.12090746656E+03  0.12238523047E+03  0.00000000000E+00 0.  1.
         14    1    4    4    0    0 -0.49348889794E+02  0.60597835648E+02 -0.21696548496E+03  0.23061099773E+03  0.00000000000E+00 0. -1.
         -5    1    5    5    0  501 -0.66535153673E+02 -0.32812484439E+02 -0.12237288062E+03  0.14318099636E+03  0.47000000000E+01 0.  1.
         13    1    6    6    0    0 -0.13861345531E+02 -0.45318940193E+02 -0.26196170259E+03  0.26621396820E+03  0.00000000000E+00 0. -1.
        -14    1    6    6    0    0  0.52294101134E+02 -0.63819259661E+02 -0.18695253345E+03  0.20434975087E+03  0.00000000000E+00 0.  1.
</event>
<event>
12    1  0.1345781E-002  0.2511205E+03  0.7818608E-02  0.1112599E+00
          1   -1    0    0  502    0  0.00000000000E+00  0.00000000000E+00  0.14572734697E+04  0.14572734697E+04  0.00000000000E+00 0. -1.
         -1   -1    0    0    0  501 -0.00000000000E+00 -0.00000000000E+00 -0.43948507641E+02  0.43948507641E+02  0.00000000000E+00 0.  1.
          6    2    1    2  502    0 -0.18315887154E+03 -0.10501776869E+02  0.80042692165E+03  0.83897641805E+03  0.17187412138E+03 0.  0.
         24    2    3    3    0    0 -0.29176603615E+02 -0.25234288001E+02  0.20572608856E+03  0.22446949653E+03  0.81088148750E+02 0.  0.
         -6    2    1    2    0  501  0.18315887154E+03  0.10501776869E+02  0.61289804041E+03  0.66224555929E+03  0.17107809130E+03 0.  0.
        -24    2    5    5    0    0  0.14084371365E+03  0.29857369882E+02  0.27081332976E+03  0.31697863237E+03  0.80044859861E+02 0.  0.
          5    1    3    3  502    0 -0.15398226793E+03  0.14732511132E+02  0.59470083308E+03  0.61450692152E+03  0.47000000000E+01 0. -1.
        -13    1    4    4    0    0 -0.24084707336E+02  0.11152261038E+02  0.15517138166E+02  0.30744554486E+02  0.00000000000E+00 0.  1.
         14    1    4    4    0    0 -0.50918962786E+01 -0.36386549038E+02  0.19020895040E+03  0.19372494204E+03  0.00000000000E+00 0. -1.
         -5    1    5    5    0  501  0.42315157891E+02 -0.19355593013E+02  0.34208471065E+03  0.34526692692E+03  0.47000000000E+01 0.  1.
         13    1    6    6    0    0  0.60529873234E+02  0.26648937532E+02  0.19716513589E+03  0.20796182879E+03  0.00000000000E+00 0. -1.
        -14    1    6    6    0    0  0.80313840418E+02  0.32084323497E+01  0.73648193871E+02  0.10901680357E+03  0.00000000000E+00 0.  1.
</event>
<event>
12    1  0.1345781E-002  0.1966557E+03  0.7818608E-02  0.1152592E+00
          2   -1    0    0  502    0  0.00000000000E+00  0.00000000000E+00  0.46016033085E+03  0.46016033085E+03  0.00000000000E+00 0. -1.
         -2   -1    0    0    0  501 -0.00000000000E+00 -0.00000000000E+00 -0.87758041999E+02  0.87758041999E+02  0.00000000000E+00 0.  1.
          6    2    1    2  502    0  0.47858803323E+02 -0.59300484816E+02  0.12312662762E+03  0.22468478751E+03  0.17180242941E+03 0.  0.
         24    2    3    3    0    0  0.82322300917E+02 -0.41705744631E+02  0.33738457650E+02  0.12716739173E+03  0.80727514707E+02 0.  0.
         -6    2    1    2    0  501 -0.47858803323E+02  0.59300484816E+02  0.24927566123E+03  0.32323358535E+03  0.19114021779E+03 0.  0.
        -24    2    5    5    0    0  0.10111951254E+02 -0.41331109173E+02  0.95497319377E+02  0.13047157011E+03  0.78054983532E+02 0.  0.
          5    1    3    3  502    0 -0.34463497594E+02 -0.17594740185E+02  0.89388169973E+02  0.97517395780E+02  0.47000000000E+01 0. -1.
        -13    1    4    4    0    0  0.87833543266E+02 -0.31868607504E+02  0.51076361963E+02  0.10648537091E+03  0.00000000000E+00 0.  1.
         14    1    4    4    0    0 -0.55112423492E+01 -0.98371371265E+01 -0.17337904312E+02  0.20682020816E+02  0.00000000000E+00 0. -1.
         -5    1    5    5    0  501 -0.57970754577E+02  0.10063159399E+03  0.15377834186E+03  0.19276201524E+03  0.47000000000E+01 0.  1.
         13    1    6    6    0    0  0.11686868709E+02 -0.57239449130E+02  0.98195104199E+02  0.11425942379E+03  0.00000000000E+00 0. -1.
        -14    1    6    6    0    0 -0.15749174549E+01  0.15908339956E+02 -0.26977848215E+01  0.16212146314E+02  0.00000000000E+00 0.  1.
</event>
<event>
12    1  0.1345781E-002  0.2059446E+03  0.7818608E-02  0.1144818E+00
         -2   -1    0    0    0  501 -0.00000000000E+00  0.00000000000E+00  0.17900306214E+02  0.17900306214E+02  0.00000000000E+00 0. -1.
          2   -1    0    0  502    0  0.00000000000E+00 -0.00000000000E+00 -0.24478578133E+04  0.24478578133E+04  0.00000000000E+00 0.  1.
          6    2    1    2  502    0 -0.10443076075E+03 -0.45700159682E+02 -0.99882629735E+03  0.10199967088E+04  0.17246746148E+03 0.  0.
         24    2    3    3    0    0 -0.14650170591E+01 -0.56658936834E+02 -0.37905690543E+03  0.39161925189E+03  0.80430836748E+02 0.  0.
         -6    2    1    2    0  501  0.10443076075E+03  0.45700159682E+02 -0.14311312097E+04  0.14457614107E+04  0.17057323614E+03 0.  0.
        -24    2    5    5    0    0  0.58208836504E+02  0.19898747762E+02 -0.13063686133E+04  0.13101517702E+04  0.78195129642E+02 0.  0.
          5    1    3    3  502    0 -0.10296574369E+03  0.10958777152E+02 -0.61976939193E+03  0.62837745690E+03  0.47000000000E+01 0. -1.
        -13    1    4    4    0    0  0.26256315629E+02 -0.31398288717E+02 -0.31294576522E+03  0.31561099254E+03  0.00000000000E+00 0.  1.
         14    1    4    4    0    0 -0.27721332689E+02 -0.25260648117E+02 -0.66111140205E+02  0.76008259344E+02  0.00000000000E+00 0. -1.
         -5    1    5    5    0  501  0.46221924246E+02  0.25801411920E+02 -0.12476259642E+03  0.13560964052E+03  0.47000000000E+01 0.  1.
         11    1    6    6    0    0 -0.54577273895E+01  0.32580649351E+01 -0.84887828196E+01  0.10604772941E+02  0.00000000000E+00 0. -1.
        -12    1    6    6    0    0  0.63666563894E+02  0.16640682827E+02 -0.12978798305E+04  0.12995469973E+04  0.00000000000E+00 0.  1.
</event>
<event>
12    1  0.1345781E-002  0.2029282E+03  0.7818608E-02  0.1147292E+00
          2   -1    0    0  502    0  0.00000000000E+00  0.00000000000E+00  0.18274898470E+04  0.18274898470E+04  0.00000000000E+00 0.  1.
         -2   -1    0    0    0  501 -0.00000000000E+00 -0.00000000000E+00 -0.22578421235E+02  0.22578421235E+02  0.00000000000E+00 0. -1.
          6    2    1    2  502    0 -0.90069386809E+02 -0.58533968944E+02  0.95415059517E+03  0.97608567201E+03  0.17550259512E+03 0.  0.
         24    2    3    3    0    0  0.70272005759E+01 -0.38483605237E+02  0.65334198970E+03  0.65932445044E+03  0.79514816417E+02 0.  0.
         -6    2    1    2    0  501  0.90069386809E+02  0.58533968944E+02  0.85076083060E+03  0.87398259622E+03  0.16885753657E+03 0.  0.
        -24    2    5    5    0    0  0.34428387644E+02  0.26191463878E+02  0.19643615773E+03  0.21648367915E+03  0.80041942879E+02 0.  0.
          5    1    3    3  502    0 -0.97096587385E+02 -0.20050363707E+02  0.30080860547E+03  0.31676122157E+03  0.47000000000E+01 0. -1.
        -13    1    4    4    0    0 -0.84928176010E+01 -0.58108589984E+02  0.54378014769E+03  0.54694203093E+03  0.00000000000E+00 0.  1.
         14    1    4    4    0    0  0.15520018177E+02  0.19624984747E+02  0.10956184201E+03  0.11238241951E+03  0.00000000000E+00 0. -1.
         -5    1    5    5    0  501  0.55640999165E+02  0.32342505065E+02  0.65432467287E+03  0.65749891707E+03  0.47000000000E+01 0.  1.
         11    1    6    6    0    0  0.41883612295E+02 -0.16384216582E+02  0.12662576473E+03  0.13437545842E+03  0.00000000000E+00 0. -1.
        -12    1    6    6    0    0 -0.74552246511E+01  0.42575680460E+02  0.69810392999E+02  0.82108220733E+02  0.00000000000E+00 0.  1.
</event>
<event>
12    1  0.1345781E-002  0.2018297E+03  0.7818608E-02  0.1148204E+00
          1   -1    0    0  502    0  0.00000000000E+00  0.00000000000E+00  0.79207541258E+02  0.79207541258E+02  0.00000000000E+00 0.  1.
         -1   -1    0    0    0  501 -0.00000000000E+00 -0.00000000000E+00 -0.53062751749E+03  0.53062751749E+03  0.00000000000E+00 0. -1.
          6    2    1    2  502    0  0.44119794740E+02  0.88604387323E+02 -0.28278785430E+03  0.34950911626E+03  0.17997321487E+03 0.  0.
         24    2    3    3    0    0 -0.88144511688E+01  0.11848561024E+03 -0.18875794287E+03  0.23744379550E+03  0.81446059724E+02 0.  0.
         -6    2    1    2    0  501 -0.44119794740E+02 -0.88604387323E+02 -0.16863212193E+03  0.26032594248E+03  0.17185898301E+03 0.  0.
        -24    2    5    5    0    0  0.60448004117E+01 -0.37356140770E+02 -0.16592103648E+03  0.18840717326E+03  0.80842140788E+02 0.  0.
          5    1    3    3  502    0  0.52934245908E+02 -0.29881222916E+02 -0.94029911433E+02  0.11206532076E+03  0.47000000000E+01 0. -1.
        -13    1    4    4    0    0  0.15701355682E+02  0.11508265851E+03 -0.13387086569E+03  0.17723419405E+03  0.00000000000E+00 0.  1.
         14    1    4    4    0    0 -0.24515806851E+02  0.34029517264E+01 -0.54887077172E+02  0.60209601447E+02  0.00000000000E+00 0. -1.
         -5    1    5    5    0  501 -0.50164595151E+02 -0.51248246552E+02 -0.27110854521E+01  0.71918769217E+02  0.47000000000E+01 0.  1.
         13    1    6    6    0    0  0.33274345390E+02 -0.46334249493E+02 -0.13320487116E+03  0.14490542584E+03  0.00000000000E+00 0. -1.
        -14    1    6    6    0    0 -0.27229544978E+02  0.89781087223E+01 -0.32716165311E+02  0.43501747420E+02  0.00000000000E+00 0.  1.
</event>
<event>
12    1  0.1345781E-002  0.2395958E+03  0.7818608E-02  0.1120062E+00
         -2   -1    0    0    0  501 -0.00000000000E+00  0.00000000000E+00  0.23818457650E+02  0.23818457650E+02  0.00000000000E+00 0.  1.
          2   -1    0    0  502    0  0.00000000000E+00 -0.00000000000E+00 -0.24114716194E+04  0.24114716194E+04  0.00000000000E+00 0. -1.
          6    2    1    2  502    0  0.16301597173E+03 -0.37901008603E+02 -0.12049993391E+04  0.12280596177E+04  0.16761958126E+03 0.  0.
         24    2    3    3    0    0  0.12568915485E+03  0.36330047032E+02 -0.79411289992E+03  0.80883020945E+03  0.80457280203E+02 0.  0.
         -6    2    1    2    0  501 -0.16301597173E+03  0.37901008603E+02 -0.11826538227E+04  0.12072304593E+04  0.17528440931E+03 0.  0.
        -24    2    5    5    0    0 -0.20346958552E+02 -0.39353671949E+01 -0.26731703057E+03  0.27988572157E+03  0.80300289351E+02 0.  0.
          5    1    3    3  502    0  0.37326816880E+02 -0.74231055635E+02 -0.41088643917E+03  0.41922940829E+03  0.47000000000E+01 0. -1.
        -11    1    4    4    0    0  0.51176121471E+02 -0.20447039619E+02 -0.20332439659E+03  0.21066059690E+03  0.00000000000E+00 0.  1.
         12    1    4    4    0    0  0.74513033377E+02  0.56777086651E+02 -0.59078850332E+03  0.59816961254E+03  0.00000000000E+00 0. -1.
         -5    1    5    5    0  501 -0.14266901318E+03  0.41836375798E+02 -0.91533679212E+03  0.92734473777E+03  0.47000000000E+01 0.  1.
         13    1    6    6    0    0  0.12393850177E+01  0.35359698612E+02 -0.15421400965E+03  0.15822074811E+03  0.00000000000E+00 0. -1.
        -14    1    6    6    0    0 -0.21586343570E+02 -0.39295065807E+02 -0.11310302092E+03  0.12166497346E+03  0.00000000000E+00 0.  1.
</event>
<event>
12    1  0.1345781E-002  0.1900479E+03  0.7818608E-02  0.1158418E+00
          2   -1    0    0  502    0  0.00000000000E+00  0.00000000000E+00  0.41270664900E+03  0.41270664900E+03  0.00000000000E+00 0.  1.
         -2   -1    0    0    0  501 -0.00000000000E+00 -0.00000000000E+00 -0.96716633717E+02  0.96716633717E+02  0.00000000000E+00 0. -1.
          6    2    1    2  502    0  0.18522173226E+02 -0.78754279057E+02  0.23723924586E+03  0.30455062371E+03  0.17298356932E+03 0.  0.
         24    2    3    3    0    0 -0.21306836777E+01 -0.11553443586E+03  0.13949935068E+03  0.19799313902E+03  0.79927896123E+02 0.  0.
         -6    2    1    2    0  501 -0.18522173226E+02  0.78754279057E+02  0.78750769423E+02  0.20487265901E+03  0.17095559469E+03 0.  0.
        -24    2    5    5    0    0  0.12961610349E+02  0.34546682689E+02  0.11117951327E+03  0.14147507521E+03  0.79327398214E+02 0.  0.
          5    1    3    3  502    0  0.20652856904E+02  0.36780156799E+02  0.97739895183E+02  0.10655748469E+03  0.47000000000E+01 0. -1.
        -13    1    4    4    0    0  0.18081865684E+02 -0.50834952824E+02  0.11298834594E+03  0.12520987427E+03  0.00000000000E+00 0.  1.
         14    1    4    4    0    0 -0.20212549361E+02 -0.64699483031E+02  0.26511004737E+02  0.72783264755E+02  0.00000000000E+00 0. -1.
         -5    1    5    5    0  501 -0.31483783575E+02  0.44207596368E+02 -0.32428743843E+02  0.63397583803E+02  0.47000000000E+01 0.  1.
         13    1    6    6    0    0 -0.51334424785E+01  0.10355214479E+02 -0.10795025469E+02  0.15815033148E+02  0.00000000000E+00 0. -1.
        -14    1    6    6    0    0  0.18095052827E+02  0.24191468210E+02  0.12197453873E+03  0.12566004206E+03  0.00000000000E+00 0.  1.
</event>
<event>
12    1  0.1345781E-002  0.2159254E+03  0.7818608E-02  0.1136958E+00
         -2   -1    0    0    0  501 -0.00000000000E+00  0.00000000000E+00  0.41983977583E+02  0.41983977583E+02  0.00000000000E+00 0. -1.
          2   -1    0    0  502    0  0.00000000000E+00 -0.00000000000E+00 -0.11895607420E+04  0.11895607420E+04  0.00000000000E+00 0.  1.
          6    2    1    2  502    0  0.12633506569E+03 -0.13485643093E+02 -0.41216539304E+03  0.46475564224E+03  0.17313314062E+03 0.  0.
         24    2    3    3    0    0  0.14762610713E+03 -0.45913376777E+02 -0.31117343490E+03  0.35646745283E+03  0.79615530305E+02 0.  0.
         -6    2    1    2    0  501 -0.12633506569E+03  0.13485643093E+02 -0.73541137138E+03  0.76678907734E+03  0.17604883580E+03 0.  0.
        -24    2    5    5    0    0 -0.41124447637E+02  0.57694252700E+02 -0.24661398583E+03  0.26863224992E+03  0.79529747269E+02 0.  0.
          5    1    3    3  502    0 -0.21291041436E+02  0.32427733684E+02 -0.10099195814E+03  0.10828818941E+03  0.47000000000E+01 0. -1.
        -11    1    4    4    0    0  0.99540818871E+02 -0.22461440093E+02 -0.27096563040E+03  0.28954319846E+03  0.00000000000E+00 0.  1.
         12    1    4    4    0    0  0.48085288257E+02 -0.23451936684E+02 -0.40207804501E+02  0.66924254376E+02  0.00000000000E+00 0. -1.
         -5    1    5    5    0  501 -0.85210618054E+02 -0.44208609607E+02 -0.48879738555E+03  0.49815682743E+03  0.47000000000E+01 0.  1.
         13    1    6    6    0    0  0.11313271892E+02  0.44322611124E+02 -0.67639442771E+02  0.81655239857E+02  0.00000000000E+00 0. -1.
        -14    1    6    6    0    0 -0.52437719530E+02  0.13371641576E+02 -0.17897454306E+03  0.18697701006E+03  0.00000000000E+00 0.  1.
</event>
<event>
12    1  0.1345781E-002  0.2480789E+03  0.7818608E-02  0.1114525E+00
         -2   -1    0    0    0  501 -0.00000000000E+00  0.00000000000E+00  0.18491028400E+03  0.18491028400E+03  0.00000000000E+00 0. -1.
          2   -1    0    0  502    0  0.00000000000E+00 -0.00000000000E+00 -0.36655583346E+03  0.36655583346E+03  0.00000000000E+00 0.  1.
          6    2    1    2  502    0  0.94132647038E+02 -0.15163121031E+03 -0.74990714244E+01  0.24912869682E+03  0.17365452003E+03 0.  0.
         24    2    3    3    0    0  0.11074080554E+03 -0.50323825702E+02  0.49310674659E+01  0.14561243984E+03  0.79891512483E+02 0.  0.
         -6    2    1    2    0  501 -0.94132647038E+02  0.15163121031E+03 -0.17414647803E+03  0.30233742064E+03  0.17096181133E+03 0.  0.
        -24    2    5    5    0    0 -0.97244267323E+02  0.78860620524E+02 -0.46227491754E+02  0.15506013805E+03  0.78938079671E+02 0.  0.
          5    1    3    3  502    0 -0.16608158498E+02 -0.10130738461E+03 -0.12430138890E+02  0.10351625697E+03  0.47000000000E+01 0. -1.
        -11    1    4    4    0    0  0.11126461834E+03 -0.48251693615E+02 -0.17979654753E+02  0.12260223985E+03  0.00000000000E+00 0.  1.
         12    1    4    4    0    0 -0.52381280343E+00 -0.20721320875E+01  0.22910722219E+02  0.23010199995E+02  0.00000000000E+00 0. -1.
         -5    1    5    5    0  501  0.31116202854E+01  0.72770589786E+02 -0.12791898627E+03  0.14727728259E+03  0.47000000000E+01 0.  1.
         13    1    6    6    0    0 -0.13951588819E+02  0.45133226409E+02  0.11024438977E+02  0.48509722855E+02  0.00000000000E+00 0. -1.
        -14    1    6    6    0    0 -0.83292678504E+02  0.33727394115E+02 -0.57251930732E+02  0.10655041520E+03  0.00000000000E+00 0.  1.
</event>
<event>
12    1  0.1345781E-002  0.2007868E+03  0.7818608E-02  0.1149077E+00
          1   -1    0    0  502    0  0.00000000000E+00  0.00000000000E+00  0.13978957691E+03  0.13978957691E+03  0.00000000000E+00 0. -1.
         -1   -1    0    0    0  501 -0.00000000000E+00 -0.00000000000E+00 -0.28846186102E+03  0.28846186102E+03  0.00000000000E+00 0.  1.
          6    2    1    2  502    0  0.98858013563E+02 -0.33399480362E+02 -0.77445133196E+02  0.21514919110E+03  0.17147301141E+03 0.  0.
         24    2    3    3    0    0 -0.13593974037E+02  0.97934823493E+01 -0.35102879424E+02  0.87375805777E+02  0.78240723825E+02 0.  0.
         -6    2    1    2    0  501 -0.98858013563E+02  0.33399480362E+02 -0.71227150909E+02  0.21310224683E+03  0.17161243674E+03 0.  0.
        -24    2    5    5    0    0 -0.36783611983E+02  0.47831335052E+02 -0.10295148493E+03  0.14175777872E+03  0.76520512629E+02 0.  0.
          5    1    3    3  502    0  0.11245198760E+03 -0.43192962711E+02 -0.42342253772E+02  0.12777338532E+03  0.47000000000E+01 0. -1.
        -13    1    4    4    0    0  0.49129197923E+01  0.41659695201E+02 -0.11081797905E+02  0.43387477801E+02  0.00000000000E+00 0.  1.
         14    1    4    4    0    0 -0.18506893829E+02 -0.31866212852E+02 -0.24021081519E+02  0.43988327975E+02  0.00000000000E+00 0. -1.
         -5    1    5    5    0  501 -0.62074401580E+02 -0.14431854690E+02  0.31724334024E+02  0.71344468115E+02  0.47000000000E+01 0.  1.
         11    1    6    6    0    0  0.16631722715E+02  0.29799169419E+02 -0.14974663396E+02  0.37267214041E+02  0.00000000000E+00 0. -1.
        -12    1    6    6    0    0 -0.53415334698E+02  0.18032165633E+02 -0.87976821537E+02  0.10449056467E+03  0.00000000000E+00 0.  1.
</event>
<event>
12    1  0.1345781E-002  0.2270686E+03  0.7818608E-02  0.1128720E+00
          1   -1    0    0  502    0  0.00000000000E+00  0.00000000000E+00  0.13623258637E+04  0.13623258637E+04  0.00000000000E+00 0. -1.
         -1   -1    0    0    0  501 -0.00000000000E+00 -0.00000000000E+00 -0.52745399501E+02  0.52745399501E+02  0.00000000000E+00 0.  1.
          6    2    1    2  502    0  0.14099314711E+03  0.47909913694E+02  0.28095196546E+03  0.36190431320E+03  0.17281868434E+03 0.  0.
         24    2    3    3    0    0  0.27311565448E+02 -0.30071367602E+02  0.10932281070E+03  0.14171521491E+03  0.80507865714E+02 0.  0.
         -6    2    1    2    0  501 -0.14099314711E+03 -0.47909913694E+02  0.10286284988E+04  0.10531669500E+04  0.17002825880E+03 0.  0.
        -24    2    5    5    0    0 -0.53319313491E+02 -0.59834578040E+02  0.82258762352E+03  0.82888179449E+03  0.63019877399E+02 0.  0.
          5    1    3    3  502    0  0.11368158166E+03  0.77981281296E+02  0.17162915476E+03  0.22018909829E+03  0.47000000000E+01 0. -1.
        -13    1    4    4    0    0  0.55355307270E+02 -0.27615815950E+02  0.71101982030E+02  0.94246141471E+02  0.00000000000E+00 0.  1.
         14    1    4    4    0    0 -0.28043741822E+02 -0.24555516522E+01  0.38220828666E+02  0.47469073439E+02  0.00000000000E+00 0. -1.
         -5    1    5    5    0  501 -0.87673833620E+02  0.11924664346E+02  0.20604087524E+03  0.22428515553E+03  0.47000000000E+01 0.  1.
         13    1    6    6    0    0  0.13134952661E+02 -0.21043812381E+02  0.22366702673E+03  0.22503845864E+03  0.00000000000E+00 0. -1.
        -14    1    6    6    0    0 -0.66454266152E+02 -0.38790765659E+02  0.59892059679E+03  0.60384333585E+03  0.00000000000E+00 0.  1.
</event>
<event>
12    1  0.1345781E-002  0.1802361E+03  0.7818608E-02  0.1167575E+00
         -1   -1    0    0    0  501 -0.00000000000E+00  0.00000000000E+00  0.15954539522E+03  0.15954539522E+03  0.00000000000E+00 0. -1.
          1   -1    0    0  502    0  0.00000000000E+00 -0.00000000000E+00 -0.25734528810E+03  0.25734528810E+03  0.00000000000E+00 0.  1.
          6    2    1    2  502    0  0.35521507643E+02 -0.40603593969E+02  0.46376334322E+02  0.18598680975E+03  0.17184265963E+03 0.  0.
         24    2    3    3    0    0  0.46466493428E+02 -0.25482307944E+02 -0.34955700334E+02  0.10240788977E+03  0.80355409717E+02 0.  0.
         -6    2    1    2    0  501 -0.35521507643E+02  0.40603593969E+02 -0.14417622721E+03  0.23090387356E+03  0.17210283260E+03 0.  0.
        -24    2    5    5    0    0 -0.38930496821E+02 -0.22180657931E+02 -0.14069234633E+03  0.16775554881E+03  0.79624259303E+02 0.  0.
          5    1    3    3  502    0 -0.10944985784E+02 -0.15121286025E+02  0.81332034656E+02  0.83578919987E+02  0.47000000000E+01 0. -1.
        -13    1    4    4    0    0 -0.17699593452E+02 -0.26448457027E+02 -0.80810915343E+01  0.32834441184E+02  0.00000000000E+00 0.  1.
         14    1    4    4    0    0  0.64166086879E+02  0.96614908323E+00 -0.26874608800E+02  0.69573448582E+02  0.00000000000E+00 0. -1.
         -5    1    5    5    0  501  0.34089891776E+01  0.62784251900E+02 -0.34838808726E+01  0.63148324758E+02  0.47000000000E+01 0.  1.
         13    1    6    6    0    0 -0.57496549472E+02 -0.52465944637E+01 -0.60111020794E+02  0.83346954206E+02  0.00000000000E+00 0. -1.
        -14    1    6    6    0    0  0.18566052651E+02 -0.16934063468E+02 -0.80581325540E+02  0.84408594600E+02  0.00000000000E+00 0.  1.
</event>
<event>
12    1  0.1345781E-002  0.1932170E+03  0.7818608E-02  0.1155591E+00
         -2   -1    0    0    0  501 -0.00000000000E+00  0.00000000000E+00  0.18726064450E+03  0.18726064450E+03  0.00000000000E+00 0.  1.
          2   -1    0    0  502    0  0.00000000000E+00 -0.00000000000E+00 -0.22712709046E+03  0.22712709046E+03  0.00000000000E+00 0. -1.
          6    2    1    2  502    0  0.82264536743E+02 -0.29985251512E+02 -0.92435053666E+02  0.21483462331E+03  0.17304076662E+03 0.  0.
         24    2    3    3    0    0  0.57740398106E+02  0.45708709904E+02 -0.78011907328E+02  0.13383384355E+03  0.80015000222E+02 0.  0.
         -6    2    1    2    0  501 -0.82264536743E+02  0.29985251512E+02  0.52568607709E+02  0.19955311166E+03  0.17143925030E+03 0.  0.
        -24    2    5    5    0    0 -0.11388105555E+03 -0.50360371671E+01  0.57080664078E+02  0.15192388140E+03  0.82634176006E+02 0.  0.
          5    1    3    3  502    0  0.24524138637E+02 -0.75693961417E+02 -0.14423146338E+02  0.81000779756E+02  0.47000000000E+01 0. -1.
        -11    1    4    4    0    0 -0.19544246945E+02  0.10917226631E+02 -0.75837470122E+01  0.23636341610E+02  0.00000000000E+00 0.  1.
         12    1    4    4    0    0  0.77284645050E+02  0.34791483273E+02 -0.70428160316E+02  0.11019750194E+03  0.00000000000E+00 0. -1.
         -5    1    5    5    0  501  0.31616518809E+02  0.35021288680E+02 -0.45120563693E+01  0.47629230259E+02  0.47000000000E+01 0.  1.
         13    1    6    6    0    0 -0.88980947087E+02  0.15006629982E+02  0.73136104294E+02  0.11615376722E+03  0.00000000000E+00 0. -1.
        -14    1    6    6    0    0 -0.24900108464E+02 -0.20042667149E+02 -0.16055440216E+02  0.35770114180E+02  0.00000000000E+00 0.  1.
</event>
<event>
12    1  0.1345781E-002  0.1820749E+03  0.7818608E-02  0.1165810E+00
          2   -1    0    0  502    0  0.00000000000E+00  0.00000000000E+00  0.19716496072E+04  0.19716496072E+04  0.00000000000E+00 0. -1.
         -2   -1    0    0    0  501 -0.00000000000E+00 -0.00000000000E+00 -0.16919280836E+02  0.16919280836E+02  0.00000000000E+00 0.  1.
          6    2    1    2  502    0  0.51732291131E+02  0.26895123237E+02  0.90375861010E+03  0.92209137570E+03  0.17341655694E+03 0.  0.
         24    2    3    3    0    0  0.96618325223E+02  0.29211988936E+02  0.76946401742E+03  0.78039715724E+03  0.82197371360E+02 0.  0.
         -6    2    1    2    0  501 -0.51732291131E+02 -0.26895123237E+02  0.10509717163E+04  0.10664775123E+04  0.17156094638E+03 0.  0.
        -24    2    5    5    0    0 -0.94402453933E+02  0.53523128489E+01  0.87054265867E+03  0.87822933903E+03  0.67095311357E+02 0.  0.
          5    1    3    3  502    0 -0.44886034092E+02 -0.23168656984E+01  0.13429459268E+03  0.14169421846E+03  0.47000000000E+01 0. -1.
        -13    1    4    4    0    0  0.56776315916E+02 -0.18207941179E+02  0.23880473745E+03  0.24613569794E+03  0.00000000000E+00 0.  1.
         14    1    4    4    0    0  0.39842009307E+02  0.47419930114E+02  0.53065927996E+03  0.53426145930E+03  0.00000000000E+00 0. -1.
         -5    1    5    5    0  501  0.42670162802E+02 -0.32247436086E+02  0.18042905761E+03  0.18824817331E+03  0.47000000000E+01 0.  1.
         11    1    6    6    0    0 -0.20248630639E+02  0.13334351948E+02  0.67342644246E+02  0.71574043610E+02  0.00000000000E+00 0. -1.
        -12    1    6    6    0    0 -0.74153823294E+02 -0.79820390990E+01  0.80320001442E+03  0.80665529542E+03  0.00000000000E+00 0.  1.
</event>
<event>
12    1  0.1345781E-002  0.2122769E+03  0.7818608E-02  0.1139775E+00
          3   -1    0    0  502    0  0.00000000000E+00  0.00000000000E+00  0.38536369732E+02  0.38536369732E+02  0.00000000000E+00 0.  1.
         -3   -1    0    0    0  501 -0.00000000000E+00 -0.00000000000E+00 -0.15343672354E+04  0.15343672354E+04  0.00000000000E+00 0. -1.
          6    2    1    2  502    0  0.17196050900E+02  0.12393691101E+03 -0.11304900726E+04  0.11501772513E+04  0.17100831299E+03 0.  0.
         24    2    3    3    0    0  0.45266285180E+02  0.90346997167E+01 -0.56092898617E+03  0.56844502994E+03  0.79735576499E+02 0.  0.
         -6    2    1    2    0  501 -0.17196050900E+02 -0.12393691101E+03 -0.36534079308E+03  0.42272635383E+03  0.17195235694E+03 0.  0.
        -24    2    5    5    0    0 -0.41039863369E+02 -0.14933298427E+03 -0.32886392363E+03  0.37206927205E+03  0.79369089481E+02 0.  0.
          5    1    3    3  502    0 -0.28070234280E+02  0.11490221130E+03 -0.56956108645E+03  0.58173222140E+03  0.47000000000E+01 0. -1.
        -13    1    4    4    0    0 -0.53546998527E+01 -0.13218292620E+02 -0.19283930780E+02  0.23984704639E+02  0.00000000000E+00 0.  1.
         14    1    4    4    0    0  0.50620985032E+02  0.22252992336E+02 -0.54164505539E+03  0.54446032530E+03  0.00000000000E+00 0. -1.
         -5    1    5    5    0  501  0.23843812469E+02  0.25396073251E+02 -0.36476869454E+02  0.50657081783E+02  0.47000000000E+01 0.  1.
         13    1    6    6    0    0 -0.17724039025E+02 -0.10315742841E+03 -0.28710395850E+03  0.30558841533E+03  0.00000000000E+00 0. -1.
        -14    1    6    6    0    0 -0.23315824344E+02 -0.46175555851E+02 -0.41759965127E+02  0.66480856721E+02  0.00000000000E+00 0.  1.
</event>
<event>
12    1  0.1345781E-002  0.2286031E+03  0.7818608E-02  0.1127627E+00
          3   -1    0    0  502    0  0.00000000000E+00  0.00000000000E+00  0.38385013826E+02  0.38385013826E+02  0.00000000000E+00 0. -1.
         -3   -1    0    0    0  501 -0.00000000000E+00 -0.00000000000E+00 -0.14405254520E+04  0.14405254520E+04  0.00000000000E+00 0.  1.
          6    2    1    2  502    0  0.85940849477E+02  0.12503742034E+03 -0.52683167132E+03  0.57415519906E+03  0.17053561683E+03 0.  0.
         24    2    3    3    0    0 -0.16671532786E+02  0.85507175101E+02 -0.28536632024E+03  0.30878838303E+03  0.79541886845E+02 0.  0.
         -6    2    1    2    0  501 -0.85940849477E+02 -0.12503742034E+03 -0.87530876684E+03  0.90475526675E+03  0.17145398599E+03 0.  0.
        -24    2    5    5    0    0 -0.69799817027E+02 -0.12465798806E+03 -0.87249680633E+03  0.88770610198E+03  0.79748467058E+02 0.  0.
          5    1    3    3  502    0  0.10261238226E+03  0.39530245239E+02 -0.24146535107E+03  0.26536681603E+03  0.47000000000E+01 0. -1.
        -11    1    4    4    0    0  0.16292092302E+02  0.26432119011E+02 -0.18603671444E+03  0.18861004296E+03  0.00000000000E+00 0.  1.
         12    1    4    4    0    0 -0.32963625088E+02  0.59075056090E+02 -0.99329605805E+02  0.12017834006E+03  0.00000000000E+00 0. -1.
         -5    1    5    5    0  501 -0.16141032449E+02 -0.37943228339E+00 -0.28119605111E+01  0.17049164769E+02  0.47000000000E+01 0.  1.
         13    1    6    6    0    0 -0.11716972864E+02 -0.26757531747E+02 -0.54572000561E+02  0.61897949914E+02  0.00000000000E+00 0. -1.
        -14    1    6    6    0    0 -0.58082844163E+02 -0.97900456310E+02 -0.81792480577E+03  0.82580815207E+03  0.00000000000E+00 0.  1.
</event>
<event>
12    1  0.1345781E-002  0.1796130E+03  0.7818608E-02  0.1168178E+00
         -1   -1    0    0    0  501 -0.00000000000E+00  0.00000000000E+00  0.79981182857E+02  0.79981182857E+02  0.00000000000E+00 0.  1.
          1   -1    0    0  502    0  0.00000000000E+00 -0.00000000000E+00 -0.40338779262E+03  0.40338779262E+03  0.00000000000E+00 0. -1.
          6    2    1    2  502    0 -0.10934738795E+02 -0.49779537232E+02 -0.16010092826E+03  0.24099084283E+03  0.17276199888E+03 0.  0.
         24    2    3    3    0    0 -0.34237330797E+02  0.13048382578E+02 -0.30252986100E+02  0.94795985242E+02  0.82027925379E+02 0.  0.
         -6    2    1    2    0  501  0.10934738795E+02  0.49779537232E+02 -0.16330568151E+03  0.24237813265E+03  0.17169986236E+03 0.  0.
        -24    2    5    5    0    0 -0.34079731810E+02  0.28617586183E+02 -0.16862352890E+03  0.19213372762E+03  0.80629277762E+02 0.  0.
          5    1    3    3  502    0  0.23302592002E+02 -0.62827919809E+02 -0.12984794216E+03  0.14619485759E+03  0.47000000000E+01 0. -1.
        -13    1    4    4    0    0 -0.29432193014E+02  0.32602210917E+02 -0.50028566803E+02  0.66573385363E+02  0.00000000000E+00 0.  1.
         14    1    4    4    0    0 -0.48051377827E+01 -0.19553828339E+02  0.19775580703E+02  0.28222599879E+02  0.00000000000E+00 0. -1.
         -5    1    5    5    0  501  0.45014470605E+02  0.21161951049E+02  0.53178473912E+01  0.50244405031E+02  0.47000000000E+01 0.  1.
         13    1    6    6    0    0  0.21085828004E+02  0.11079317959E+02 -0.97823587969E+02  0.10068176494E+03  0.00000000000E+00 0. -1.
        -14    1    6    6    0    0 -0.55165559815E+02  0.17538268224E+02 -0.70799940928E+02  0.91451962677E+02  0.00000000000E+00 0.  1.
</event>
<event>
12    1  0.1345781E-002  0.1728508E+03  0.7818608E-02  0.1174907E+00
          2   -1    0    0  502    0  0.00000000000E+00  0.00000000000E+00  0.14708546877E+04  0.14708546877E+04  0.00000000000E+00 0.  1.
         -2   -1    0    0    0  501 -0.00000000000E+00 -0.00000000000E+00 -0.20480389384E+02  0.20480389384E+02  0.00000000000E+00 0. -1.
          6    2    1    2  502    0 -0.86491002695E+01  0.94957617597E+00  0.79268082056E+03  0.81131148535E+03  0.17264916551E+03 0.  0.
         24    2    3    3    0    0  0.26178019277E+02  0.48664001427E+02  0.31123456550E+03  0.32623192369E+03  0.80664983380E+02 0.  0.
         -6    2    1    2    0  501  0.86491002695E+01 -0.94957617597E+00  0.65769347771E+03  0.68002359169E+03  0.17261421146E+03 0.  0.
        -24    2    5    5    0    0 -0.31553023443E+02 -0.54028141682E+02  0.28644170902E+03  0.30281872609E+03  0.75734370187E+02 0.  0.
          5    1    3    3  502    0 -0.34827119547E+02 -0.47714425251E+02  0.48144625506E+03  0.48507956166E+03  0.47000000000E+01 0. -1.
        -11    1    4    4    0    0  0.79475589705E+01  0.25970065226E+02  0.28720319072E+03  0.28848445494E+03  0.00000000000E+00 0.  1.
         12    1    4    4    0    0  0.18230460307E+02  0.22693936201E+02  0.24031374782E+02  0.37747468752E+02  0.00000000000E+00 0. -1.
         -5    1    5    5    0  501  0.40202123712E+02  0.53078565506E+02  0.37125176870E+03  0.37720486560E+03  0.47000000000E+01 0.  1.
         13    1    6    6    0    0  0.21431207492E+02  0.10474739900E+01  0.52711555097E+02  0.56911351215E+02  0.00000000000E+00 0. -1.
        -14    1    6    6    0    0 -0.52984230935E+02 -0.55075615672E+02  0.23373015392E+03  0.24590737488E+03  0.00000000000E+00 0.  1.
</event>
<event>
12    1  0.1345781E-002  0.1944625E+03  0.7818608E-02  0.1154497E+00
         -2   -1    0    0    0  501 -0.00000000000E+00  0.00000000000E+00  0.53523984621E+02  0.53523984621E+02  0.00000000000E+00 0. -1.
          2   -1    0    0  502    0  0.00000000000E+00 -0.00000000000E+00 -0.96442440975E+03  0.96442440975E+03  0.00000000000E+00 0.  1.
          6    2    1    2  502    0 -0.16753310245E+02 -0.79009531422E+02 -0.18686723261E+03  0.26741013954E+03  0.17339446544E+03 0.  0.
         24    2    3    3    0    0 -0.18801433444E+02 -0.25318555901E+02 -0.17571981913E+02  0.89730969205E+02  0.82148336037E+02 0.  0.
         -6    2    1    2    0  501  0.16753310245E+02  0.79009531422E+02 -0.72403319252E+03  0.75053825483E+03  0.18044508483E+03 0.  0.
        -24    2    5    5    0    0 -0.38847121333E+02 -0.85241247210E+01 -0.41848833911E+03  0.42784134379E+03  0.79586217093E+02 0.  0.
          5    1    3    3  502    0  0.20481231991E+01 -0.53690975521E+02 -0.16929525070E+03  0.17767917033E+03  0.47000000000E+01 0. -1.
        -13    1    4    4    0    0 -0.50280630444E+02 -0.17839656534E+02 -0.20695798727E+02  0.57225092644E+02  0.00000000000E+00 0.  1.
         14    1    4    4    0    0  0.31479197001E+02 -0.74788993673E+01  0.31238168145E+01  0.32505876562E+02  0.00000000000E+00 0. -1.
         -5    1    5    5    0  501  0.55600431578E+02  0.87533656143E+02 -0.30554485341E+03  0.32269691104E+03  0.47000000000E+01 0.  1.
         11    1    6    6    0    0 -0.26744383151E+02  0.34754953479E+02 -0.19321196261E+03  0.19812630143E+03  0.00000000000E+00 0. -1.
        -12    1    6    6    0    0 -0.12102738182E+02 -0.43279078200E+02 -0.22527637650E+03  0.22971504237E+03  0.00000000000E+00 0.  1.
</event>
<event>
12    1  0.1345781E-002  0.2153270E+03  0.7818608E-02  0.1137416E+00
          2   -1    0    0  502    0  0.00000000000E+00  0.00000000000E+00  0.10494840574E+04  0.10494840574E+04  0.00000000000E+00 0. -1.
         -2   -1    0    0    0  501 -0.00000000000E+00 -0.00000000000E+00 -0.46296724813E+02  0.46296724813E+02  0.00000000000E+00 0.  1.
          6    2    1    2  502    0  0.12723299562E+03 -0.21432329026E+02  0.62085767876E+03  0.65745219913E+03  0.17358443755E+03 0.  0.
         24    2    3    3    0    0  0.36491244497E+02  0.47262714526E+02  0.34766841340E+03  0.36146649151E+03  0.78862688891E+02 0.  0.
         -6    2    1    2    0  501 -0.12723299562E+03  0.21432329026E+02  0.38232965378E+03  0.43832858304E+03  0.17119697033E+03 0.  0.
        -24    2    5    5    0    0 -0.10611343474E+03  0.19551365091E+02  0.39198663554E+03  0.41456051258E+03  0.81022091067E+02 0.  0.
          5    1    3    3  502    0  0.90741751121E+02 -0.68695043551E+02  0.27318926536E+03  0.29598570762E+03  0.47000000000E+01 0. -1.
        -11    1    4    4    0    0  0.59085849912E+02  0.22531485920E+02  0.26095421962E+03  0.26850681603E+03  0.00000000000E+00 0.  1.
         12    1    4    4    0    0 -0.22594605416E+02  0.24731228605E+02  0.86714193782E+02  0.92959675481E+02  0.00000000000E+00 0. -1.
         -5    1    5    5    0  501 -0.21119560873E+02  0.18809639351E+01 -0.96569817558E+01  0.23768070461E+02  0.47000000000E+01 0.  1.
         11    1    6    6    0    0 -0.36704079572E+01  0.16322347899E+02  0.16085847558E+03  0.16172612684E+03  0.00000000000E+00 0. -1.
        -12    1    6    6    0    0 -0.10244302679E+03  0.32290171921E+01  0.23112815996E+03  0.25283438574E+03  0.00000000000E+00 0.  1.
</event>
<event>
12    1  0.1345781E-002  0.1751411E+03  0.7818608E-02  0.1172590E+00
         -1   -1    0    0    0  501 -0.00000000000E+00  0.00000000000E+00  0.17220538177E+02  0.17220538177E+02  0.00000000000E+00 0. -1.
          1   -1    0    0  502    0  0.00000000000E+00 -0.00000000000E+00 -0.17918573337E+04  0.17918573337E+04  0.00000000000E+00 0.  1.
          6    2    1    2  502    0  0.28557561453E+02 -0.18346696181E+01 -0.95345997336E+03  0.96929402495E+03  0.17212229857E+03 0.  0.
         24    2    3    3    0    0 -0.14772931422E+02 -0.16149932514E+02 -0.87009179668E+03  0.87413730555E+03  0.81100150850E+02 0.  0.
         -6    2    1    2    0  501 -0.28557561453E+02  0.18346696181E+01 -0.82117682212E+03  0.83978384689E+03  0.17345499699E+03 0.  0.
        -24    2    5    5    0    0 -0.43280928870E+02 -0.37531426613E+02 -0.27361417808E+03  0.29059043266E+03  0.79348814241E+02 0.  0.
          5    1    3    3  502    0  0.43330492875E+02  0.14315262896E+02 -0.83368176679E+02  0.95156719402E+02  0.47000000000E+01 0. -1.
        -11    1    4    4    0    0 -0.37595441399E+02 -0.27887289842E+02 -0.31565632493E+03  0.31910818481E+03  0.00000000000E+00 0.  1.
         12    1    4    4    0    0  0.22822509977E+02  0.11737357328E+02 -0.55443547176E+03  0.55502912073E+03  0.00000000000E+00 0. -1.
         -5    1    5    5    0  501  0.14723367417E+02  0.39366096232E+02 -0.54756264404E+03  0.54919341423E+03  0.47000000000E+01 0.  1.
         11    1    6    6    0    0  0.68927990848E+01 -0.24611701845E+02 -0.22078614946E+02  0.33774425011E+02  0.00000000000E+00 0. -1.
        -12    1    6    6    0    0 -0.50173727955E+02 -0.12919724769E+02 -0.25153556314E+03  0.25681600765E+03  0.00000000000E+00 0.  1.
</event>
<event>
12    1  0.1345781E-002  0.1773583E+03  0.7818608E-02  0.1170384E+00
          1   -1    0    0  502    0  0.00000000000E+00  0.00000000000E+00  0.18767949885E+04  0.18767949885E+04  0.00000000000E+00 0. -1.
         -1   -1    0    0    0  501 -0.00000000000E+00 -0.00000000000E+00 -0.19794830570E+02  0.19794830570E+02  0.00000000000E+00 0.  1.
          6    2    1    2  502    0  0.25530987380E+02  0.37724265637E+02  0.13042378409E+04  0.13163792192E+04  0.17246144954E+03 0.  0.
         24    2    3    3    0    0  0.98379997364E+01  0.91097758519E+02  0.94544885234E+03  0.95327230944E+03  0.80367752941E+02 0.  0.
         -6    2    1    2    0  501 -0.25530987380E+02 -0.37724265637E+02  0.55276231702E+03  0.58021059986E+03  0.17036199557E+03 0.  0.
        -24    2    5    5    0    0 -0.31813705365E+02 -0.95776777853E+01  0.54331948522E+03  0.54950294567E+03  0.75190295421E+02 0.  0.
          5    1    3    3  502    0  0.15692987644E+02 -0.53373492882E+02  0.35878898855E+03  0.36310690975E+03  0.47000000000E+01 0. -1.
        -11    1    4    4    0    0 -0.12018464263E+02  0.12468292277E+02  0.33802967086E+02  0.37980815938E+02  0.00000000000E+00 0.  1.
         12    1    4    4    0    0  0.21856463999E+02  0.78629466242E+02  0.91164588525E+03  0.91529149350E+03  0.00000000000E+00 0. -1.
         -5    1    5    5    0  501  0.62827179849E+01 -0.28146587852E+02  0.94428318009E+01  0.30707654183E+02  0.47000000000E+01 0.  1.
         11    1    6    6    0    0 -0.13225422464E+02 -0.19929668375E+02  0.47079330223E+02  0.52806882270E+02  0.00000000000E+00 0. -1.
        -12    1    6    6    0    0 -0.18588282901E+02  0.10351990590E+02  0.49624015499E+03  0.49669606340E+03  0.00000000000E+00 0.  1.
</event>
<event>
12    1  0.1345781E-002  0.2666014E+03  0.7818608E-02  0.1103241E+00
         -2   -1    0    0    0  501 -0.00000000000E+00  0.00000000000E+00  0.38461203237E+02  0.38461203237E+02  0.00000000000E+00 0. -1.
          2   -1    0    0  502    0  0.00000000000E+00 -0.00000000000E+00 -0.18514844139E+04  0.18514844139E+04  0.00000000000E+00 0.  1.
          6    2    1    2  502    0 -0.18258436838E+03  0.95793645943E+02 -0.94431263543E+03  0.98097999364E+03  0.16757661027E+03 0.  0.
         24    2    3    3    0    0 -0.14249906440E+03  0.13185494188E+03 -0.79135164770E+03  0.81872586448E+03  0.79893064833E+02 0.  0.
         -6    2    1    2    0  501  0.18258436838E+03 -0.95793645943E+02 -0.86871057526E+03  0.90896562353E+03  0.17043170773E+03 0.  0.
        -24    2    5    5    0    0  0.19663376693E+03 -0.87299164666E+02 -0.64124247429E+03  0.68085738436E+03  0.78031305031E+02 0.  0.
          5    1    3    3  502    0 -0.40085303976E+02 -0.36061295940E+02 -0.15296098773E+03  0.16225412915E+03  0.47000000000E+01 0. -1.
        -13    1    4    4    0    0 -0.11586043897E+03  0.63137188435E+02 -0.58233194221E+03  0.59709332336E+03  0.00000000000E+00 0.  1.
         14    1    4    4    0    0 -0.26638625436E+02  0.68717753448E+02 -0.20901970548E+03  0.22163254112E+03  0.00000000000E+00 0. -1.
         -5    1    5    5    0  501 -0.14049398554E+02 -0.84944812764E+01 -0.22746810098E+03  0.22810823916E+03  0.47000000000E+01 0.  1.
         13    1    6    6    0    0  0.58437053920E+02 -0.49508264554E+02 -0.14046893669E+03  0.15999212388E+03  0.00000000000E+00 0. -1.
        -14    1    6    6    0    0  0.13819671301E+03 -0.37790900113E+02 -0.50077353760E+03  0.52086526048E+03  0.00000000000E+00 0.  1.
</event>
<event>
12    1  0.1345781E-002  0.1795838E+03  0.7818608E-02  0.1168206E+00
         -2   -1    0    0    0  501 -0.00000000000E+00  0.00000000000E+00  0.82766509393E+02  0.82766509393E+02  0.00000000000E+00 0. -1.
          2   -1    0    0  502    0  0.00000000000E+00 -0.00000000000E+00 -0.41236138151E+03  0.41236138151E+03  0.00000000000E+00 0.  1.
          6    2    1    2  502    0  0.35229689397E+02 -0.35814808406E+02 -0.10709862289E+03  0.20948259282E+03  0.17288438378E+03 0.  0.
         24    2    3    3    0    0  0.79057660421E+02  0.88163424734E+01 -0.90547850195E+02  0.14460695217E+03  0.79902539860E+02 0.  0.
         -6    2    1    2    0  501 -0.35229689397E+02  0.35814808406E+02 -0.22249624923E+03  0.28564529808E+03  0.17194424642E+03 0.  0.
        -24    2    5    5    0    0 -0.72576309849E+02  0.47632955276E+02 -0.90879280903E+02  0.14824240507E+03  0.78616460014E+02 0.  0.
          5    1    3    3  502    0 -0.43827971024E+02 -0.44631150879E+02 -0.16550772690E+02  0.64875640648E+02  0.47000000000E+01 0. -1.
        -11    1    4    4    0    0  0.19986793134E+02 -0.52496491530E+01 -0.80436280816E+02  0.83048335248E+02  0.00000000000E+00 0.  1.
         12    1    4    4    0    0  0.59070867287E+02  0.14065991626E+02 -0.10111569380E+02  0.61558616925E+02  0.00000000000E+00 0. -1.
         -5    1    5    5    0  501  0.37346620452E+02 -0.11818146870E+02 -0.13161696832E+03  0.13740289300E+03  0.47000000000E+01 0.  1.
         11    1    6    6    0    0 -0.47737898286E+02 -0.56426847350E+01 -0.11427099431E+02  0.49409770544E+02  0.00000000000E+00 0. -1.
        -12    1    6    6    0    0 -0.24838411563E+02  0.53275640011E+02 -0.79452181473E+02  0.98832634531E+02  0.00000000000E+00 0.  1.
</event>
<event>
12    1  0.1345781E-002  0.2082473E+03  0.7818608E-02  0.1142962E+00
         -1   -1    0    0    0  501 -0.00000000000E+00  0.00000000000E+00  0.21369691673E+03  0.21369691673E+03  0.00000000000E+00 0. -1.
          1   -1    0    0  502    0  0.00000000000E+00 -0.00000000000E+00 -0.21051165592E+03  0.21051165592E+03  0.00000000000E+00 0.  1.
          6    2    1    2  502    0  0.10135918819E+03  0.59499417637E+02  0.41815232542E+02  0.21368852797E+03  0.17349469037E+03 0.  0.
         24    2    3    3    0    0  0.11281462915E+03  0.96816517661E+02  0.26436217096E+02  0.17147008179E+03  0.81255995049E+02 0.  0.
         -6    2    1    2    0  501 -0.10135918819E+03 -0.59499417637E+02 -0.38629971733E+02  0.21052004467E+03  0.17033070412E+03 0.  0.
        -24    2    5    5    0    0 -0.17875592467E+02 -0.63848161296E+02 -0.66495064112E+02  0.12227620240E+03  0.78318271276E+02 0.  0.
          5    1    3    3  502    0 -0.11455440967E+02 -0.37317100023E+02  0.15379015446E+02  0.42218446182E+02  0.47000000000E+01 0. -1.
        -13    1    4    4    0    0  0.19548490855E+02  0.15778855532E+02 -0.26978458214E+02  0.36863979495E+02  0.00000000000E+00 0.  1.
         14    1    4    4    0    0  0.93266138299E+02  0.81037662129E+02  0.53414675310E+02  0.13460610229E+03  0.00000000000E+00 0. -1.
         -5    1    5    5    0  501 -0.83483595719E+02  0.43487436580E+01  0.27865092379E+02  0.88243842272E+02  0.47000000000E+01 0.  1.
         11    1    6    6    0    0  0.67048689248E+01 -0.50476826003E+02 -0.86239335557E+00  0.50927487204E+02  0.00000000000E+00 0. -1.
        -12    1    6    6    0    0 -0.24580461392E+02 -0.13371335293E+02 -0.65632670757E+02  0.71348715198E+02  0.00000000000E+00 0.  1.
</event>
<event>
12    1  0.1345781E-002  0.1716444E+03  0.7818608E-02  0.1176144E+00
         -2   -1    0    0    0  501 -0.00000000000E+00  0.00000000000E+00  0.14985724990E+02  0.14985724990E+02  0.00000000000E+00 0. -1.
          2   -1    0    0  502    0  0.00000000000E+00 -0.00000000000E+00 -0.21528042615E+04  0.21528042615E+04  0.00000000000E+00 0.  1.
          6    2    1    2  502    0  0.47601157866E+01 -0.24622365833E+02 -0.73843608611E+03  0.75767257830E+03  0.16778248726E+03 0.  0.
         24    2    3    3    0    0 -0.12537128208E+02 -0.43452058119E+02 -0.32181729274E+03  0.34024346940E+03  0.10076699672E+03 0.  0.
         -6    2    1    2    0  501 -0.47601157866E+01  0.24622365833E+02 -0.13993824504E+04  0.14101174081E+04  0.17184569474E+03 0.  0.
        -24    2    5    5    0    0  0.58191611751E+01  0.73912821405E+02 -0.64976889098E+03  0.65879587345E+03  0.79469638080E+02 0.  0.
          5    1    3    3  502    0  0.17297243994E+02  0.18829692286E+02 -0.41661879337E+03  0.41742910890E+03  0.47000000000E+01 0. -1.
        -11    1    4    4    0    0  0.19954985453E+02 -0.64066254321E+02 -0.24901431309E+03  0.25789690675E+03  0.00000000000E+00 0.  1.
         12    1    4    4    0    0 -0.32492113660E+02  0.20614196201E+02 -0.72802979645E+02  0.82346562650E+02  0.00000000000E+00 0. -1.
         -5    1    5    5    0  501 -0.10579276962E+02 -0.49290455572E+02 -0.74961355937E+03  0.75132153470E+03  0.47000000000E+01 0.  1.
         11    1    6    6    0    0 -0.57357455377E+01  0.65030951273E+02 -0.63388909764E+03  0.63724195680E+03  0.00000000000E+00 0. -1.
        -12    1    6    6    0    0  0.11554906713E+02  0.88818701319E+01 -0.15879793344E+02  0.21553916647E+02  0.00000000000E+00 0.  1.
</event>
<event>
12    1  0.1345781E-002  0.1928364E+03  0.7818608E-02  0.1155928E+00
         -1   -1    0    0    0  501 -0.00000000000E+00  0.00000000000E+00  0.39436305460E+02  0.39436305460E+02  0.00000000000E+00 0.  1.
          1   -1    0    0  502    0  0.00000000000E+00 -0.00000000000E+00 -0.13000877565E+04  0.13000877565E+04  0.00000000000E+00 0. -1.
          6    2    1    2  502    0  0.62923500071E+00  0.86381822444E+02 -0.28136364254E+03  0.34159854864E+03  0.17338354566E+03 0.  0.
         24    2    3    3    0    0  0.53102948688E+02  0.58439135876E+02 -0.97379488950E+02  0.14819083646E+03  0.79010780155E+02 0.  0.
         -6    2    1    2    0  501 -0.62923500071E+00 -0.86381822444E+02 -0.97928780855E+03  0.99792551336E+03  0.17143075298E+03 0.  0.
        -24    2    5    5    0    0  0.52063495574E+02 -0.18512500213E+02 -0.35213047811E+03  0.36489219996E+03  0.78084081242E+02 0.  0.
          5    1    3    3  502    0 -0.52473713687E+02  0.27942686568E+02 -0.18398415359E+03  0.19340771218E+03  0.47000000000E+01 0. -1.
        -11    1    4    4    0    0  0.25127710338E+02  0.73243328929E+02 -0.53627668842E+02  0.94190837797E+02  0.00000000000E+00 0.  1.
         12    1    4    4    0    0  0.27975238349E+02 -0.14804193053E+02 -0.43751820107E+02  0.53999998661E+02  0.00000000000E+00 0. -1.
         -5    1    5    5    0  501 -0.52692730575E+02 -0.67869322231E+02 -0.62715733044E+03  0.63303331340E+03  0.47000000000E+01 0.  1.
         11    1    6    6    0    0  0.68554430274E+02 -0.28361743738E+02 -0.30713308878E+03  0.31596650557E+03  0.00000000000E+00 0. -1.
        -12    1    6    6    0    0 -0.16490934700E+02  0.98492435248E+01 -0.44997389330E+02  0.48925694393E+02  0.00000000000E+00 0.  1.
</event>
<event>
12    1  0.1345781E-002  0.2222460E+03  0.7818608E-02  0.1132220E+00
          1   -1    0    0  502    0  0.00000000000E+00  0.00000000000E+00  0.12116011035E+03  0.12116011035E+03  0.00000000000E+00 0. -1.
         -1   -1    0    0    0  501 -0.00000000000E+00 -0.00000000000E+00 -0.41706364524E+03  0.41706364524E+03  0.00000000000E+00 0.  1.
          6    2    1    2  502    0  0.11819369832E+03  0.76761049933E+02 -0.18838758522E+03  0.29140285709E+03  0.17194107638E+03 0.  0.
         24    2    3    3    0    0  0.14414886568E+03  0.88002644918E+02 -0.13746932555E+03  0.23296653843E+03  0.82778207123E+02 0.  0.
         -6    2    1    2    0  501 -0.11819369832E+03 -0.76761049933E+02 -0.10751594967E+03  0.24682089850E+03  0.17175234320E+03 0.  0.
        -24    2    5    5    0    0 -0.12138964918E+03 -0.10449945911E+03 -0.11586327148E+03  0.21730139262E+03  0.90222024336E+02 0.  0.
          5    1    3    3  502    0 -0.25955167359E+02 -0.11241594985E+02 -0.50918259671E+02  0.58436318659E+02  0.47000000000E+01 0. -1.
        -11    1    4    4    0    0  0.23416234079E+02 -0.91566600061E+01  0.97393634864E+00  0.25161736683E+02  0.00000000000E+00 0.  1.
         12    1    4    4    0    0  0.12073263160E+03  0.97159304924E+02 -0.13844326189E+03  0.20780480175E+03  0.00000000000E+00 0. -1.
         -5    1    5    5    0  501  0.31959508612E+01  0.27738409181E+02  0.83473218139E+01  0.29519505878E+02  0.47000000000E+01 0.  1.
         13    1    6    6    0    0 -0.82169095089E+00 -0.52470131714E+02 -0.30945618442E+02  0.60921434642E+02  0.00000000000E+00 0. -1.
        -14    1    6    6    0    0 -0.12056795823E+03 -0.52029327400E+02 -0.84917653041E+02  0.15637995798E+03  0.00000000000E+00 0.  1.
</event>
<event>
12    1  0.1345781E-002  0.2130056E+03  0.7818608E-02  0.1139208E+00
         -3   -1    0    0    0  501 -0.00000000000E+00  0.00000000000E+00  0.19637071176E+04  0.19637071176E+04  0.00000000000E+00 0.  1.
          3   -1    0    0  502    0  0.00000000000E+00 -0.00000000000E+00 -0.23111294901E+02  0.23111294901E+02  0.00000000000E+00 0. -1.
          6    2    1    2  502    0  0.11082102802E+03 -0.65808832176E+02  0.94747157245E+03  0.97065030216E+03  0.16687577963E+03 0.  0.
         24    2    3    3    0    0  0.12145582738E+03 -0.44095829362E+02  0.49760984535E+03  0.52011482413E+03  0.78790303457E+02 0.  0.
         -6    2    1    2    0  501 -0.11082102802E+03  0.65808832176E+02  0.99312425028E+03  0.10161681104E+04  0.17230713686E+03 0.  0.
        -24    2    5    5    0    0 -0.43011640881E+02  0.63888946493E+02  0.30618435046E+03  0.32587084477E+03  0.80691711272E+02 0.  0.
          5    1    3    3  502    0 -0.10634799362E+02 -0.21713002814E+02  0.44986172710E+03  0.45053547802E+03  0.47000000000E+01 0. -1.
        -11    1    4    4    0    0  0.11144258847E+03 -0.24176861040E+02  0.47447496587E+03  0.48798613133E+03  0.00000000000E+00 0.  1.
         12    1    4    4    0    0  0.10013238903E+02 -0.19918968322E+02  0.23134879485E+02  0.32128692801E+02  0.00000000000E+00 0. -1.
         -5    1    5    5    0  501 -0.67809387136E+02  0.19198856830E+01  0.68693989982E+03  0.69029726561E+03  0.47000000000E+01 0.  1.
         13    1    6    6    0    0 -0.26731705018E+02  0.21432292649E+02  0.28726583356E+02  0.44711786060E+02  0.00000000000E+00 0. -1.
        -14    1    6    6    0    0 -0.16279935863E+02  0.42456653844E+02  0.27745776710E+03  0.28115905871E+03  0.00000000000E+00 0.  1.
</event>
<event>
12    1  0.1345781E-002  0.2424819E+03  0.7818608E-02  0.1118150E+00
         -2   -1    0    0    0  501 -0.00000000000E+00  0.00000000000E+00  0.16747931193E+03  0.16747931193E+03  0.00000000000E+00 0. -1.
          2   -1    0    0  502    0  0.00000000000E+00 -0.00000000000E+00 -0.35222800649E+03  0.35222800649E+03  0.00000000000E+00 0.  1.
          6    2    1    2  502    0  0.82522792622E+02  0.15088696822E+03 -0.77449257326E+02  0.25443694692E+03  0.17077143794E+03 0.  0.
         24    2    3    3    0    0  0.85921808882E+02  0.30849648137E+02 -0.47920308835E+02  0.13068493553E+03  0.80299055686E+02 0.  0.
         -6    2    1    2    0  501 -0.82522792622E+02 -0.15088696822E+03 -0.10729943723E+03  0.26527037151E+03  0.17110906549E+03 0.  0.
        -24    2    5    5    0    0 -0.14151266338E+02 -0.11211789010E+03 -0.12293322349E+03  0.18499452024E+03  0.79622330171E+02 0.  0.
          5    1    3    3  502    0 -0.33990162595E+01  0.12003732008E+03 -0.29528948491E+02  0.12375201139E+03  0.47000000000E+01 0. -1.
        -11    1    4    4    0    0  0.98220503225E+02  0.39345193207E+02 -0.46798239943E+02  0.11569523216E+03  0.00000000000E+00 0.  1.
         12    1    4    4    0    0 -0.12298694344E+02 -0.84955450703E+01 -0.11220688929E+01  0.14989703373E+02  0.00000000000E+00 0. -1.
         -5    1    5    5    0  501 -0.68371526284E+02 -0.38769078113E+02  0.15633786258E+02  0.80275851269E+02  0.47000000000E+01 0.  1.
         11    1    6    6    0    0  0.18173998767E+02 -0.26438453929E+01 -0.16427542878E+01  0.18438622272E+02  0.00000000000E+00 0. -1.
        -12    1    6    6    0    0 -0.32325265105E+02 -0.10947404471E+03 -0.12129046920E+03  0.16655589797E+03  0.00000000000E+00 0.  1.
</event>
<event>
12    1  0.1345781E-002  0.1982557E+03  0.7818608E-02  0.1151219E+00
          2   -1    0    0  502    0  0.00000000000E+00  0.00000000000E+00  0.22537754593E+04  0.22537754593E+04  0.00000000000E+00 0.  1.
         -2   -1    0    0    0  501 -0.00000000000E+00 -0.00000000000E+00 -0.34495328789E+02  0.34495328789E+02  0.00000000000E+00 0. -1.
          6    2    1    2  502    0 -0.70992677534E+02 -0.64666096506E+02  0.19171355226E+04  0.19274691577E+04  0.17466275466E+03 0.  0.
         24    2    3    3    0    0 -0.67078100847E+02 -0.10893267726E+03  0.12880923347E+04  0.12968406805E+04  0.79044848990E+02 0.  0.
         -6    2    1    2    0  501  0.70992677534E+02  0.64666096506E+02  0.30214460792E+03  0.36080163032E+03  0.17223468886E+03 0.  0.
        -24    2    5    5    0    0  0.10287641309E+03  0.76048538486E+01  0.18563171116E+03  0.22712327336E+03  0.80526138268E+02 0.  0.
          5    1    3    3  502    0 -0.39145766865E+01  0.44266580757E+02  0.62904318786E+03  0.63062847721E+03  0.47000000000E+01 0. -1.
        -11    1    4    4    0    0 -0.20726850195E+02 -0.16608402641E+02  0.79046570719E+02  0.83389457966E+02  0.00000000000E+00 0.  1.
         12    1    4    4    0    0 -0.46351250652E+02 -0.92324274622E+02  0.12090457640E+04  0.12134512226E+04  0.00000000000E+00 0. -1.
         -5    1    5    5    0  501 -0.31883735556E+02  0.57061242657E+02  0.11651289677E+03  0.13367835696E+03  0.47000000000E+01 0.  1.
         11    1    6    6    0    0 -0.12723388185E+02  0.31915278650E+01  0.33696172343E+02  0.36159403861E+02  0.00000000000E+00 0. -1.
        -12    1    6    6    0    0  0.11559980127E+03  0.44133259837E+01  0.15193553881E+03  0.19096386950E+03  0.00000000000E+00 0.  1.
</event>
<event>
12    1  0.1345781E-002  0.5760605E+03  0.7818608E-02  0.9956356E-01
         -1   -1    0    0    0  501 -0.00000000000E+00  0.00000000000E+00  0.51563650485E+03  0.51563650485E+03  0.00000000000E+00 0. -1.
          1   -1    0    0  502    0  0.00000000000E+00 -0.00000000000E+00 -0.74443226766E+03  0.74443226766E+03  0.00000000000E+00 0.  1.
          6    2    1    2  502    0 -0.46901183161E+03 -0.28690763735E+03 -0.34620623119E+03  0.67156916474E+03  0.16987730266E+03 0.  0.
         24    2    3    3    0    0 -0.26646805945E+03 -0.16887581840E+03 -0.27630614183E+03  0.42689876928E+03  0.79832364677E+02 0.  0.
         -6    2    1    2    0  501  0.46901183161E+03  0.28690763735E+03  0.11741046838E+03  0.58849960777E+03  0.17394964703E+03 0.  0.
        -24    2    5    5    0    0  0.27095787909E+03  0.22612442960E+03  0.12054458041E+03  0.38125125648E+03  0.79190244356E+02 0.  0.
          5    1    3    3  502    0 -0.20254377216E+03 -0.11803181895E+03 -0.69900089362E+02  0.24467039546E+03  0.47000000000E+01 0. -1.
        -11    1    4    4    0    0 -0.76331980713E+02 -0.12779768013E+02 -0.46701263557E+02  0.90393040483E+02  0.00000000000E+00 0.  1.
         12    1    4    4    0    0 -0.19013607874E+03 -0.15609605039E+03 -0.22960487828E+03  0.33650572879E+03  0.00000000000E+00 0. -1.
         -5    1    5    5    0  501  0.19805395252E+03  0.60783207748E+02 -0.31341120343E+01  0.20724835129E+03  0.47000000000E+01 0.  1.
         11    1    6    6    0    0  0.20389135558E+02  0.41812665353E+02 -0.28693362797E+01  0.46607391295E+02  0.00000000000E+00 0. -1.
        -12    1    6    6    0    0  0.25056874353E+03  0.18431176425E+03  0.12341391669E+03  0.33464386519E+03  0.00000000000E+00 0.  1.
</event>
<event>
12    1  0.1345781E-002  0.1755129E+03  0.7818608E-02  0.1172218E+00
          2   -1    0    0  502    0  0.00000000000E+00  0.00000000000E+00  0.43143255161E+02  0.43143255161E+02  0.00000000000E+00 0.  1.
         -2   -1    0    0    0  501 -0.00000000000E+00 -0.00000000000E+00 -0.73110182805E+03  0.73110182805E+03  0.00000000000E+00 0. -1.
          6    2    1    2  502    0 -0.34211057911E+02  0.15591591009E+02 -0.28395400433E+03  0.33358658804E+03  0.17098725377E+03 0.  0.
         24    2    3    3    0    0  0.28283887951E+02  0.44943215936E+02 -0.98749445828E+02  0.13587479114E+03  0.76750471266E+02 0.  0.
         -6    2    1    2    0  501  0.34211057911E+02 -0.15591591009E+02 -0.40400456856E+03  0.44065849517E+03  0.17189160467E+03 0.  0.
        -24    2    5    5    0    0 -0.80072834727E+01  0.11857795644E+01 -0.38043760525E+03  0.38926432943E+03  0.82026971288E+02 0.  0.
          5    1    3    3  502    0 -0.62494945862E+02 -0.29351624926E+02 -0.18520455850E+03  0.19771179690E+03  0.47000000000E+01 0. -1.
        -13    1    4    4    0    0 -0.15324508701E+02  0.46571846189E+02 -0.44135988962E+02  0.65967893297E+02  0.00000000000E+00 0.  1.
         14    1    4    4    0    0  0.43608396653E+02 -0.16286302528E+01 -0.54613456866E+02  0.69906897843E+02  0.00000000000E+00 0. -1.
         -5    1    5    5    0  501  0.42218341383E+02 -0.16777370574E+02 -0.23566963316E+02  0.51394165743E+02  0.47000000000E+01 0.  1.
         13    1    6    6    0    0  0.16013557736E+02  0.34093318227E+02 -0.24344308336E+03  0.24633985308E+03  0.00000000000E+00 0. -1.
        -14    1    6    6    0    0 -0.24020841208E+02 -0.32907538662E+02 -0.13699452188E+03  0.14292447635E+03  0.00000000000E+00 0.  1.
</event>
<event>
12    1  0.1345781E-002  0.1982203E+03  0.7818608E-02  0.1151249E+00
         -2   -1    0    0    0  501 -0.00000000000E+00  0.00000000000E+00  0.61424738333E+03  0.61424738333E+03  0.00000000000E+00 0.  1.
          2   -1    0    0  502    0  0.00000000000E+00 -0.00000000000E+00 -0.67558815996E+02  0.67558815996E+02  0.00000000000E+00 0. -1.
          6    2    1    2  502    0 -0.57188951157E+02  0.75964073522E+02  0.19778470494E+03  0.28163296696E+03  0.17651408434E+03 0.  0.
         24    2    3    3    0    0  0.28729269614E+02  0.32449792986E+02  0.13918064683E+03  0.16879698467E+03  0.85104697789E+02 0.  0.
         -6    2    1    2    0  501  0.57188951157E+02 -0.75964073522E+02  0.34890386239E+03  0.40017323237E+03  0.17135808738E+03 0.  0.
        -24    2    5    5    0    0  0.75123716630E+02 -0.77378810037E+02  0.13796330396E+03  0.18841472254E+03  0.69535468554E+02 0.  0.
          5    1    3    3  502    0 -0.85918220771E+02  0.43514280536E+02  0.58604058109E+02  0.11283598228E+03  0.47000000000E+01 0. -1.
        -13    1    4    4    0    0 -0.31633606442E+01  0.45337402590E+02  0.12231749937E+03  0.13048776792E+03  0.00000000000E+00 0.  1.
         14    1    4    4    0    0  0.31892630258E+02 -0.12887609604E+02  0.16863147456E+02  0.38309216752E+02  0.00000000000E+00 0. -1.
         -5    1    5    5    0  501 -0.17934765473E+02  0.14147365150E+01  0.21094055844E+03  0.21175850983E+03  0.47000000000E+01 0.  1.
         11    1    6    6    0    0  0.80390364703E+02 -0.43163339315E+02  0.11530429452E+03  0.14704001133E+03  0.00000000000E+00 0. -1.
        -12    1    6    6    0    0 -0.52666480731E+01 -0.34215470722E+02  0.22659009438E+02  0.41374711206E+02  0.00000000000E+00 0.  1.
</event>
<event>
12    1  0.1345781E-002  0.1845607E+03  0.7818608E-02  0.1163461E+00
          2   -1    0    0  502    0  0.00000000000E+00  0.00000000000E+00  0.70979692931E+03  0.70979692931E+03  0.00000000000E+00 0. -1.
         -2   -1    0    0    0  501 -0.00000000000E+00 -0.00000000000E+00 -0.50036676070E+02  0.50036676070E+02  0.00000000000E+00 0.  1.
          6    2    1    2  502    0  0.68053451562E+02 -0.89505389180E+01  0.25177973513E+03  0.31174410089E+03  0.17052848736E+03 0.  0.
         24    2    3    3    0    0  0.35490092304E+02  0.10630325083E+02  0.37634539982E+02  0.94203214604E+02  0.78008567343E+02 0.  0.
         -6    2    1    2    0  501 -0.68053451562E+02  0.89505389180E+01  0.40798051811E+03  0.44808950450E+03  0.17211832111E+03 0.  0.
        -24    2    5    5    0    0 -0.86554561954E+02  0.58072378013E+02  0.26925194835E+03  0.29968818297E+03  0.80326222605E+02 0.  0.
          5    1    3    3  502    0  0.32563359257E+02 -0.19580864001E+02  0.21414519514E+03  0.21754088628E+03  0.47000000000E+01 0. -1.
        -13    1    4    4    0    0  0.25077297278E+02 -0.28866228764E+02 -0.61681072464E+00  0.38242783075E+02  0.00000000000E+00 0.  1.
         14    1    4    4    0    0  0.10412795027E+02  0.39496553847E+02  0.38251350707E+02  0.55960431529E+02  0.00000000000E+00 0. -1.
         -5    1    5    5    0  501  0.18501110392E+02 -0.49121839095E+02  0.13872856976E+03  0.14840132152E+03  0.47000000000E+01 0.  1.
         11    1    6    6    0    0 -0.20921458580E+02  0.19648881902E+02  0.18067624918E+03  0.18294177490E+03  0.00000000000E+00 0. -1.
        -12    1    6    6    0    0 -0.65633103374E+02  0.38423496111E+02  0.88575699178E+02  0.11674640807E+03  0.00000000000E+00 0.  1.
</event>
<event>
12    1  0.1345781E-002  0.1814443E+03  0.7818608E-02  0.1166413E+00
         -2   -1    0    0    0  501 -0.00000000000E+00  0.00000000000E+00  0.27263930590E+03  0.27263930590E+03  0.00000000000E+00 0. -1.
          2   -1    0    0  502    0  0.00000000000E+00 -0.00000000000E+00 -0.12188964728E+03  0.12188964728E+03  0.00000000000E+00 0.  1.
          6    2    1    2  502    0  0.50285329102E+02 -0.88154949960E+01  0.95074180108E+02  0.20648025960E+03  0.17603599236E+03 0.  0.
         24    2    3    3    0    0  0.89828593736E+02  0.22593801628E+01  0.10969474072E+03  0.16263766125E+03  0.79647923155E+02 0.  0.
         -6    2    1    2    0  501 -0.50285329102E+02  0.88154949960E+01  0.55675478513E+02  0.18804869358E+03  0.17220982834E+03 0.  0.
        -24    2    5    5    0    0  0.11588199598E+02  0.22566331945E+02 -0.20848642020E+02  0.88572816637E+02  0.82261487134E+02 0.  0.
          5    1    3    3  502    0 -0.39543264634E+02 -0.11074875159E+02 -0.14620560617E+02  0.43842598354E+02  0.47000000000E+01 0. -1.
        -11    1    4    4    0    0  0.70543516095E+02  0.29079242679E+02  0.41486278638E+02  0.86851029545E+02  0.00000000000E+00 0.  1.
         12    1    4    4    0    0  0.19285077641E+02 -0.26819862516E+02  0.68208462086E+02  0.75786631704E+02  0.00000000000E+00 0. -1.
         -5    1    5    5    0  501 -0.61873528700E+02 -0.13750836949E+02  0.76524120534E+02  0.99475876946E+02  0.47000000000E+01 0.  1.
         13    1    6    6    0    0 -0.16035610636E+02 -0.15611246042E+02  0.17022291914E+02  0.28117792116E+02  0.00000000000E+00 0. -1.
        -14    1    6    6    0    0  0.27623810234E+02  0.38177577988E+02 -0.37870933934E+02  0.60455024521E+02  0.00000000000E+00 0.  1.
</event>
<event>
12    1  0.1345781E-002  0.1714563E+03  0.7818608E-02  0.1176338E+00
          1   -1    0    0  502    0  0.00000000000E+00  0.00000000000E+00  0.49210726568E+03  0.49210726568E+03  0.00000000000E+00 0.  1.
         -1   -1    0    0    0  501 -0.00000000000E+00 -0.00000000000E+00 -0.60548613855E+02  0.60548613855E+02  0.00000000000E+00 0. -1.
          6    2    1    2  502    0  0.11587381379E+02  0.94830055181E+01  0.18249005450E+03  0.24965584350E+03  0.16970923781E+03 0.  0.
         24    2    3    3    0    0  0.98377471820E+01 -0.52049337969E+02  0.16529756597E+03  0.18557025871E+03  0.65628657996E+02 0.  0.
         -6    2    1    2    0  501 -0.11587381379E+02 -0.94830055181E+01  0.24906859732E+03  0.30300003604E+03  0.17190014795E+03 0.  0.
        -24    2    5    5    0    0  0.48925645080E+02 -0.15811787190E+01  0.80364349864E+02  0.12353561520E+03  0.80039993879E+02 0.  0.
          5    1    3    3  502    0  0.17496341969E+01  0.61532343487E+02  0.17192488530E+02  0.64085584781E+02  0.47000000000E+01 0. -1.
        -13    1    4    4    0    0  0.32229307185E+02 -0.48203744786E+02  0.91245566634E+02  0.10811143641E+03  0.00000000000E+00 0.  1.
         14    1    4    4    0    0 -0.22391560003E+02 -0.38455931832E+01  0.74051999339E+02  0.77458822302E+02  0.00000000000E+00 0. -1.
         -5    1    5    5    0  501 -0.60513026459E+02 -0.79018267990E+01  0.16870424746E+03  0.17946442084E+03  0.47000000000E+01 0.  1.
         11    1    6    6    0    0  0.35724388620E+02 -0.39445339764E+02  0.39435101104E+02  0.66236651262E+02  0.00000000000E+00 0. -1.
        -12    1    6    6    0    0  0.13201256460E+02  0.37864161045E+02  0.40929248761E+02  0.57298963934E+02  0.00000000000E+00 0.  1.
</event>
<event>
12    1  0.1345781E-002  0.1883215E+03  0.7818608E-02  0.1159984E+00
          4   -1    0    0  502    0  0.00000000000E+00  0.00000000000E+00  0.10673593312E+04  0.10673593312E+04  0.00000000000E+00 0. -1.
         -4   -1    0    0    0  501 -0.00000000000E+00 -0.00000000000E+00 -0.42384988120E+02  0.42384988120E+02  0.00000000000E+00 0.  1.
          6    2    1    2  502    0  0.72719579013E+02 -0.24542692933E+02  0.76993977213E+03  0.79258395424E+03  0.17173115867E+03 0.  0.
         24    2    3    3    0    0  0.11033917413E+03  0.65295992907E+01  0.61996759612E+03  0.63480415560E+03  0.79994541782E+02 0.  0.
         -6    2    1    2    0  501 -0.72719579013E+02  0.24542692933E+02  0.25503457097E+03  0.31716036511E+03  0.17221377371E+03 0.  0.
        -24    2    5    5    0    0 -0.20124551839E+02 -0.49860442482E+02  0.15177206584E+03  0.17936595880E+03  0.79033701014E+02 0.  0.
          5    1    3    3  502    0 -0.37619595113E+02 -0.31072292223E+02  0.14997217601E+03  0.15777979864E+03  0.47000000000E+01 0. -1.
        -13    1    4    4    0    0 -0.15096249480E+01  0.22022786164E+02  0.14024092455E+03  0.14196759840E+03  0.00000000000E+00 0.  1.
         14    1    4    4    0    0  0.11184879907E+03 -0.15493186873E+02  0.47972667157E+03  0.49283655720E+03  0.00000000000E+00 0. -1.
         -5    1    5    5    0  501 -0.52595027174E+02  0.74403135414E+02  0.10326250513E+03  0.13779440630E+03  0.47000000000E+01 0.  1.
         11    1    6    6    0    0  0.21588931210E+02 -0.28101870719E+01  0.84598469946E+02  0.87354909532E+02  0.00000000000E+00 0. -1.
        -12    1    6    6    0    0 -0.41713483049E+02 -0.47050255410E+02  0.67173595898E+02  0.92011049272E+02  0.00000000000E+00 0.  1.
</event>
<event>
12    1  0.1345781E-002  0.1936238E+03  0.7818608E-02  0.1155233E+00
         -2   -1    0    0    0  501 -0.00000000000E+00  0.00000000000E+00  0.32870859740E+03  0.32870859740E+03  0.00000000000E+00 0.  1.
          2   -1    0    0  502    0  0.00000000000E+00 -0.00000000000E+00 -0.16371657243E+03  0.16371657243E+03  0.00000000000E+00 0. -1.
          6    2    1    2  502    0  0.40121307200E+02 -0.74131894180E+02  0.21762580117E+03  0.29025893672E+03  0.17258042758E+03 0.  0.
         24    2    3    3    0    0  0.19489774419E+02  0.17837833736E+02  0.15637209640E+03  0.17775028218E+03  0.80280076377E+02 0.  0.
         -6    2    1    2    0  501 -0.40121307200E+02  0.74131894180E+02 -0.52633776200E+02  0.20216623311E+03  0.17605571387E+03 0.  0.
        -24    2    5    5    0    0  0.42369069812E+02  0.34980872756E+02 -0.53549463797E+02  0.11073104698E+03  0.79843723343E+02 0.  0.
          5    1    3    3  502    0  0.20631532780E+02 -0.91969727915E+02  0.61253704773E+02  0.11250865454E+03  0.47000000000E+01 0. -1.
        -13    1    4    4    0    0  0.14557037890E+02 -0.17782988478E+02  0.13275093953E+03  0.13472547635E+03  0.00000000000E+00 0.  1.
         14    1    4    4    0    0  0.49327365293E+01  0.35620822214E+02  0.23621156867E+02  0.43024805829E+02  0.00000000000E+00 0. -1.
         -5    1    5    5    0  501 -0.82490377012E+02  0.39151021423E+02  0.91568759707E+00  0.91435186126E+02  0.47000000000E+01 0.  1.
         11    1    6    6    0    0  0.14002746509E+02  0.36636720308E+02 -0.68266416734E+02  0.78731377725E+02  0.00000000000E+00 0. -1.
        -12    1    6    6    0    0  0.28366323303E+02 -0.16558475514E+01  0.14716952937E+02  0.31999669258E+02  0.00000000000E+00 0.  1.
</event>
<event>
12    1  0.1345781E-002  0.2012368E+03  0.7818608E-02  0.1148700E+00
         -2   -1    0    0    0  501 -0.00000000000E+00  0.00000000000E+00  0.32684004855E+02  0.32684004855E+02  0.00000000000E+00 0. -1.
          2   -1    0    0  502    0  0.00000000000E+00 -0.00000000000E+00 -0.12471392043E+04  0.12471392043E+04  0.00000000000E+00 0.  1.
          6    2    1    2  502    0 -0.64273308290E+02  0.84571741346E+02 -0.55577883771E+03  0.59110871939E+03  0.17098527453E+03 0.  0.
         24    2    3    3    0    0 -0.82087203047E+02  0.11695424109E+03 -0.48088664807E+03  0.50746129741E+03  0.76474810638E+02 0.  0.
         -6    2    1    2    0  501  0.64273308290E+02 -0.84571741346E+02 -0.65867636177E+03  0.68871448979E+03  0.17084982091E+03 0.  0.
        -24    2    5    5    0    0  0.99869101884E+02 -0.37650225614E+02 -0.53740213542E+03  0.55381372205E+03  0.80729217644E+02 0.  0.
          5    1    3    3  502    0  0.17813894757E+02 -0.32382499742E+02 -0.74892189634E+02  0.83647421981E+02  0.47000000000E+01 0. -1.
        -13    1    4    4    0    0 -0.27031844153E+02  0.36570622751E+02 -0.28583111245E+03  0.28942625294E+03  0.00000000000E+00 0.  1.
         14    1    4    4    0    0 -0.55055358894E+02  0.80383618336E+02 -0.19505553562E+03  0.21803504447E+03  0.00000000000E+00 0. -1.
         -5    1    5    5    0  501 -0.35595793594E+02 -0.46921515731E+02 -0.12127422635E+03  0.13490076774E+03  0.47000000000E+01 0.  1.
         11    1    6    6    0    0  0.55767006637E+02 -0.28275039940E+02 -0.13365766029E+03  0.14755950348E+03  0.00000000000E+00 0. -1.
        -12    1    6    6    0    0  0.44102095247E+02 -0.93751856746E+01 -0.40374447513E+03  0.40625421857E+03  0.00000000000E+00 0.  1.
</event>
<event>
12    1  0.1345781E-002  0.1891290E+03  0.7818608E-02  0.1159249E+00
          1   -1    0    0  502    0  0.00000000000E+00  0.00000000000E+00  0.84987294267E+03  0.84987294267E+03  0.00000000000E+00 0.  1.
         -1   -1    0    0    0  501 -0.00000000000E+00 -0.00000000000E+00 -0.42666984015E+02  0.42666984015E+02  0.00000000000E+00 0. -1.
          6    2    1    2  502    0  0.74802183581E+02 -0.23988788158E+02  0.45606472113E+03  0.49381592124E+03  0.17230294711E+03 0.  0.
         24    2    3    3    0    0  0.85875601496E+02  0.35521664462E+02  0.35540591252E+03  0.37626422918E+03  0.81394102528E+02 0.  0.
         -6    2    1    2    0  501 -0.74802183581E+02  0.23988788158E+02  0.35114123753E+03  0.39872400545E+03  0.17178426937E+03 0.  0.
        -24    2    5    5    0    0 -0.65540366979E+02  0.11983808388E+02  0.89424737388E+02  0.13652652790E+03  0.78762667535E+02 0.  0.
          5    1    3    3  502    0 -0.11073417915E+02 -0.59510452620E+02  0.10065880861E+03  0.11755169206E+03  0.47000000000E+01 0. -1.
        -13    1    4    4    0    0  0.63044587695E+02 -0.46246902518E+00  0.29897195487E+03  0.30554715465E+03  0.00000000000E+00 0.  1.
         14    1    4    4    0    0  0.22831013802E+02  0.35984133487E+02  0.56433957653E+02  0.70717074533E+02  0.00000000000E+00 0. -1.
         -5    1    5    5    0  501 -0.92618166027E+01  0.12004979770E+02  0.26171650014E+03  0.26219747755E+03  0.47000000000E+01 0.  1.
         11    1    6    6    0    0 -0.32827935276E+02 -0.32025689351E+02  0.26136036882E+02  0.52786461681E+02  0.00000000000E+00 0. -1.
        -12    1    6    6    0    0 -0.32712431703E+02  0.44009497739E+02  0.63288700505E+02  0.83740066222E+02  0.00000000000E+00 0.  1.
</event>
<event>
12    1  0.1345781E-002  0.2062600E+03  0.7818608E-02  0.1144562E+00
          2   -1    0    0  502    0  0.00000000000E+00  0.00000000000E+00  0.47199208830E+03  0.47199208830E+03  0.00000000000E+00 0.  1.
         -2   -1    0    0    0  501 -0.00000000000E+00 -0.00000000000E+00 -0.10278177860E+03  0.10278177860E+03  0.00000000000E+00 0. -1.
          6    2    1    2  502    0 -0.31546674632E+02  0.10963418148E+03  0.83542405196E+02  0.22223399853E+03  0.17144611459E+03 0.  0.
         24    2    3    3    0    0 -0.42932456976E+02  0.42511975519E+02 -0.14265764660E+02  0.10297145343E+03  0.82153175571E+02 0.  0.
         -6    2    1    2    0  501  0.31546674632E+02 -0.10963418148E+03  0.28566790450E+03  0.35253986836E+03  0.17223054518E+03 0.  0.
        -24    2    5    5    0    0  0.29171209481E+02 -0.88029390867E+02  0.30133139691E+03  0.32533978001E+03  0.80282180941E+02 0.  0.
          5    1    3    3  502    0  0.11385782345E+02  0.67122205961E+02  0.97808169856E+02  0.11926254510E+03  0.47000000000E+01 0. -1.
        -13    1    4    4    0    0 -0.11170007645E+01  0.32797594739E+02  0.27695180882E+02  0.42941273333E+02  0.00000000000E+00 0.  1.
         14    1    4    4    0    0 -0.41815456212E+02  0.97143807803E+01 -0.41960945542E+02  0.60030180101E+02  0.00000000000E+00 0. -1.
         -5    1    5    5    0  501  0.23754651511E+01 -0.21604790613E+02 -0.15663492404E+02  0.27200088353E+02  0.47000000000E+01 0.  1.
         11    1    6    6    0    0  0.20880883614E+02  0.38374730189E+01  0.19606705402E+02  0.28899141793E+02  0.00000000000E+00 0. -1.
        -12    1    6    6    0    0  0.82903258666E+01 -0.91866863886E+02  0.28172469151E+03  0.29644063822E+03  0.00000000000E+00 0.  1.
</event>
<event>
12    1  0.1345781E-002  0.1975154E+03  0.7818608E-02  0.1151852E+00
          2   -1    0    0  502    0  0.00000000000E+00  0.00000000000E+00  0.24852597615E+03  0.24852597615E+03  0.00000000000E+00 0. -1.
         -2   -1    0    0    0  501 -0.00000000000E+00 -0.00000000000E+00 -0.15841432844E+03  0.15841432844E+03  0.00000000000E+00 0.  1.
          6    2    1    2  502    0  0.51916085291E+02 -0.82584344293E+02  0.25489048012E+02  0.19831673541E+03  0.17077582423E+03 0.  0.
         24    2    3    3    0    0  0.66590661698E+02  0.72068251645E+01  0.56892658403E+02  0.10195245753E+03  0.51684373486E+02 0.  0.
         -6    2    1    2    0  501 -0.51916085291E+02  0.82584344293E+02  0.64622599697E+02  0.20862356918E+03  0.17272017657E+03 0.  0.
        -24    2    5    5    0    0 -0.60799841613E+02  0.98573555552E+02 -0.24755335750E+01  0.13891829326E+03  0.76673315706E+02 0.  0.
          5    1    3    3  502    0 -0.14674576407E+02 -0.89791169457E+02 -0.31403610392E+02  0.96364277877E+02  0.47000000000E+01 0. -1.
        -13    1    4    4    0    0  0.21853369692E+02 -0.14020501714E+02  0.43492986452E+02  0.50653569526E+02  0.00000000000E+00 0.  1.
         14    1    4    4    0    0  0.44737292006E+02  0.21227326878E+02  0.13399671951E+02  0.51298888007E+02  0.00000000000E+00 0. -1.
         -5    1    5    5    0  501  0.88837563224E+01 -0.15989211260E+02  0.67098133272E+02  0.69705275924E+02  0.47000000000E+01 0.  1.
         13    1    6    6    0    0 -0.25898484069E+02  0.20782612884E+02  0.32775315283E+02  0.46656936968E+02  0.00000000000E+00 0. -1.
        -14    1    6    6    0    0 -0.34901357545E+02  0.77790942668E+02 -0.35250848858E+02  0.92261356292E+02  0.00000000000E+00 0.  1.
</event>
<event>
12    1  0.1345781E-002  0.2183331E+03  0.7818608E-02  0.1135132E+00
         -1   -1    0    0    0  501 -0.00000000000E+00  0.00000000000E+00  0.21556479591E+03  0.21556479591E+03  0.00000000000E+00 0.  1.
          1   -1    0    0  502    0  0.00000000000E+00 -0.00000000000E+00 -0.32254103401E+03  0.32254103401E+03  0.00000000000E+00 0. -1.
          6    2    1    2  502    0 -0.54590277647E+02  0.12230699869E+03  0.97300392502E+02  0.23941574688E+03  0.17295500320E+03 0.  0.
         24    2    3    3    0    0  0.29898963583E+02  0.92426270190E+02  0.39772092478E+02  0.13281891239E+03  0.81378625599E+02 0.  0.
         -6    2    1    2    0  501  0.54590277647E+02 -0.12230699869E+03 -0.20427663060E+03  0.29869008304E+03  0.17189451287E+03 0.  0.
        -24    2    5    5    0    0  0.19693951157E+02 -0.95493078412E+01 -0.13932406172E+03  0.16388289980E+03  0.83470771425E+02 0.  0.
          5    1    3    3  502    0 -0.84489241230E+02  0.29880728496E+02  0.57528300023E+02  0.10659683449E+03  0.47000000000E+01 0. -1.
        -11    1    4    4    0    0  0.34851928329E+02  0.48851105582E+01 -0.28873749810E+01  0.35310878603E+02  0.00000000000E+00 0.  1.
         12    1    4    4    0    0 -0.49529647464E+01  0.87541159632E+02  0.42659467459E+02  0.97508033789E+02  0.00000000000E+00 0. -1.
         -5    1    5    5    0  501  0.34896326489E+02 -0.11275769084E+03 -0.64952568886E+02  0.13480718324E+03  0.47000000000E+01 0.  1.
         11    1    6    6    0    0  0.50899362677E+02 -0.13251913611E+02 -0.10441224028E+03  0.11691139489E+03  0.00000000000E+00 0. -1.
        -12    1    6    6    0    0 -0.31205411520E+02  0.37026057699E+01 -0.34911821435E+02  0.46971504910E+02  0.00000000000E+00 0.  1.
</event>
<event>
12    1  0.1345781E-002  0.2103424E+03  0.7818608E-02  0.1141295E+00
          2   -1    0    0  502    0  0.00000000000E+00  0.00000000000E+00  0.15237207831E+04  0.15237207831E+04  0.00000000000E+00 0. -1.
         -2   -1    0    0    0  501 -0.00000000000E+00 -0.00000000000E+00 -0.32068236335E+02  0.32068236335E+02  0.00000000000E+00 0.  1.
          6    2    1    2  502    0 -0.83182582070E+02  0.89403344174E+02  0.50520196400E+03  0.54706696472E+03  0.17070717485E+03 0.  0.
         24    2    3    3    0    0 -0.11538568191E+03  0.98170493712E+02  0.38706507454E+03  0.42421617228E+03  0.84786127823E+02 0.  0.
         -6    2    1    2    0  501  0.83182582070E+02 -0.89403344174E+02  0.98645058280E+03  0.10087220547E+04  0.17182296565E+03 0.  0.
        -24    2    5    5    0    0  0.10113440376E+03 -0.98511669859E+01  0.62626746899E+03  0.63939187419E+03  0.79283118969E+02 0.  0.
          5    1    3    3  502    0  0.32203099844E+02 -0.87671495385E+01  0.11813688946E+03  0.12285079244E+03  0.47000000000E+01 0. -1.
        -11    1    4    4    0    0 -0.86300826381E+01  0.31947311167E+02  0.26509191298E+02  0.42401016974E+02  0.00000000000E+00 0.  1.
         12    1    4    4    0    0 -0.10675559928E+03  0.66223182545E+02  0.36055588324E+03  0.38181515531E+03  0.00000000000E+00 0. -1.
         -5    1    5    5    0  501 -0.17951821693E+02 -0.79552177188E+02  0.36018311381E+03  0.36933018056E+03  0.47000000000E+01 0.  1.
         11    1    6    6    0    0  0.96445509748E+02 -0.19667336296E+01  0.62170895513E+03  0.62914833647E+03  0.00000000000E+00 0. -1.
        -12    1    6    6    0    0  0.46888940144E+01 -0.78844333563E+01  0.45585138526E+01  0.10243537718E+02  0.00000000000E+00 0.  1.
</event>
<event>
12    1  0.1345781E-002  0.1761147E+03  0.7818608E-02  0.1171617E+00
          2   -1    0    0  502    0  0.00000000000E+00  0.00000000000E+00  0.89852824251E+03  0.89852824251E+03  0.00000000000E+00 0.  1.
         -2   -1    0    0    0  501 -0.00000000000E+00 -0.00000000000E+00 -0.36361837277E+02  0.36361837277E+02  0.00000000000E+00 0. -1.
          6    2    1    2  502    0 -0.26797512295E+02  0.25539534513E+02  0.32608073009E+03  0.37064744682E+03  0.17228033205E+03 0.  0.
         24    2    3    3    0    0  0.35005241201E+02 -0.62775780917E+01  0.99509648881E+02  0.13360640853E+03  0.81754065841E+02 0.  0.
         -6    2    1    2    0  501  0.26797512295E+02 -0.25539534513E+02  0.53608567515E+03  0.56424263297E+03  0.17207999092E+03 0.  0.
        -24    2    5    5    0    0 -0.23192092828E+02 -0.32530935513E+02  0.48060174363E+03  0.48908681506E+03  0.81435506730E+02 0.  0.
          5    1    3    3  502    0 -0.61802753496E+02  0.31817112604E+02  0.22657108121E+03  0.23704103829E+03  0.47000000000E+01 0. -1.
        -11    1    4    4    0    0 -0.13276687129E+02  0.27081704629E+02  0.39146021120E+02  0.49417609374E+02  0.00000000000E+00 0.  1.
         12    1    4    4    0    0  0.48281928329E+02 -0.33359282720E+02  0.60363627760E+02  0.84188799155E+02  0.00000000000E+00 0. -1.
         -5    1    5    5    0  501  0.49989605123E+02  0.69914010002E+01  0.55483931521E+02  0.75155817907E+02  0.47000000000E+01 0.  1.
         11    1    6    6    0    0 -0.22320321962E+02 -0.17704625695E+02  0.45183482050E+02  0.53415331073E+02  0.00000000000E+00 0. -1.
        -12    1    6    6    0    0 -0.87177086521E+00 -0.14826309818E+02  0.43541826158E+03  0.43567148399E+03  0.00000000000E+00 0.  1.
</event>
<event>
12    1  0.1345781E-002  0.2937148E+03  0.7818608E-02  0.1088425E+00
         -1   -1    0    0    0  501 -0.00000000000E+00  0.00000000000E+00  0.66828622812E+02  0.66828622812E+02  0.00000000000E+00 0.  1.
          1   -1    0    0  502    0  0.00000000000E+00 -0.00000000000E+00 -0.13311826392E+04  0.13311826392E+04  0.00000000000E+00 0. -1.
          6    2    1    2  502    0 -0.81431336773E+02 -0.22366501244E+03 -0.51111943888E+03  0.58963303162E+03  0.17253095602E+03 0.  0.
         24    2    3    3    0    0 -0.56235024904E+02 -0.37236157224E+02 -0.16255082704E+03  0.19351090481E+03  0.80466076579E+02 0.  0.
         -6    2    1    2    0  501  0.81431336773E+02  0.22366501244E+03 -0.75323457755E+03  0.80837823043E+03  0.17162731199E+03 0.  0.
        -24    2    5    5    0    0  0.11895335364E+03  0.13996156436E+03 -0.55924839056E+03  0.59374622044E+03  0.77696023711E+02 0.  0.
          5    1    3    3  502    0 -0.25196311869E+02 -0.18642885521E+03 -0.34856861184E+03  0.39612212681E+03  0.47000000000E+01 0. -1.
        -11    1    4    4    0    0  0.17733866766E+02 -0.21770588052E+01 -0.58224887093E+02  0.60904573659E+02  0.00000000000E+00 0.  1.
         12    1    4    4    0    0 -0.73968891670E+02 -0.35059098419E+02 -0.10432593995E+03  0.13260633116E+03  0.00000000000E+00 0. -1.
         -5    1    5    5    0  501 -0.37522016870E+02  0.83703448079E+02 -0.19398618699E+03  0.21463200999E+03  0.47000000000E+01 0.  1.
         11    1    6    6    0    0  0.89736599446E+02  0.59100690547E+02 -0.38074014316E+03  0.39561168526E+03  0.00000000000E+00 0. -1.
        -12    1    6    6    0    0  0.29216754197E+02  0.80860873811E+02 -0.17850824740E+03  0.19813453518E+03  0.00000000000E+00 0.  1.
</event>
<event>
12    1  0.1345781E-002  0.2544015E+03  0.7818608E-02  0.1110554E+00
          1   -1    0    0  502    0  0.00000000000E+00  0.00000000000E+00  0.31107728715E+03  0.31107728715E+03  0.00000000000E+00 0.  1.
         -1   -1    0    0    0  501 -0.00000000000E+00 -0.00000000000E+00 -0.20808571752E+03  0.20808571752E+03  0.00000000000E+00 0. -1.
          6    2    1    2  502    0 -0.95396441362E+02 -0.16268724573E+03  0.54639712918E+02  0.25961997650E+03  0.16985114960E+03 0.  0.
         24    2    3    3    0    0 -0.99371034318E+01 -0.14700455111E+03  0.26104998823E+02  0.16804724443E+03  0.76480855932E+02 0.  0.
         -6    2    1    2    0  501  0.95396441362E+02  0.16268724573E+03  0.48351856717E+02  0.25954302817E+03  0.17163059306E+03 0.  0.
        -24    2    5    5    0    0  0.62046266947E+02  0.14534468810E+03  0.93375674266E+02  0.20070228900E+03  0.81163875378E+02 0.  0.
          5    1    3    3  502    0 -0.85459337931E+02 -0.15682694624E+02  0.28534714094E+02  0.91572732069E+02  0.47000000000E+01 0. -1.
        -11    1    4    4    0    0 -0.12092724589E+02 -0.84382922825E+01  0.25507362314E+02  0.29462930893E+02  0.00000000000E+00 0.  1.
         12    1    4    4    0    0  0.21556211574E+01 -0.13856625883E+03  0.59763650971E+00  0.13858431353E+03  0.00000000000E+00 0. -1.
         -5    1    5    5    0  501  0.33350174416E+02  0.17342557635E+02 -0.45023817549E+02  0.58840739165E+02  0.47000000000E+01 0.  1.
         13    1    6    6    0    0 -0.10791106692E+02  0.25765067935E+02 -0.65431031721E+01  0.28689700390E+02  0.00000000000E+00 0. -1.
        -14    1    6    6    0    0  0.72837373639E+02  0.11957962016E+03  0.99918777438E+02  0.17201258861E+03  0.00000000000E+00 0.  1.
</event>
<event>
12    1  0.1345781E-002  0.2089912E+03  0.7818608E-02  0.1142367E+00
         -2   -1    0    0    0  501 -0.00000000000E+00  0.00000000000E+00  0.50336720969E+03  0.50336720969E+03  0.00000000000E+00 0.  1.
          2   -1    0    0  502    0  0.00000000000E+00 -0.00000000000E+00 -0.11580727879E+03  0.11580727879E+03  0.00000000000E+00 0. -1.
          6    2    1    2  502    0 -0.95043916910E+02 -0.72494937822E+02  0.34946391350E+03  0.40768460163E+03  0.17260604108E+03 0.  0.
         24    2    3    3    0    0 -0.29837589046E+02 -0.78275450499E+02  0.30962019892E+03  0.33090640738E+03  0.81345282592E+02 0.  0.
         -6    2    1    2    0  501  0.95043916910E+02  0.72494937822E+02  0.38096017402E+02  0.21148988686E+03  0.17025804988E+03 0.  0.
        -24    2    5    5    0    0  0.32577305729E+02 -0.27574113759E+02  0.16630310129E+02  0.91495057027E+02  0.79203318410E+02 0.  0.
          5    1    3    3  502    0 -0.65206327863E+02  0.57805126768E+01  0.39843714585E+02  0.76778194249E+02  0.47000000000E+01 0. -1.
        -11    1    4    4    0    0 -0.28084845325E+02 -0.21968733386E+02  0.23350628497E+03  0.23621297362E+03  0.00000000000E+00 0.  1.
         12    1    4    4    0    0 -0.17527437217E+01 -0.56306717113E+02  0.76113913941E+02  0.94693433764E+02  0.00000000000E+00 0. -1.
         -5    1    5    5    0  501  0.62466611180E+02  0.10006905158E+03  0.21465707273E+02  0.11999482983E+03  0.47000000000E+01 0.  1.
         11    1    6    6    0    0  0.14009766276E+02 -0.32266012314E+02 -0.26673306670E+02  0.44145604430E+02  0.00000000000E+00 0. -1.
        -12    1    6    6    0    0  0.18567539453E+02  0.46918985547E+01  0.43303616799E+02  0.47349452597E+02  0.00000000000E+00 0.  1.
</event>
<event>
12    1  0.1345781E-002  0.3137689E+03  0.7818608E-02  0.1078553E+00
         -2   -1    0    0    0  501 -0.00000000000E+00  0.00000000000E+00  0.12740257715E+03  0.12740257715E+03  0.00000000000E+00 0. -1.
          2   -1    0    0  502    0  0.00000000000E+00 -0.00000000000E+00 -0.77776001089E+03  0.77776001089E+03  0.00000000000E+00 0.  1.
          6    2    1    2  502    0  0.23125099542E+03  0.12580372075E+03 -0.36135790192E+03  0.47849020321E+03  0.17049851100E+03 0.  0.
         24    2    3    3    0    0  0.22501544035E+03  0.14653829947E+03 -0.28179139452E+03  0.39589647462E+03  0.72264839215E+02 0.  0.
         -6    2    1    2    0  501 -0.23125099542E+03 -0.12580372075E+03 -0.28899953182E+03  0.42667238484E+03  0.17095319697E+03 0.  0.
        -24    2    5    5    0    0 -0.16052759676E+03 -0.13585749634E+03 -0.15024731154E+03  0.27054056183E+03  0.79947309765E+02 0.  0.
          5    1    3    3  502    0  0.62355550692E+01 -0.20734578726E+02 -0.79566507400E+02  0.82593728587E+02  0.47000000000E+01 0. -1.
        -11    1    4    4    0    0  0.75714792276E+02  0.51814001008E+02 -0.50385871337E+02  0.10467166044E+03  0.00000000000E+00 0.  1.
         12    1    4    4    0    0  0.14930064807E+03  0.94724298466E+02 -0.23140552318E+03  0.29122481418E+03  0.00000000000E+00 0. -1.
         -5    1    5    5    0  501 -0.70723398659E+02  0.10053775595E+02 -0.13875222028E+03  0.15613182301E+03  0.47000000000E+01 0.  1.
         13    1    6    6    0    0 -0.94691782514E+02 -0.11609449093E+03 -0.13137626667E+03  0.19925909752E+03  0.00000000000E+00 0. -1.
        -14    1    6    6    0    0 -0.65835814243E+02 -0.19763005417E+02 -0.18871044862E+02  0.71281464311E+02  0.00000000000E+00 0.  1.
</event>
<event>
12    1  0.1345781E-002  0.1754798E+03  0.7818608E-02  0.1172251E+00
         -1   -1    0    0    0  501 -0.00000000000E+00  0.00000000000E+00  0.95104684674E+02  0.95104684674E+02  0.00000000000E+00 0.  1.
          1   -1    0    0  502    0  0.00000000000E+00 -0.00000000000E+00 -0.35220122485E+03  0.35220122485E+03  0.00000000000E+00 0. -1.
          6    2    1    2  502    0 -0.23949983605E+02  0.22127564240E+02 -0.19235539016E+03  0.26065117909E+03  0.17284446830E+03 0.  0.
         24    2    3    3    0    0 -0.66026105374E+02  0.39236205092E+02 -0.73391152105E+02  0.13322400164E+03  0.80395565960E+02 0.  0.
         -6    2    1    2    0  501  0.23949983605E+02 -0.22127564240E+02 -0.64741150009E+02  0.18665473043E+03  0.17200389843E+03 0.  0.
        -24    2    5    5    0    0  0.49777022573E+02  0.43310843638E+02 -0.25375377738E+02  0.10590217509E+03  0.78852899380E+02 0.  0.
          5    1    3    3  502    0  0.42076121769E+02 -0.17108640852E+02 -0.11896423806E+03  0.12742717745E+03  0.47000000000E+01 0. -1.
        -13    1    4    4    0    0 -0.17247004330E+02 -0.16350367082E+02 -0.50492112845E+02  0.55805439892E+02  0.00000000000E+00 0.  1.
         14    1    4    4    0    0 -0.48779101044E+02  0.55586572174E+02 -0.22899039260E+02  0.77418561752E+02  0.00000000000E+00 0. -1.
         -5    1    5    5    0  501 -0.25827038968E+02 -0.65438407878E+02 -0.39365772271E+02  0.80752555340E+02  0.47000000000E+01 0.  1.
         11    1    6    6    0    0  0.14206094596E+02  0.20743110649E+02 -0.50812398262E+02  0.56692059234E+02  0.00000000000E+00 0. -1.
        -12    1    6    6    0    0  0.35570927976E+02  0.22567732989E+02  0.25437020524E+02  0.49210115855E+02  0.00000000000E+00 0.  1.
</event>
<event>
12    1  0.1345781E-002  0.1836447E+03  0.7818608E-02  0.1164322E+00
         -1   -1    0    0    0  501 -0.00000000000E+00  0.00000000000E+00  0.80412862416E+02  0.80412862416E+02  0.00000000000E+00 0.  1.
          1   -1    0    0  502    0  0.00000000000E+00 -0.00000000000E+00 -0.47402944864E+03  0.47402944864E+03  0.00000000000E+00 0. -1.
          6    2    1    2  502    0  0.65261036426E+02 -0.35819798628E+01 -0.10262542752E+03  0.21030533007E+03  0.17153576894E+03 0.  0.
         24    2    3    3    0    0  0.93747380698E+02 -0.37573817929E+02 -0.43332571106E+02  0.13611200363E+03  0.80301946632E+02 0.  0.
         -6    2    1    2    0  501 -0.65261036426E+02  0.35819798628E+01 -0.29099115870E+03  0.34413698099E+03  0.17170490321E+03 0.  0.
        -24    2    5    5    0    0 -0.41492419071E+02  0.61362880264E+02 -0.11877201951E+03  0.16087459662E+03  0.79289465273E+02 0.  0.
          5    1    3    3  502    0 -0.28486344272E+02  0.33991838066E+02 -0.59292856416E+02  0.74193326432E+02  0.47000000000E+01 0. -1.
        -13    1    4    4    0    0  0.23862724917E+01  0.19760739138E+02 -0.88128575491E-01  0.19904493822E+02  0.00000000000E+00 0.  1.
         14    1    4    4    0    0  0.91361108206E+02 -0.57334557067E+02 -0.43244442530E+02  0.11620750981E+03  0.00000000000E+00 0. -1.
         -5    1    5    5    0  501 -0.23768617355E+02 -0.57780900401E+02 -0.17221913919E+03  0.18326238437E+03  0.47000000000E+01 0.  1.
         13    1    6    6    0    0  0.14916020075E+02 -0.31847248625E+01 -0.45887488552E+02  0.48355886228E+02  0.00000000000E+00 0. -1.
        -14    1    6    6    0    0 -0.56408439146E+02  0.64547605127E+02 -0.72884530957E+02  0.11251871039E+03  0.00000000000E+00 0.  1.
</event>
<event>
12    1  0.1345781E-002  0.3164912E+03  0.7818608E-02  0.1077276E+00
         -2   -1    0    0    0  501 -0.00000000000E+00  0.00000000000E+00  0.75741954793E+02  0.75741954793E+02  0.00000000000E+00 0. -1.
          2   -1    0    0  502    0  0.00000000000E+00 -0.00000000000E+00 -0.13237587941E+04  0.13237587941E+04  0.00000000000E+00 0.  1.
          6    2    1    2  502    0 -0.20427941279E+03 -0.16909397497E+03 -0.60315639653E+03  0.68137001386E+03  0.17362202121E+03 0.  0.
         24    2    3    3    0    0 -0.21735193117E+03 -0.11317564770E+03 -0.46202335641E+03  0.52892863143E+03  0.79052679076E+02 0.  0.
         -6    2    1    2    0  501  0.20427941279E+03  0.16909397497E+03 -0.64486044279E+03  0.71813073505E+03  0.17188342295E+03 0.  0.
        -24    2    5    5    0    0  0.19047175469E+02  0.52302161836E+02 -0.21452992037E+03  0.23526661556E+03  0.78923904107E+02 0.  0.
          5    1    3    3  502    0  0.13072518378E+02 -0.55918327270E+02 -0.14113304013E+03  0.15244138243E+03  0.47000000000E+01 0. -1.
        -11    1    4    4    0    0 -0.16856035150E+03 -0.12130075331E+03 -0.36179964308E+03  0.41716357293E+03  0.00000000000E+00 0.  1.
         12    1    4    4    0    0 -0.48791579673E+02  0.81251056127E+01 -0.10022371333E+03  0.11176505850E+03  0.00000000000E+00 0. -1.
         -5    1    5    5    0  501  0.18523223732E+03  0.11679181313E+03 -0.43033052242E+03  0.48286411948E+03  0.47000000000E+01 0.  1.
         11    1    6    6    0    0  0.20084458783E+02  0.43996304589E+01 -0.61669390786E+01  0.21465632308E+02  0.00000000000E+00 0. -1.
        -12    1    6    6    0    0 -0.10372833143E+01  0.47902531377E+02 -0.20836298129E+03  0.21380098326E+03  0.00000000000E+00 0.  1.
</event>
<event>
12    1  0.1345781E-002  0.1882054E+03  0.7818608E-02  0.1160090E+00
         -2   -1    0    0    0  501 -0.00000000000E+00  0.00000000000E+00  0.10378724217E+03  0.10378724217E+03  0.00000000000E+00 0. -1.
          2   -1    0    0  502    0  0.00000000000E+00 -0.00000000000E+00 -0.41714429181E+03  0.41714429181E+03  0.00000000000E+00 0.  1.
          6    2    1    2  502    0  0.51481132733E+02 -0.62072276684E+02 -0.44604673295E+02  0.19196706937E+03  0.16839983457E+03 0.  0.
         24    2    3    3    0    0  0.82239833609E+02 -0.76513120933E+02 -0.64390159676E+02  0.15236667627E+03  0.80323492627E+02 0.  0.
         -6    2    1    2    0  501 -0.51481132733E+02  0.62072276684E+02 -0.26875237634E+03  0.32896446461E+03  0.17171634933E+03 0.  0.
        -24    2    5    5    0    0 -0.31048385935E+02  0.97828412469E+02 -0.14164284615E+03  0.19526734029E+03  0.86788465598E+02 0.  0.
          5    1    3    3  502    0 -0.30758700877E+02  0.14440844249E+02  0.19785486381E+02  0.39600393099E+02  0.47000000000E+01 0. -1.
        -13    1    4    4    0    0  0.53443312468E+02 -0.25930268699E+02 -0.72359013324E+02  0.93618338436E+02  0.00000000000E+00 0.  1.
         14    1    4    4    0    0  0.28796521141E+02 -0.50582852234E+02  0.79688536470E+01  0.58748337835E+02  0.00000000000E+00 0. -1.
         -5    1    5    5    0  501 -0.20432746797E+02 -0.35756135785E+02 -0.12710953019E+03  0.13369712433E+03  0.47000000000E+01 0.  1.
         11    1    6    6    0    0  0.25050586829E+02  0.64082368879E+02 -0.68111710871E+02  0.96815737664E+02  0.00000000000E+00 0. -1.
        -12    1    6    6    0    0 -0.56098972764E+02  0.33746043590E+02 -0.73531135280E+02  0.98451602621E+02  0.00000000000E+00 0.  1.
</event>
<event>
12    1  0.1345781E-002  0.1878470E+03  0.7818608E-02  0.1160418E+00
          2   -1    0    0  502    0  0.00000000000E+00  0.00000000000E+00  0.73451558307E+03  0.73451558307E+03  0.00000000000E+00 0. -1.
         -2   -1    0    0    0  501 -0.00000000000E+00 -0.00000000000E+00 -0.64527452514E+02  0.64527452514E+02  0.00000000000E+00 0.  1.
          6    2    1    2  502    0 -0.38990840092E+02 -0.70337749696E+02  0.53479454581E+03  0.56630109007E+03  0.16800010045E+03 0.  0.
         24    2    3    3    0    0 -0.44486147193E+02 -0.55281374408E+02  0.16984543851E+03  0.20096996116E+03  0.80662287704E+02 0.  0.
         -6    2    1    2    0  501  0.38990840092E+02  0.70337749696E+02  0.13519358475E+03  0.23274194551E+03  0.17153373779E+03 0.  0.
        -24    2    5    5    0    0  0.46032874004E+02  0.67038518161E+02  0.18190936682E+02  0.11538699323E+03  0.79812653274E+02 0.  0.
          5    1    3    3  502    0  0.54953071012E+01 -0.15056375287E+02  0.36494910729E+03  0.36533112891E+03  0.47000000000E+01 0. -1.
        -11    1    4    4    0    0  0.20810547745E+02 -0.29910792845E+02  0.71186612793E+02  0.79970421201E+02  0.00000000000E+00 0.  1.
         12    1    4    4    0    0 -0.65296694938E+02 -0.25370581563E+02  0.98658825721E+02  0.12099953996E+03  0.00000000000E+00 0. -1.
         -5    1    5    5    0  501 -0.70420339120E+01  0.32992315345E+01  0.11700264807E+03  0.11735495228E+03  0.47000000000E+01 0.  1.
         11    1    6    6    0    0 -0.10894959507E+02  0.38386281590E+02  0.30816306652E+02  0.50416778087E+02  0.00000000000E+00 0. -1.
        -12    1    6    6    0    0  0.56927833511E+02  0.28652236571E+02 -0.12625369970E+02  0.64970215142E+02  0.00000000000E+00 0.  1.
</event>
<event>
12    1  0.1345781E-002  0.1783305E+03  0.7818608E-02  0.1169429E+00
         -2   -1    0    0    0  501 -0.00000000000E+00  0.00000000000E+00  0.13976170376E+02  0.13976170376E+02  0.00000000000E+00 0. -1.
          2   -1    0    0  502    0  0.00000000000E+00 -0.00000000000E+00 -0.29214792835E+04  0.29214792835E+04  0.00000000000E+00 0.  1.
          6    2    1    2  502    0 -0.42272373645E+02  0.10830244892E+02 -0.21398791904E+04  0.21472441953E+04  0.17225108778E+03 0.  0.
         24    2    3    3    0    0  0.28643910408E+02  0.40379655060E+02 -0.85774967971E+03  0.86280639649E+03  0.79052986292E+02 0.  0.
         -6    2    1    2    0  501  0.42272373645E+02 -0.10830244892E+02 -0.76762392277E+03  0.78821125856E+03  0.17356916066E+03 0.  0.
        -24    2    5    5    0    0  0.51654602544E+02 -0.13114252097E+02 -0.21607600547E+03  0.23655879733E+03  0.80193783297E+02 0.  0.
          5    1    3    3  502    0 -0.70916284053E+02 -0.29549410168E+02 -0.12821295107E+04  0.12844377988E+04  0.47000000000E+01 0. -1.
        -11    1    4    4    0    0  0.29832818335E+02  0.62663356898E+02 -0.57398223804E+03  0.57816286887E+03  0.00000000000E+00 0.  1.
         12    1    4    4    0    0 -0.11889079263E+01 -0.22283701838E+02 -0.28376744167E+03  0.28464352763E+03  0.00000000000E+00 0. -1.
         -5    1    5    5    0  501 -0.93822288986E+01  0.22840072053E+01 -0.55154791730E+03  0.55165246123E+03  0.47000000000E+01 0.  1.
         11    1    6    6    0    0  0.57565888290E+02  0.21291319453E+02 -0.13741695936E+03  0.15050107142E+03  0.00000000000E+00 0. -1.
        -12    1    6    6    0    0 -0.59112857468E+01 -0.34405571550E+02 -0.78659046117E+02  0.86057725911E+02  0.00000000000E+00 0.  1.
</event>
<event>
12    1  0.1345781E-002  0.1874060E+03  0.7818608E-02  0.1160822E+00
         -1   -1    0    0    0  501 -0.00000000000E+00  0.00000000000E+00  0.58113903233E+02  0.58113903233E+02  0.00000000000E+00 0. -1.
          1   -1    0    0  502    0  0.00000000000E+00 -0.00000000000E+00 -0.92492428546E+03  0.92492428546E+03  0.00000000000E+00 0.  1.
          6    2    1    2  502    0 -0.14847410331E+02  0.68441695183E+02 -0.72035799041E+03  0.74394130499E+03  0.17212878811E+03 0.  0.
         24    2    3    3    0    0 -0.12788715054E+02 -0.30362475466E+02 -0.31054292935E+03  0.32235267061E+03  0.79930608253E+02 0.  0.
         -6    2    1    2    0  501  0.14847410331E+02 -0.68441695183E+02 -0.14645239182E+03  0.23909688370E+03  0.17554003957E+03 0.  0.
        -24    2    5    5    0    0 -0.29133967079E+02  0.21736606168E+02 -0.77686133189E+02  0.11737023945E+03  0.80120969380E+02 0.  0.
          5    1    3    3  502    0 -0.20586952770E+01  0.98804170648E+02 -0.40981506106E+03  0.42158863438E+03  0.47000000000E+01 0. -1.
        -13    1    4    4    0    0 -0.14346205183E+02 -0.18754469338E+02 -0.30971244090E+03  0.31061123574E+03  0.00000000000E+00 0.  1.
         14    1    4    4    0    0  0.15574901295E+01 -0.11608006127E+02 -0.83048844903E+00  0.11741434871E+02  0.00000000000E+00 0. -1.
         -5    1    5    5    0  501  0.43981377410E+02 -0.90178301350E+02 -0.68766258629E+02  0.12172664424E+03  0.47000000000E+01 0.  1.
         13    1    6    6    0    0 -0.30749580534E+02  0.30013181734E+02 -0.39462558904E+01  0.43149747581E+02  0.00000000000E+00 0. -1.
        -14    1    6    6    0    0  0.16156134544E+01 -0.82765755663E+01 -0.73739877298E+02  0.74220491873E+02  0.00000000000E+00 0.  1.
</event>
<event>
12    1  0.1345781E-002  0.3536067E+03  0.7818608E-02  0.1061144E+00
         -2   -1    0    0    0  501 -0.00000000000E+00  0.00000000000E+00  0.10306211482E+03  0.10306211482E+03  0.00000000000E+00 0.  1.
          2   -1    0    0  502    0  0.00000000000E+00 -0.00000000000E+00 -0.12133809476E+04  0.12133809476E+04  0.00000000000E+00 0. -1.
          6    2    1    2  502    0  0.21141174576E+03  0.22666821050E+03 -0.54783188747E+03  0.65207331521E+03  0.17031273466E+03 0.  0.
         24    2    3    3    0    0  0.14053033774E+03  0.15215228539E+03 -0.23551496654E+03  0.32322571192E+03  0.78156686229E+02 0.  0.
         -6    2    1    2    0  501 -0.21141174576E+03 -0.22666821050E+03 -0.56248694530E+03  0.66436974719E+03  0.17006526232E+03 0.  0.
        -24    2    5    5    0    0 -0.18223305830E+03 -0.20673730707E+03 -0.36637872044E+03  0.46504799080E+03  0.78019646743E+02 0.  0.
          5    1    3    3  502    0  0.70881408016E+02  0.74515925115E+02 -0.31231692092E+03  0.32884760330E+03  0.47000000000E+01 0. -1.
        -13    1    4    4    0    0  0.69878021232E+02  0.12706576258E+03 -0.17193311230E+03  0.22492141067E+03  0.00000000000E+00 0.  1.
         14    1    4    4    0    0  0.70652316510E+02  0.25086522808E+02 -0.63581854246E+02  0.98304301250E+02  0.00000000000E+00 0. -1.
         -5    1    5    5    0  501 -0.29178687456E+02 -0.19930903429E+02 -0.19610822486E+03  0.19932175639E+03  0.47000000000E+01 0.  1.
         11    1    6    6    0    0 -0.17199004446E+03 -0.14997785752E+03 -0.30357717084E+03  0.37978024145E+03  0.00000000000E+00 0. -1.
        -12    1    6    6    0    0 -0.10243013840E+02 -0.56759449559E+02 -0.62801549596E+02  0.85267749345E+02  0.00000000000E+00 0.  1.
</event>
<event>
12    1  0.1345781E-002  0.2064127E+03  0.7818608E-02  0.1144439E+00
          2   -1    0    0  502    0  0.00000000000E+00  0.00000000000E+00  0.33772580470E+04  0.33772580470E+04  0.00000000000E+00 0.  1.
         -2   -1    0    0    0  501 -0.00000000000E+00 -0.00000000000E+00 -0.12827912047E+02  0.12827912047E+02  0.00000000000E+00 0. -1.
          6    2    1    2  502    0  0.98651961053E+02  0.58303099126E+02  0.14509515355E+04  0.14653221762E+04  0.16963861906E+03 0.  0.
         24    2    3    3    0    0  0.76253252171E+02 -0.81033682872E+01  0.53775109265E+03  0.54942444185E+03  0.82527308277E+02 0.  0.
         -6    2    1    2    0  501 -0.98651961053E+02 -0.58303099126E+02  0.19134785995E+04  0.19247637828E+04  0.17373487900E+03 0.  0.
        -24    2    5    5    0    0 -0.69160891118E+02 -0.14599791746E+02  0.17437351458E+04  0.17469587425E+04  0.79096186049E+02 0.  0.
          5    1    3    3  502    0  0.22398708883E+02  0.66406467413E+02  0.91320044282E+03  0.91589773438E+03  0.47000000000E+01 0. -1.
        -11    1    4    4    0    0  0.23709137052E+02  0.36638183187E+02  0.20686950263E+03  0.21142249352E+03  0.00000000000E+00 0.  1.
         12    1    4    4    0    0  0.52544115119E+02 -0.44741551474E+02  0.33088159001E+03  0.33800194832E+03  0.00000000000E+00 0. -1.
         -5    1    5    5    0  501 -0.29491069935E+02 -0.43703307380E+02  0.16974345372E+03  0.17780504032E+03  0.47000000000E+01 0.  1.
         13    1    6    6    0    0 -0.19318317423E+02  0.29040378503E+02  0.37412064607E+03  0.37574299566E+03  0.00000000000E+00 0. -1.
        -14    1    6    6    0    0 -0.49842573695E+02 -0.43640170249E+02  0.13696144997E+04  0.13712157468E+04  0.00000000000E+00 0.  1.
</event>
<event>
12    1  0.1345781E-002  0.1851584E+03  0.7818608E-02  0.1162902E+00
          2   -1    0    0  502    0  0.00000000000E+00  0.00000000000E+00  0.36246222750E+04  0.36246222750E+04  0.00000000000E+00 0. -1.
         -2   -1    0    0    0  501 -0.00000000000E+00 -0.00000000000E+00 -0.96758350022E+01  0.96758350022E+01  0.00000000000E+00 0.  1.
          6    2    1    2  502    0  0.52225954382E+02 -0.44936094675E+02  0.15303257782E+04  0.15414252536E+04  0.17131264387E+03 0.  0.
         24    2    3    3    0    0  0.52786002908E+02  0.29923078134E+02  0.11135624865E+04  0.11179657623E+04  0.78385468483E+02 0.  0.
         -6    2    1    2    0  501 -0.52225954382E+02  0.44936094675E+02  0.20846206618E+04  0.20928728565E+04  0.17241428814E+03 0.  0.
        -24    2    5    5    0    0 -0.29781830979E+02 -0.26006634954E+02  0.61918061710E+03  0.62553744007E+03  0.79681552551E+02 0.  0.
          5    1    3    3  502    0 -0.56004852503E+00 -0.74859172809E+02  0.41676329176E+03  0.42345949129E+03  0.47000000000E+01 0. -1.
        -11    1    4    4    0    0  0.48995272280E+02 -0.15406689057E+02  0.47007395244E+03  0.47287146619E+03  0.00000000000E+00 0.  1.
         12    1    4    4    0    0  0.37907306279E+01  0.45329767191E+02  0.64348853403E+03  0.64509429610E+03  0.00000000000E+00 0. -1.
         -5    1    5    5    0  501 -0.22444123404E+02  0.70942729629E+02  0.14654400447E+04  0.14673354164E+04  0.47000000000E+01 0.  1.
         13    1    6    6    0    0  0.24783486601E+02 -0.86967177523E+01  0.30933567197E+03  0.31044872694E+03  0.00000000000E+00 0. -1.
        -14    1    6    6    0    0 -0.54565317580E+02 -0.17309917202E+02  0.30984494513E+03  0.31508871313E+03  0.00000000000E+00 0.  1.
</event>
<event>
12    1  0.1345781E-002  0.2197697E+03  0.7818608E-02  0.1134055E+00
          2   -1    0    0  502    0  0.00000000000E+00  0.00000000000E+00  0.29054899968E+03  0.29054899968E+03  0.00000000000E+00 0. -1.
         -2   -1    0    0    0  501 -0.00000000000E+00 -0.00000000000E+00 -0.17506021452E+03  0.17506021452E+03  0.00000000000E+00 0.  1.
          6    2    1    2  502    0  0.51119533605E+02 -0.12463161946E+03  0.11006476905E+03  0.24594401316E+03  0.17386189041E+03 0.  0.
         24    2    3    3    0    0  0.23941580076E+02 -0.51893541003E+01  0.88336433452E+02  0.12144780245E+03  0.79662504309E+02 0.  0.
         -6    2    1    2    0  501 -0.51119533605E+02  0.12463161946E+03  0.54240161114E+01  0.21966520105E+03  0.17342760252E+03 0.  0.
        -24    2    5    5    0    0 -0.14590456739E+02  0.12236001900E+02  0.47543270876E+02  0.94113339550E+02  0.78957943902E+02 0.  0.
          5    1    3    3  502    0  0.27177953529E+02 -0.11944226536E+03  0.21728335599E+02  0.12449621070E+03  0.47000000000E+01 0. -1.
        -13    1    4    4    0    0  0.29532966870E+02  0.27157488428E+02  0.18295517016E+02  0.44095932384E+02  0.00000000000E+00 0.  1.
         14    1    4    4    0    0 -0.55913867946E+01 -0.32346842528E+02  0.70040916436E+02  0.77351870068E+02  0.00000000000E+00 0. -1.
         -5    1    5    5    0  501 -0.36529076866E+02  0.11239561756E+03 -0.42119254765E+02  0.12555186150E+03  0.47000000000E+01 0.  1.
         11    1    6    6    0    0  0.17236257960E+02 -0.95786519861E+01 -0.12057197301E+02  0.23113095186E+02  0.00000000000E+00 0. -1.
        -12    1    6    6    0    0 -0.31826714699E+02  0.21814653886E+02  0.59600468178E+02  0.71000244363E+02  0.00000000000E+00 0.  1.
</event>
<event>
12    1  0.1345781E-002  0.2369815E+03  0.7818608E-02  0.1121820E+00
         -2   -1    0    0    0  501 -0.00000000000E+00  0.00000000000E+00  0.24370728200E+02  0.24370728200E+02  0.00000000000E+00 0. -1.
          2   -1    0    0  502    0  0.00000000000E+00 -0.00000000000E+00 -0.23179874305E+04  0.23179874305E+04  0.00000000000E+00 0.  1.
          6    2    1    2  502    0 -0.10334383487E+03 -0.12986521497E+03 -0.12465079836E+04  0.12692565554E+04  0.17229372560E+03 0.  0.
         24    2    3    3    0    0 -0.24293155859E+02 -0.56547868150E+02 -0.91668847673E+03  0.92222998533E+03  0.80016021234E+02 0.  0.
         -6    2    1    2    0  501  0.10334383487E+03  0.12986521497E+03 -0.10471087186E+04  0.10731016033E+04  0.16602849166E+03 0.  0.
        -24    2    5    5    0    0  0.57956782622E+02  0.11589588613E+02 -0.31680873156E+03  0.33188013204E+03  0.79267537059E+02 0.  0.
          5    1    3    3  502    0 -0.79050679013E+02 -0.73317346822E+02 -0.32981950690E+03  0.34702657006E+03  0.47000000000E+01 0. -1.
        -13    1    4    4    0    0  0.13298155285E+02 -0.54906927204E+02 -0.70196226519E+03  0.70423194570E+03  0.00000000000E+00 0.  1.
         14    1    4    4    0    0 -0.37591311144E+02 -0.16409409466E+01 -0.21472621154E+03  0.21799803963E+03  0.00000000000E+00 0. -1.
         -5    1    5    5    0  501  0.45387052249E+02  0.11827562636E+03 -0.73029998709E+03  0.74122147125E+03  0.47000000000E+01 0.  1.
         11    1    6    6    0    0  0.77508289373E+02  0.15226981843E+02 -0.25288772975E+03  0.26493697317E+03  0.00000000000E+00 0. -1.
        -12    1    6    6    0    0 -0.19551506751E+02 -0.36373932306E+01 -0.63921001813E+02  0.66943158862E+02  0.00000000000E+00 0.  1.
</event>
<event>
12    1  0.1345781E-002  0.1865089E+03  0.7818608E-02  0.1161648E+00
         -2   -1    0    0    0  501 -0.00000000000E+00  0.00000000000E+00  0.19852393779E+03  0.19852393779E+03  0.00000000000E+00 0. -1.
          2   -1    0    0  502    0  0.00000000000E+00 -0.00000000000E+00 -0.17584575920E+03  0.17584575920E+03  0.00000000000E+00 0.  1.
          6    2    1    2  502    0  0.29906442678E+02 -0.30347373467E+02  0.16133344084E+02  0.19778161161E+03  0.19246278266E+03 0.  0.
         24    2    3    3    0    0  0.12182169650E+02 -0.98324185326E+02  0.11212248777E+02  0.12720325810E+03  0.78986730984E+02 0.  0.
         -6    2    1    2    0  501 -0.29906442678E+02  0.30347373467E+02  0.65448345051E+01  0.17658808539E+03  0.17124590113E+03 0.  0.
        -24    2    5    5    0    0  0.19865492011E+02  0.63790904983E+02  0.37764168987E+02  0.10882045205E+03  0.77148175568E+02 0.  0.
          5    1    3    3  502    0  0.17724273028E+02  0.67976811859E+02  0.49210953069E+01  0.70578353508E+02  0.47000000000E+01 0. -1.
        -11    1    4    4    0    0  0.52080499052E-01 -0.87766398626E+02 -0.21843129342E+02  0.90443715866E+02  0.00000000000E+00 0.  1.
         12    1    4    4    0    0  0.12130089151E+02 -0.10557786700E+02  0.33055378119E+02  0.36759542236E+02  0.00000000000E+00 0. -1.
         -5    1    5    5    0  501 -0.49771934689E+02 -0.33443531516E+02 -0.31219334482E+02  0.67767633340E+02  0.47000000000E+01 0.  1.
         11    1    6    6    0    0  0.25820356873E+02  0.41661295054E+02 -0.15030371084E+02  0.51266620617E+02  0.00000000000E+00 0. -1.
        -12    1    6    6    0    0 -0.59548648612E+01  0.22129609929E+02  0.52794540071E+02  0.57553831432E+02  0.00000000000E+00 0.  1.
</event>
<event>
12    1  0.1345781E-002  0.1838803E+03  0.7818608E-02  0.1164100E+00
          1   -1    0    0  502    0  0.00000000000E+00  0.00000000000E+00  0.99734297569E+02  0.99734297569E+02  0.00000000000E+00 0. -1.
         -1   -1    0    0    0  501 -0.00000000000E+00 -0.00000000000E+00 -0.62113984689E+03  0.62113984689E+03  0.00000000000E+00 0.  1.
          6    2    1    2  502    0  0.48967326239E+02 -0.42182052305E+02 -0.18024268026E+02  0.18506303424E+03  0.17247123769E+03 0.  0.
         24    2    3    3    0    0  0.28638008281E+02 -0.59854076310E+02 -0.72225330503E+02  0.12435531830E+03  0.76453259279E+02 0.  0.
         -6    2    1    2    0  501 -0.48967326239E+02  0.42182052305E+02 -0.50338128129E+03  0.53581111021E+03  0.17182463996E+03 0.  0.
        -24    2    5    5    0    0  0.16914672144E+02  0.13693150073E+02 -0.13016897554E+03  0.15573010513E+03  0.82669794710E+02 0.  0.
          5    1    3    3  502    0  0.20329317958E+02  0.17672024005E+02  0.54201062477E+02  0.60707715941E+02  0.47000000000E+01 0. -1.
        -13    1    4    4    0    0 -0.57324498128E+01 -0.61904787465E+02 -0.27677653692E+02  0.68052304927E+02  0.00000000000E+00 0.  1.
         14    1    4    4    0    0  0.34370458094E+02  0.20507111551E+01 -0.44547676811E+02  0.56303013375E+02  0.00000000000E+00 0. -1.
         -5    1    5    5    0  501 -0.65881998384E+02  0.28488902232E+02 -0.37321230575E+03  0.38008100508E+03  0.47000000000E+01 0.  1.
         13    1    6    6    0    0 -0.10914712038E+02 -0.30155607108E+02 -0.36183629391E+02  0.48350249377E+02  0.00000000000E+00 0. -1.
        -14    1    6    6    0    0  0.27829384183E+02  0.43848757181E+02 -0.93985346148E+02  0.10737985575E+03  0.00000000000E+00 0.  1.
</event>
<event>
12    1  0.1345781E-002  0.2233113E+03  0.7818608E-02  0.1131438E+00
          2   -1    0    0  502    0  0.00000000000E+00  0.00000000000E+00  0.34197686205E+03  0.34197686205E+03  0.00000000000E+00 0.  1.
         -2   -1    0    0    0  501 -0.00000000000E+00 -0.00000000000E+00 -0.20648694530E+03  0.20648694530E+03  0.00000000000E+00 0. -1.
          6    2    1    2  502    0 -0.14059058178E+03 -0.13071960422E+02 -0.81037316177E+02  0.23693259486E+03  0.17214360302E+03 0.  0.
         24    2    3    3    0    0  0.91448169334E+00  0.45614741169E+01 -0.36548203377E+02  0.87480287554E+02  0.79343469911E+02 0.  0.
         -6    2    1    2    0  501  0.14059058178E+03  0.13071960422E+02  0.21652723292E+03  0.31153121249E+03  0.17387083115E+03 0.  0.
        -24    2    5    5    0    0 -0.30011460813E+01 -0.38026376731E+01  0.84534265549E+02  0.11570585712E+03  0.78856428960E+02 0.  0.
          5    1    3    3  502    0 -0.14150506347E+03 -0.17633434539E+02 -0.44489112800E+02  0.14945230731E+03  0.47000000000E+01 0. -1.
        -11    1    4    4    0    0  0.59705617719E+01  0.43743520231E+01  0.24821929994E+02  0.25901945335E+02  0.00000000000E+00 0.  1.
         12    1    4    4    0    0 -0.50560800786E+01  0.18712209376E+00 -0.61370133371E+02  0.61578342219E+02  0.00000000000E+00 0. -1.
         -5    1    5    5    0  501  0.14359172786E+03  0.16874598095E+02  0.13199296737E+03  0.19582535537E+03  0.47000000000E+01 0.  1.
         13    1    6    6    0    0 -0.69799185759E+01 -0.10466264027E+02 -0.12867483592E+02  0.17995390521E+02  0.00000000000E+00 0. -1.
        -14    1    6    6    0    0  0.39787724947E+01  0.66636263536E+01  0.97401749141E+02  0.97710466597E+02  0.00000000000E+00 0.  1.
</event>
<event>
12    1  0.1345781E-002  0.2554509E+03  0.7818608E-02  0.1109908E+00
          1   -1    0    0  502    0  0.00000000000E+00  0.00000000000E+00  0.82986905883E+03  0.82986905883E+03  0.00000000000E+00 0.  1.
         -1   -1    0    0    0  501 -0.00000000000E+00 -0.00000000000E+00 -0.10101889284E+03  0.10101889284E+03  0.00000000000E+00 0. -1.
          6    2    1    2  502    0  0.18703557064E+03 -0.30215208021E+02  0.14595564694E+03  0.29470368219E+03  0.17219740399E+03 0.  0.
         24    2    3    3    0    0  0.10737441181E+03 -0.28886668333E+02  0.16405958990E+03  0.21286537823E+03  0.77668631315E+02 0.  0.
         -6    2    1    2    0  501 -0.18703557064E+03  0.30215208021E+02  0.58289451905E+03  0.63618426948E+03  0.17049674752E+03 0.  0.
        -24    2    5    5    0    0 -0.11893692848E+03 -0.36690883714E+02  0.39781444806E+03  0.42788023003E+03  0.96607154278E+02 0.  0.
          5    1    3    3  502    0  0.79661158836E+02 -0.13285396886E+01 -0.18103942962E+02  0.81838303963E+02  0.47000000000E+01 0. -1.
        -13    1    4    4    0    0  0.56658223715E+02  0.24143715206E+02  0.85430397637E+02  0.10531583992E+03  0.00000000000E+00 0.  1.
         14    1    4    4    0    0  0.50716188092E+02 -0.53030383539E+02  0.78629192265E+02  0.10754953830E+03  0.00000000000E+00 0. -1.
         -5    1    5    5    0  501 -0.68098642162E+02  0.66906091735E+02  0.18508007099E+03  0.20830403945E+03  0.47000000000E+01 0.  1.
         11    1    6    6    0    0  0.87821787344E+01  0.80658486800E+01  0.59936954826E+01  0.13345747030E+02  0.00000000000E+00 0. -1.
        -12    1    6    6    0    0 -0.12771910722E+03 -0.44756732394E+02  0.39182075258E+03  0.41453448300E+03  0.00000000000E+00 0.  1.
</event>
<event>
12    1  0.1345781E-002  0.2473744E+03  0.7818608E-02  0.1114975E+00
          2   -1    0    0  502    0  0.00000000000E+00  0.00000000000E+00  0.11697975036E+04  0.11697975036E+04  0.00000000000E+00 0. -1.
         -2   -1    0    0    0  501 -0.00000000000E+00 -0.00000000000E+00 -0.62413515167E+02  0.62413515167E+02  0.00000000000E+00 0.  1.
          6    2    1    2  502    0  0.14751833568E+03  0.99707435441E+02  0.80248192615E+03  0.83989076091E+03  0.17244134198E+03 0.  0.
         24    2    3    3    0    0  0.10532115408E+03  0.11716107804E+03  0.74634219772E+03  0.76737186073E+03  0.83747434852E+02 0.  0.
         -6    2    1    2    0  501 -0.14751833568E+03 -0.99707435441E+02  0.30490206226E+03  0.39232025783E+03  0.17101662227E+03 0.  0.
        -24    2    5    5    0    0 -0.71338452883E+02 -0.75562549486E+01  0.22257738980E+03  0.24708026229E+03  0.79760201332E+02 0.  0.
          5    1    3    3  502    0  0.42197181600E+02 -0.17453642601E+02  0.56139728436E+02  0.72518900184E+02  0.47000000000E+01 0. -1.
        -11    1    4    4    0    0  0.37381355507E+02 -0.11313576683E+01  0.24346476263E+03  0.24632039370E+03  0.00000000000E+00 0.  1.
         12    1    4    4    0    0  0.67939798569E+02  0.11829243571E+03  0.50287743509E+03  0.52105146703E+03  0.00000000000E+00 0. -1.
         -5    1    5    5    0  501 -0.76179882793E+02 -0.92151180493E+02  0.82324672462E+02  0.14523999554E+03  0.47000000000E+01 0.  1.
         13    1    6    6    0    0  0.14447179266E+02 -0.52222306652E+01  0.73307089332E+02  0.74899412736E+02  0.00000000000E+00 0. -1.
        -14    1    6    6    0    0 -0.85785632150E+02 -0.23340242834E+01  0.14927030046E+03  0.17218084956E+03  0.00000000000E+00 0.  1.
</event>
<event>
12    1  0.1345781E-002  0.4186994E+03  0.7818608E-02  0.1037490E+00
          1   -1    0    0  502    0  0.00000000000E+00  0.00000000000E+00  0.10945258017E+04  0.10945258017E+04  0.00000000000E+00 0.  1.
         -1   -1    0    0    0  501 -0.00000000000E+00 -0.00000000000E+00 -0.16872269536E+03  0.16872269536E+03  0.00000000000E+00 0. -1.
          6    2    1    2  502    0 -0.22949067414E+03 -0.30497762375E+03  0.32065758748E+03  0.52735940342E+03  0.17207362220E+03 0.  0.
         24    2    3    3    0    0 -0.15860272184E+03 -0.13911417825E+03  0.11578621821E+03  0.25435729302E+03  0.82362650640E+02 0.  0.
         -6    2    1    2    0  501  0.22949067414E+03  0.30497762375E+03  0.60514551886E+03  0.73588909364E+03  0.17220435137E+03 0.  0.
        -24    2    5    5    0    0  0.24565612215E+03  0.28543416849E+03  0.59323757489E+03  0.70747857653E+03  0.82313553560E+02 0.  0.
          5    1    3    3  502    0 -0.70887952306E+02 -0.16586344550E+03  0.20487136926E+03  0.27300211040E+03  0.47000000000E+01 0. -1.
        -13    1    4    4    0    0  0.42112654331E+01  0.37932798556E+01 -0.38794154992E+01  0.68683035188E+01  0.00000000000E+00 0.  1.
         14    1    4    4    0    0 -0.16281398727E+03 -0.14290745810E+03  0.11966563371E+03  0.24748898950E+03  0.00000000000E+00 0. -1.
         -5    1    5    5    0  501 -0.16165448004E+02  0.19543455265E+02  0.11907943974E+02  0.28410517112E+02  0.47000000000E+01 0.  1.
         11    1    6    6    0    0  0.19774158880E+02  0.30388704886E+01  0.13267557650E+02  0.24005836358E+02  0.00000000000E+00 0. -1.
        -12    1    6    6    0    0  0.22588196327E+03  0.28239529800E+03  0.57997001724E+03  0.68347274017E+03  0.00000000000E+00 0.  1.
</event>
<event>
12    1  0.1345781E-002  0.1962420E+03  0.7818608E-02  0.1152949E+00
          2   -1    0    0  502    0  0.00000000000E+00  0.00000000000E+00  0.84105866626E+03  0.84105866626E+03  0.00000000000E+00 0.  1.
         -2   -1    0    0    0  501 -0.00000000000E+00 -0.00000000000E+00 -0.48854649254E+02  0.48854649254E+02  0.00000000000E+00 0. -1.
          6    2    1    2  502    0  0.96712732689E+02 -0.46390290944E+01  0.50586050026E+03  0.54226965890E+03  0.16966633130E+03 0.  0.
         24    2    3    3    0    0 -0.42427946046E+01 -0.11205184003E+02  0.32533044329E+03  0.33527129090E+03  0.80146014978E+02 0.  0.
         -6    2    1    2    0  501 -0.96712732689E+02  0.46390290944E+01  0.28634351674E+03  0.34764365662E+03  0.17172253536E+03 0.  0.
        -24    2    5    5    0    0 -0.10882204475E+03  0.50236314230E+02  0.19793395762E+03  0.24732372842E+03  0.87322679576E+02 0.  0.
          5    1    3    3  502    0  0.10095552729E+03  0.65661549087E+01  0.18053005697E+03  0.20699836799E+03  0.47000000000E+01 0. -1.
        -11    1    4    4    0    0 -0.39381083472E+02  0.33553687011E+01  0.21409517744E+03  0.21771282286E+03  0.00000000000E+00 0.  1.
         12    1    4    4    0    0  0.35138288868E+02 -0.14560552704E+02  0.11123526586E+03  0.11755846805E+03  0.00000000000E+00 0. -1.
         -5    1    5    5    0  501  0.12109312058E+02 -0.45597285136E+02  0.88409559120E+02  0.10031992820E+03  0.47000000000E+01 0.  1.
         13    1    6    6    0    0 -0.95733636918E+02 -0.35584608238E+00  0.12037926793E+03  0.15380579967E+03  0.00000000000E+00 0. -1.
        -14    1    6    6    0    0 -0.13088407829E+02  0.50592160312E+02  0.77554689691E+02  0.93517928750E+02  0.00000000000E+00 0.  1.
</event>
<event>
12    1  0.1345781E-002  0.2383993E+03  0.7818608E-02  0.1120864E+00
         -2   -1    0    0    0  501 -0.00000000000E+00  0.00000000000E+00  0.81035317553E+02  0.81035317553E+02  0.00000000000E+00 0. -1.
          2   -1    0    0  502    0  0.00000000000E+00 -0.00000000000E+00 -0.96079138711E+03  0.96079138711E+03  0.00000000000E+00 0.  1.
          6    2    1    2  502    0  0.15216988631E+03  0.67085471219E+02 -0.71193375056E+03  0.75111454679E+03  0.17224187199E+03 0.  0.
         24    2    3    3    0    0  0.14188152711E+03  0.94868970341E+02 -0.68605153673E+03  0.71149444897E+03  0.80169511656E+02 0.  0.
         -6    2    1    2    0  501 -0.15216988631E+03 -0.67085471219E+02 -0.16782231900E+03  0.29071215788E+03  0.16939035756E+03 0.  0.
        -24    2    5    5    0    0 -0.11126588373E+03  0.10944495868E+02 -0.57285716404E+02  0.14928286917E+03  0.80646406316E+02 0.  0.
          5    1    3    3  502    0  0.10288359201E+02 -0.27783499123E+02 -0.25882213835E+02  0.39620097823E+02  0.47000000000E+01 0. -1.
        -11    1    4    4    0    0  0.85475734543E+02  0.13132311425E+02 -0.25932332136E+03  0.27336265985E+03  0.00000000000E+00 0.  1.
         12    1    4    4    0    0  0.56405792563E+02  0.81736658916E+02 -0.42672821537E+03  0.43813178912E+03  0.00000000000E+00 0. -1.
         -5    1    5    5    0  501 -0.40904002575E+02 -0.78029967086E+02 -0.11053660260E+03  0.14142928871E+03  0.47000000000E+01 0.  1.
         11    1    6    6    0    0 -0.11004374408E+03 -0.13393508227E+02 -0.34971689078E+02  0.11624126080E+03  0.00000000000E+00 0. -1.
        -12    1    6    6    0    0 -0.12221396501E+01  0.24338004094E+02 -0.22314027326E+02  0.33041608377E+02  0.00000000000E+00 0.  1.
</event>
<event>
12    1  0.1345781E-002  0.1869617E+03  0.7818608E-02  0.1161231E+00
         -2   -1    0    0    0  501 -0.00000000000E+00  0.00000000000E+00  0.20625091675E+02  0.20625091675E+02  0.00000000000E+00 0. -1.
          2   -1    0    0  502    0  0.00000000000E+00 -0.00000000000E+00 -0.17512254552E+04  0.17512254552E+04  0.00000000000E+00 0.  1.
          6    2    1    2  502    0  0.52566438461E+02  0.47882410720E+02 -0.10298062292E+04  0.10468625085E+04  0.17425351144E+03 0.  0.
         24    2    3    3    0    0  0.56386475691E+02  0.58662177868E+01 -0.29407825788E+03  0.30991088800E+03  0.79679919600E+02 0.  0.
         -6    2    1    2    0  501 -0.52566438461E+02 -0.47882410720E+02 -0.70079413433E+03  0.72498803840E+03  0.17157879066E+03 0.  0.
        -24    2    5    5    0    0  0.29571273959E+02  0.89862406760E+00 -0.23695577519E+03  0.25139083975E+03  0.78575105139E+02 0.  0.
          5    1    3    3  502    0 -0.38200372306E+01  0.42016192933E+02 -0.73572797132E+03  0.73695162048E+03  0.47000000000E+01 0. -1.
        -11    1    4    4    0    0  0.24158923137E+02  0.27422194360E+02 -0.24326464298E+03  0.24599454635E+03  0.00000000000E+00 0.  1.
         12    1    4    4    0    0  0.32227552554E+02 -0.21555976574E+02 -0.50813614899E+02  0.63916341641E+02  0.00000000000E+00 0. -1.
         -5    1    5    5    0  501 -0.82137712420E+02 -0.48781034787E+02 -0.46383835914E+03  0.47359719865E+03  0.47000000000E+01 0.  1.
         11    1    6    6    0    0  0.37662840491E+02 -0.31547650530E+02 -0.11787299884E+03  0.12770194855E+03  0.00000000000E+00 0. -1.
        -12    1    6    6    0    0 -0.80915665317E+01  0.32446274598E+02 -0.11908277634E+03  0.12368889120E+03  0.00000000000E+00 0.  1.
</event>
<event>
12    1  0.1345781E-002  0.1834292E+03  0.7818608E-02  0.1164525E+00
          2   -1    0    0  502    0  0.00000000000E+00  0.00000000000E+00  0.37302040486E+04  0.37302040486E+04  0.00000000000E+00 0.  1.
         -2   -1    0    0    0  501 -0.00000000000E+00 -0.00000000000E+00 -0.96228844974E+01  0.96228844974E+01  0.00000000000E+00 0. -1.
          6    2    1    2  502    0 -0.59054694187E+02  0.21075167708E+02  0.23325972350E+04  0.23398335786E+04  0.17285744132E+03 0.  0.
         24    2    3    3    0    0  0.23253309107E+02  0.49523426804E+02  0.13126659671E+04  0.13161804185E+04  0.79029530428E+02 0.  0.
         -6    2    1    2    0  501  0.59054694187E+02 -0.21075167708E+02  0.13879839290E+04  0.13999933545E+04  0.17190225626E+03 0.  0.
        -24    2    5    5    0    0  0.94631519553E+02  0.20913843509E+02  0.88314209906E+03  0.89213889613E+03  0.81113066220E+02 0.  0.
          5    1    3    3  502    0 -0.82308003293E+02 -0.28448259097E+02  0.10199312680E+04  0.10236531601E+04  0.47000000000E+01 0. -1.
        -11    1    4    4    0    0  0.38123859051E+00  0.42778827742E+02  0.12109985759E+04  0.12117539867E+04  0.00000000000E+00 0.  1.
         12    1    4    4    0    0  0.22872070516E+02  0.67445990619E+01  0.10166739123E+03  0.10442643183E+03  0.00000000000E+00 0. -1.
         -5    1    5    5    0  501 -0.35576825366E+02 -0.41989011216E+02  0.50484182997E+03  0.50785445834E+03  0.47000000000E+01 0.  1.
         11    1    6    6    0    0  0.70566479503E+02  0.30455657175E+02  0.34868432622E+03  0.35705452585E+03  0.00000000000E+00 0. -1.
        -12    1    6    6    0    0  0.24065040050E+02 -0.95418136662E+01  0.53445777284E+03  0.53508437027E+03  0.00000000000E+00 0.  1.
</event>
<event>
12    1  0.1345781E-002  0.1993578E+03  0.7818608E-02  0.1150282E+00
          4   -1    0    0  502    0  0.00000000000E+00  0.00000000000E+00  0.48437766599E+02  0.48437766599E+02  0.00000000000E+00 0. -1.
         -4   -1    0    0    0  501 -0.00000000000E+00 -0.00000000000E+00 -0.82075080202E+03  0.82075080202E+03  0.00000000000E+00 0.  1.
          6    2    1    2  502    0  0.10472048890E+03  0.11269254504E+02 -0.38237021021E+03  0.43192522945E+03  0.17105276756E+03 0.  0.
         24    2    3    3    0    0  0.39534336337E+02 -0.39721239810E+02 -0.29852329292E+03  0.31401992620E+03  0.79697032526E+02 0.  0.
         -6    2    1    2    0  501 -0.10472048890E+03 -0.11269254504E+02 -0.38994282520E+03  0.43726333916E+03  0.16748266763E+03 0.  0.
        -24    2    5    5    0    0 -0.77795481855E+02  0.39658465619E+02 -0.16193393792E+03  0.20204273768E+03  0.83508901961E+02 0.  0.
          5    1    3    3  502    0  0.65186152559E+02  0.50990494314E+02 -0.83846917297E+02  0.11790530326E+03  0.47000000000E+01 0. -1.
        -11    1    4    4    0    0  0.58485284537E+02 -0.36193070714E+02 -0.15992506191E+03  0.17408759951E+03  0.00000000000E+00 0.  1.
         12    1    4    4    0    0 -0.18950948201E+02 -0.35281690958E+01 -0.13859823100E+03  0.13993232669E+03  0.00000000000E+00 0. -1.
         -5    1    5    5    0  501 -0.26925007040E+02 -0.50927720123E+02 -0.22800888728E+03  0.23522060147E+03  0.47000000000E+01 0.  1.
         11    1    6    6    0    0 -0.16003280046E+01  0.16335087983E+01  0.99560492991E+01  0.10215298251E+02  0.00000000000E+00 0. -1.
        -12    1    6    6    0    0 -0.76195153851E+02  0.38024956821E+02 -0.17188998722E+03  0.19182743943E+03  0.00000000000E+00 0.  1.
</event>
<event>
12    1  0.1345781E-002  0.2139916E+03  0.7818608E-02  0.1138444E+00
         -1   -1    0    0    0  501 -0.00000000000E+00  0.00000000000E+00  0.22715292476E+02  0.22715292476E+02  0.00000000000E+00 0.  1.
          1   -1    0    0  502    0  0.00000000000E+00 -0.00000000000E+00 -0.21190715787E+04  0.21190715787E+04  0.00000000000E+00 0. -1.
          6    2    1    2  502    0 -0.12301296794E+03 -0.45029202809E+02 -0.12874420047E+04  0.13052118226E+04  0.17003284136E+03 0.  0.
         24    2    3    3    0    0 -0.21996452639E+02  0.27453904044E+02 -0.60666161518E+03  0.61315534671E+03  0.81753306284E+02 0.  0.
         -6    2    1    2    0  501  0.12301296794E+03  0.45029202809E+02 -0.80891428157E+03  0.83657504856E+03  0.16839144150E+03 0.  0.
        -24    2    5    5    0    0  0.83389729579E+02  0.89530489913E+02 -0.66305263171E+03  0.67894232204E+03  0.79714042785E+02 0.  0.
          5    1    3    3  502    0 -0.10101651530E+03 -0.72483106853E+02 -0.68078038948E+03  0.69205647591E+03  0.47000000000E+01 0. -1.
        -11    1    4    4    0    0  0.20017047181E+02 -0.17844967029E+02 -0.15794634712E+03  0.16020665902E+03  0.00000000000E+00 0.  1.
         12    1    4    4    0    0 -0.42013499820E+02  0.45298871073E+02 -0.44871526806E+03  0.45294868768E+03  0.00000000000E+00 0. -1.
         -5    1    5    5    0  501  0.39623238364E+02 -0.44501287104E+02 -0.14586164985E+03  0.15763272652E+03  0.47000000000E+01 0.  1.
         13    1    6    6    0    0  0.16917191010E+02  0.34632164010E+02 -0.40584012094E+03  0.40766626289E+03  0.00000000000E+00 0. -1.
        -14    1    6    6    0    0  0.66472538570E+02  0.54898325903E+02 -0.25721251078E+03  0.27127605916E+03  0.00000000000E+00 0.  1.
</event>
<event>
12    1  0.1345781E-002  0.2096852E+03  0.7818608E-02  0.1141816E+00
          2   -1    0    0  502    0  0.00000000000E+00  0.00000000000E+00  0.16856742542E+04  0.16856742542E+04  0.00000000000E+00 0.  1.
         -2   -1    0    0    0  501 -0.00000000000E+00 -0.00000000000E+00 -0.31970768978E+02  0.31970768978E+02  0.00000000000E+00 0. -1.
          6    2    1    2  502    0  0.18344222982E+02  0.11808717685E+03  0.46046914246E+03  0.50624248976E+03  0.17311422654E+03 0.  0.
         24    2    3    3    0    0  0.36343707636E+00 -0.10908597505E+01  0.25890229044E+03  0.27134251338E+03  0.81209860941E+02 0.  0.
         -6    2    1    2    0  501 -0.18344222982E+02 -0.11808717685E+03  0.11932343428E+04  0.12114025335E+04  0.17148413736E+03 0.  0.
        -24    2    5    5    0    0  0.46818995016E+02 -0.10606591866E+03  0.88480217040E+03  0.89589777818E+03  0.79472956457E+02 0.  0.
          5    1    3    3  502    0  0.17980785906E+02  0.11917803660E+03  0.20156685202E+03  0.23489997638E+03  0.47000000000E+01 0. -1.
        -13    1    4    4    0    0  0.37168635272E+02  0.12828830814E+02  0.16312418114E+03  0.16779625985E+03  0.00000000000E+00 0.  1.
         14    1    4    4    0    0 -0.36805198196E+02 -0.13919690565E+02  0.95778109301E+02  0.10354625353E+03  0.00000000000E+00 0. -1.
         -5    1    5    5    0  501 -0.65163217998E+02 -0.12021258185E+02  0.30843217241E+03  0.31550475528E+03  0.47000000000E+01 0.  1.
         13    1    6    6    0    0  0.53102535603E+02 -0.27103362844E+02  0.45090268038E+03  0.45482710863E+03  0.00000000000E+00 0. -1.
        -14    1    6    6    0    0 -0.62835405872E+01 -0.78962555819E+02  0.43389949001E+03  0.44107066955E+03  0.00000000000E+00 0.  1.
</event>
<event>
12    1  0.1345781E-002  0.2182408E+03  0.7818608E-02  0.1135201E+00
          1   -1    0    0  502    0  0.00000000000E+00  0.00000000000E+00  0.25039812525E+04  0.25039812525E+04  0.00000000000E+00 0. -1.
         -1   -1    0    0    0  501 -0.00000000000E+00 -0.00000000000E+00 -0.20094203696E+02  0.20094203696E+02  0.00000000000E+00 0.  1.
          6    2    1    2  502    0  0.13437222309E+03 -0.73041516722E+01  0.15338550941E+04  0.15493109908E+04  0.17188324980E+03 0.  0.
         24    2    3    3    0    0  0.47548268843E+02 -0.13627646431E+02  0.34746383835E+03  0.35972085663E+03  0.78876011014E+02 0.  0.
         -6    2    1    2    0  501 -0.13437222309E+03  0.73041516722E+01  0.95003195475E+03  0.97476446543E+03  0.17174342218E+03 0.  0.
        -24    2    5    5    0    0 -0.29386358574E+02  0.54684894973E+02  0.38506838042E+03  0.39815983755E+03  0.79997517634E+02 0.  0.
          5    1    3    3  502    0  0.86823954247E+02  0.63234947586E+01  0.11863912558E+04  0.11895901342E+04  0.47000000000E+01 0. -1.
        -13    1    4    4    0    0  0.34138330461E+02  0.75076053334E+01  0.32243316121E+03  0.32432226749E+03  0.00000000000E+00 0.  1.
         14    1    4    4    0    0  0.13409938383E+02 -0.21135251764E+02  0.25030677146E+02  0.35398589138E+02  0.00000000000E+00 0. -1.
         -5    1    5    5    0  501 -0.10498586452E+03 -0.47380743301E+02  0.56496357432E+03  0.57660462788E+03  0.47000000000E+01 0.  1.
         13    1    6    6    0    0 -0.31504671615E+02  0.46611021436E+02  0.38570688325E+03  0.38978831619E+03  0.00000000000E+00 0. -1.
        -14    1    6    6    0    0  0.21183130409E+01  0.80738735372E+01 -0.63850282473E+00  0.83715213606E+01  0.00000000000E+00 0.  1.
</event>
<event>
12    1  0.1345781E-002  0.1818952E+03  0.7818608E-02  0.1165981E+00
         -4   -1    0    0    0  501 -0.00000000000E+00  0.00000000000E+00  0.36639422008E+03  0.36639422008E+03  0.00000000000E+00 0.  1.
          4   -1    0    0  502    0  0.00000000000E+00 -0.00000000000E+00 -0.97187391488E+02  0.97187391488E+02  0.00000000000E+00 0. -1.
          6    2    1    2  502    0 -0.62060206685E+02 -0.10191067015E+02  0.72045347077E+02  0.19445800041E+03  0.16931643390E+03 0.  0.
         24    2    3    3    0    0 -0.48916639169E+02  0.56918573408E+02  0.59637079942E+02  0.12479802412E+03  0.79908722507E+02 0.  0.
         -6    2    1    2    0  501  0.62060206685E+02  0.10191067015E+02  0.19716148152E+03  0.26912361116E+03  0.17204517194E+03 0.  0.
        -24    2    5    5    0    0  0.46561440668E+02  0.71041676154E+02  0.10288374192E+03  0.15575081652E+03  0.80363953279E+02 0.  0.
          5    1    3    3  502    0 -0.13143567515E+02 -0.67109640423E+02  0.12408267136E+02  0.69659976300E+02  0.47000000000E+01 0. -1.
        -11    1    4    4    0    0 -0.33062100419E+02  0.70457633588E+02  0.20547218421E+02  0.80495768831E+02  0.00000000000E+00 0.  1.
         12    1    4    4    0    0 -0.15854538750E+02 -0.13539060180E+02  0.39089861521E+02  0.44302255284E+02  0.00000000000E+00 0. -1.
         -5    1    5    5    0  501  0.15498766017E+02 -0.60850609139E+02  0.94277739594E+02  0.11337279464E+03  0.47000000000E+01 0.  1.
         13    1    6    6    0    0  0.97368288034E+00  0.38068704551E+02  0.90437658215E+02  0.98128203632E+02  0.00000000000E+00 0. -1.
        -14    1    6    6    0    0  0.45587757788E+02  0.32972971603E+02  0.12446083709E+02  0.57622612889E+02  0.00000000000E+00 0.  1.
</event>
<event>
12    1  0.1345781E-002  0.1930077E+03  0.7818608E-02  0.1155776E+00
          2   -1    0    0  502    0  0.00000000000E+00  0.00000000000E+00  0.49615300029E+03  0.49615300029E+03  0.00000000000E+00 0.  1.
         -2   -1    0    0    0  501 -0.00000000000E+00 -0.00000000000E+00 -0.90602886445E+02  0.90602886445E+02  0.00000000000E+00 0. -1.
          6    2    1    2  502    0  0.70767211303E+02 -0.52789997371E+02  0.81808295754E+02  0.21011586385E+03  0.17222455391E+03 0.  0.
         24    2    3    3    0    0  0.71537114352E+02 -0.22772054977E+02 -0.11647192612E+02  0.11184232763E+03  0.82078766659E+02 0.  0.
         -6    2    1    2    0  501 -0.70767211303E+02  0.52789997371E+02  0.32374181809E+03  0.37664002288E+03  0.17103847531E+03 0.  0.
        -24    2    5    5    0    0 -0.17097038534E+02  0.25803693897E+02  0.55715834444E+02  0.10192423169E+03  0.79537132536E+02 0.  0.
          5    1    3    3  502    0 -0.76990304927E+00 -0.30017942393E+02  0.93455488366E+02  0.98273536224E+02  0.47000000000E+01 0. -1.
        -13    1    4    4    0    0 -0.56440889281E+01  0.20986042024E+02  0.29358476768E+01  0.21929179220E+02  0.00000000000E+00 0.  1.
         14    1    4    4    0    0  0.77181203280E+02 -0.43758097001E+02 -0.14583040289E+02  0.89913148410E+02  0.00000000000E+00 0. -1.
         -5    1    5    5    0  501 -0.53670172769E+02  0.26986303473E+02  0.26802598365E+03  0.27471579119E+03  0.47000000000E+01 0.  1.
         11    1    6    6    0    0  0.72626078281E+01  0.48690534880E+02  0.45337949467E+02  0.66925655179E+02  0.00000000000E+00 0. -1.
        -12    1    6    6    0    0 -0.24359646362E+02 -0.22886840982E+02  0.10377884977E+02  0.34998576509E+02  0.00000000000E+00 0.  1.
</event>
<event>
12    1  0.1345781E-002  0.2109657E+03  0.7818608E-02  0.1140804E+00
         -2   -1    0    0    0  501 -0.00000000000E+00  0.00000000000E+00  0.17716909111E+03  0.17716909111E+03  0.00000000000E+00 0. -1.
          2   -1    0    0  502    0  0.00000000000E+00 -0.00000000000E+00 -0.86301332850E+03  0.86301332850E+03  0.00000000000E+00 0.  1.
          6    2    1    2  502    0 -0.10523501211E+03  0.60738549506E+02 -0.78038689359E+03  0.80816123085E+03  0.17133969823E+03 0.  0.
         24    2    3    3    0    0 -0.10017945758E+03  0.62588830946E+01 -0.69266448059E+03  0.70466773141E+03  0.81837837707E+02 0.  0.
         -6    2    1    2    0  501  0.10523501211E+03 -0.60738549506E+02  0.94542656209E+02  0.23202118876E+03  0.17358553805E+03 0.  0.
        -24    2    5    5    0    0  0.53658438700E+02  0.17936444858E+02 -0.56871651026E+00  0.98162453956E+02  0.80215957454E+02 0.  0.
          5    1    3    3  502    0 -0.50555545372E+01  0.54479666411E+02 -0.87722413007E+02  0.10349349945E+03  0.47000000000E+01 0. -1.
        -11    1    4    4    0    0 -0.74540694471E+02  0.41961465720E+02 -0.45260132735E+03  0.46061376581E+03  0.00000000000E+00 0.  1.
         12    1    4    4    0    0 -0.25638763106E+02 -0.35702582625E+02 -0.24006315324E+03  0.24405396560E+03  0.00000000000E+00 0. -1.
         -5    1    5    5    0  501  0.51576573415E+02 -0.78674994364E+02  0.95111372719E+02  0.13385873481E+03  0.47000000000E+01 0.  1.
         11    1    6    6    0    0  0.22597105781E+01  0.29898454287E+02  0.25446476873E+02  0.39326162359E+02  0.00000000000E+00 0. -1.
        -12    1    6    6    0    0  0.51398728122E+02 -0.11962009429E+02 -0.26015193383E+02  0.58836291597E+02  0.00000000000E+00 0.  1.
</event>
<event>
12    1  0.1345781E-002  0.2003619E+03  0.7818608E-02  0.1149434E+00
          1   -1    0    0  502    0  0.00000000000E+00  0.00000000000E+00  0.13237313107E+04  0.13237313107E+04  0.00000000000E+00 0.  1.
         -1   -1    0    0    0  501 -0.00000000000E+00 -0.00000000000E+00 -0.36186326678E+02  0.36186326678E+02  0.00000000000E+00 0. -1.
          6    2    1    2  502    0 -0.92589960206E+02 -0.47461259376E+02  0.91777405075E+03  0.93942138645E+03  0.17139971180E+03 0.  0.
         24    2    3    3    0    0 -0.96752350765E+02 -0.96687369941E-01  0.39055383364E+03  0.41004063924E+03  0.78993684132E+02 0.  0.
         -6    2    1    2    0  501  0.92589960206E+02  0.47461259376E+02  0.36977093331E+03  0.42049625097E+03  0.17105870948E+03 0.  0.
        -24    2    5    5    0    0  0.90455620535E+02  0.94585281002E+02  0.26662009857E+03  0.30697350643E+03  0.77574880097E+02 0.  0.
          5    1    3    3  502    0  0.41623905591E+01 -0.47364572006E+02  0.52722021712E+03  0.52938074721E+03  0.47000000000E+01 0. -1.
        -11    1    4    4    0    0 -0.64289817129E+02  0.22495075733E+02  0.33495451101E+03  0.34180949879E+03  0.00000000000E+00 0.  1.
         12    1    4    4    0    0 -0.32462533636E+02 -0.22591763103E+02  0.55599322627E+02  0.68231140447E+02  0.00000000000E+00 0. -1.
         -5    1    5    5    0  501  0.21343396703E+01 -0.47124021626E+02  0.10315083474E+03  0.11352274454E+03  0.47000000000E+01 0.  1.
         13    1    6    6    0    0  0.20599739192E+02  0.68437942595E+02  0.87740644162E+02  0.11316590423E+03  0.00000000000E+00 0. -1.
        -14    1    6    6    0    0  0.69855881344E+02  0.26147338407E+02  0.17887945441E+03  0.19380760221E+03  0.00000000000E+00 0.  1.
</event>
<event>
12    1  0.1345781E-002  0.2169028E+03  0.7818608E-02  0.1136213E+00
          2   -1    0    0  502    0  0.00000000000E+00  0.00000000000E+00  0.11534854372E+04  0.11534854372E+04  0.00000000000E+00 0.  1.
         -2   -1    0    0    0  501 -0.00000000000E+00 -0.00000000000E+00 -0.41377343569E+02  0.41377343569E+02  0.00000000000E+00 0. -1.
          6    2    1    2  502    0 -0.75060414180E+02  0.10780972857E+03  0.48548374169E+03  0.53186447875E+03  0.17299814150E+03 0.  0.
         24    2    3    3    0    0 -0.11393801748E+02  0.63327723400E+02  0.41487054897E+03  0.42679117430E+03  0.76765322814E+02 0.  0.
         -6    2    1    2    0  501  0.75060414180E+02 -0.10780972857E+03  0.62662435198E+03  0.66299830205E+03  0.17219659312E+03 0.  0.
        -24    2    5    5    0    0 -0.52632511474E+01 -0.68033061784E+02  0.18718802860E+03  0.21448916421E+03  0.79435786649E+02 0.  0.
          5    1    3    3  502    0 -0.63666612433E+02  0.44482005173E+02  0.70613192721E+02  0.10507330446E+03  0.47000000000E+01 0. -1.
        -11    1    4    4    0    0  0.98628173574E+01 -0.15582859844E+02  0.76011757687E+02  0.78216929074E+02  0.00000000000E+00 0.  1.
         12    1    4    4    0    0 -0.21256619105E+02  0.78910583243E+02  0.33885879128E+03  0.34857424522E+03  0.00000000000E+00 0. -1.
         -5    1    5    5    0  501  0.80323665328E+02 -0.39776666789E+02  0.43943632337E+03  0.44850913785E+03  0.47000000000E+01 0.  1.
         11    1    6    6    0    0 -0.39650619956E+02 -0.23453198700E+02  0.62165047398E+02  0.77373880026E+02  0.00000000000E+00 0. -1.
        -12    1    6    6    0    0  0.34387368809E+02 -0.44579863084E+02  0.12502298121E+03  0.13711528418E+03  0.00000000000E+00 0.  1.
</event>
<event>
12    1  0.1345781E-002  0.1792248E+03  0.7818608E-02  0.1168555E+00
         -2   -1    0    0    0  501 -0.00000000000E+00  0.00000000000E+00  0.26788695458E+02  0.26788695458E+02  0.00000000000E+00 0. -1.
          2   -1    0    0  502    0  0.00000000000E+00 -0.00000000000E+00 -0.14260600127E+04  0.14260600127E+04  0.00000000000E+00 0.  1.
          6    2    1    2  502    0 -0.38866160692E+02  0.27857957750E+02 -0.41119807566E+03  0.44872698190E+03  0.17316293657E+03 0.  0.
         24    2    3    3    0    0  0.30140314320E+02 -0.21688632962E+02 -0.26345226001E+03  0.27823453548E+03  0.81415772921E+02 0.  0.
         -6    2    1    2    0  501  0.38866160692E+02 -0.27857957750E+02 -0.98807324163E+03  0.10041217263E+04  0.17229354649E+03 0.  0.
        -24    2    5    5    0    0  0.21419353224E+02 -0.49845193149E+02 -0.95773957665E+03  0.96252784644E+03  0.79065963074E+02 0.  0.
          5    1    3    3  502    0 -0.69006475012E+02  0.49546590711E+02 -0.14774581564E+03  0.17049244642E+03  0.47000000000E+01 0. -1.
        -13    1    4    4    0    0 -0.15518159521E+02 -0.23078934826E+01 -0.18333897704E+03  0.18400902192E+03  0.00000000000E+00 0.  1.
         14    1    4    4    0    0  0.45658473841E+02 -0.19380739479E+02 -0.80113282977E+02  0.94225513560E+02  0.00000000000E+00 0. -1.
         -5    1    5    5    0  501  0.17446807468E+02  0.21987235399E+02 -0.30333664978E+02  0.41593879866E+02  0.47000000000E+01 0.  1.
         11    1    6    6    0    0 -0.20253058433E+02 -0.22534110889E+02 -0.13853297608E+03  0.14180746804E+03  0.00000000000E+00 0. -1.
        -12    1    6    6    0    0  0.41672411657E+02 -0.27311082259E+02 -0.81920660057E+03  0.82072037840E+03  0.00000000000E+00 0.  1.
</event>
<event>
12    1  0.1345781E-002  0.1964353E+03  0.7818608E-02  0.1152782E+00
         -2   -1    0    0    0  501 -0.00000000000E+00  0.00000000000E+00  0.12937201328E+02  0.12937201328E+02  0.00000000000E+00 0.  1.
          2   -1    0    0  502    0  0.00000000000E+00 -0.00000000000E+00 -0.29832010624E+04  0.29832010624E+04  0.00000000000E+00 0. -1.
          6    2    1    2  502    0 -0.75168108947E+02 -0.56894559774E+02 -0.14657242613E+04  0.14788528338E+04  0.17254233775E+03 0.  0.
         24    2    3    3    0    0 -0.68981225026E+02 -0.90022365380E+01 -0.46730148480E+03  0.47925187201E+03  0.80450167567E+02 0.  0.
         -6    2    1    2    0  501  0.75168108947E+02  0.56894559774E+02 -0.15045395998E+04  0.15172854299E+04  0.17212911746E+03 0.  0.
        -24    2    5    5    0    0 -0.65280687431E+01 -0.10559227112E+02 -0.46987943619E+03  0.47720465282E+03  0.82361903592E+02 0.  0.
          5    1    3    3  502    0 -0.61868839215E+01 -0.47892323236E+02 -0.99842277651E+03  0.99960096179E+03  0.47000000000E+01 0. -1.
        -13    1    4    4    0    0 -0.10233403030E+02  0.11864631470E+02 -0.12088248823E+02  0.19789334933E+02  0.00000000000E+00 0.  1.
         14    1    4    4    0    0 -0.58747821996E+02 -0.20866868008E+02 -0.45521323598E+03  0.45946253708E+03  0.00000000000E+00 0. -1.
         -5    1    5    5    0  501  0.81696177690E+02  0.67453786886E+02 -0.10346601636E+04  0.10400807771E+04  0.47000000000E+01 0.  1.
         11    1    6    6    0    0 -0.10327802965E+02 -0.23307930592E+02 -0.45982091222E+03  0.46052708331E+03  0.00000000000E+00 0. -1.
        -12    1    6    6    0    0  0.37997342219E+01  0.12748703479E+02 -0.10058523968E+02  0.16677569517E+02  0.00000000000E+00 0.  1.
</event>
<event>
12    1  0.1345781E-002  0.2103855E+03  0.7818608E-02  0.1141261E+00
          3   -1    0    0  502    0  0.00000000000E+00  0.00000000000E+00  0.37680500933E+03  0.37680500933E+03  0.00000000000E+00 0. -1.
         -3   -1    0    0    0  501 -0.00000000000E+00 -0.00000000000E+00 -0.11765227474E+03  0.11765227474E+03  0.00000000000E+00 0.  1.
          6    2    1    2  502    0 -0.82124633078E+02 -0.90652073380E+02  0.11999081124E+03  0.24251463905E+03  0.17161964225E+03 0.  0.
         24    2    3    3    0    0 -0.79564797146E+02 -0.98591527258E+02  0.14946693360E+03  0.21152239038E+03  0.79690094725E+02 0.  0.
         -6    2    1    2    0  501  0.82124633078E+02  0.90652073380E+02  0.13916192335E+03  0.25194264502E+03  0.17072434421E+03 0.  0.
        -24    2    5    5    0    0  0.35545248589E+02 -0.18817531150E+02  0.71364768579E+02  0.11493250828E+03  0.80616295433E+02 0.  0.
          5    1    3    3  502    0 -0.25598359323E+01  0.79394538785E+01 -0.29476122368E+02  0.30992248672E+02  0.47000000000E+01 0. -1.
        -11    1    4    4    0    0 -0.46408477032E+02 -0.64723388451E+02  0.33792869309E+02  0.86514864440E+02  0.00000000000E+00 0.  1.
         12    1    4    4    0    0 -0.33156320114E+02 -0.33868138807E+02  0.11567406430E+03  0.12500752594E+03  0.00000000000E+00 0. -1.
         -5    1    5    5    0  501  0.46579384489E+02  0.10946960453E+03  0.67797154772E+02  0.13701013674E+03  0.47000000000E+01 0.  1.
         11    1    6    6    0    0  0.46865615263E+02  0.52296280016E+00  0.78488808994E+02  0.91417462890E+02  0.00000000000E+00 0. -1.
        -12    1    6    6    0    0 -0.11320366674E+02 -0.19340493950E+02 -0.71240404146E+01  0.23515045390E+02  0.00000000000E+00 0.  1.
</event>
<event>
12    1  0.1345781E-002  0.3291272E+03  0.7818608E-02  0.1071524E+00
          2   -1    0    0  502    0  0.00000000000E+00  0.00000000000E+00  0.45723043419E+04  0.45723043419E+04  0.00000000000E+00 0.  1.
         -2   -1    0    0    0  501 -0.00000000000E+00 -0.00000000000E+00 -0.24167430048E+02  0.24167430048E+02  0.00000000000E+00 0. -1.
          6    2    1    2  502    0  0.35786034606E+02  0.27891909219E+03  0.26016561215E+04  0.26224868766E+04  0.17247128242E+03 0.  0.
         24    2    3    3    0    0  0.28422350596E+02  0.21417158698E+03  0.23898489275E+04  0.24008320984E+04  0.77068604607E+02 0.  0.
         -6    2    1    2    0  501 -0.35786034606E+02 -0.27891909219E+03  0.19464807903E+04  0.19739848953E+04  0.16956532517E+03 0.  0.
        -24    2    5    5    0    0  0.27192501664E+02 -0.11538153730E+03  0.65022657584E+03  0.66592988634E+03  0.81336844641E+02 0.  0.
          5    1    3    3  502    0  0.73636840100E+01  0.64747505206E+02  0.21180719398E+03  0.22165477819E+03  0.47000000000E+01 0. -1.
        -11    1    4    4    0    0  0.10748767475E+02  0.12602001668E+03  0.98135407434E+03  0.98947076755E+03  0.00000000000E+00 0.  1.
         12    1    4    4    0    0  0.17673583121E+02  0.88151570303E+02  0.14084948532E+04  0.14113613309E+04  0.00000000000E+00 0. -1.
         -5    1    5    5    0  501 -0.62978536271E+02 -0.16353755489E+03  0.12962542145E+04  0.13080550090E+04  0.47000000000E+01 0.  1.
         13    1    6    6    0    0  0.41030637414E+02 -0.90234889352E+02  0.59955185111E+03  0.60769093348E+03  0.00000000000E+00 0. -1.
        -14    1    6    6    0    0 -0.13838135750E+02 -0.25146647946E+02  0.50674724734E+02  0.58238952865E+02  0.00000000000E+00 0.  1.
</event>
<event>
12    1  0.1345781E-002  0.1735850E+03  0.7818608E-02  0.1174160E+00
         -2   -1    0    0    0  501 -0.00000000000E+00  0.00000000000E+00  0.16547605793E+02  0.16547605793E+02  0.00000000000E+00 0.  1.
          2   -1    0    0  502    0  0.00000000000E+00 -0.00000000000E+00 -0.18477925806E+04  0.18477925806E+04  0.00000000000E+00 0. -1.
          6    2    1    2  502    0 -0.90648904154E+01 -0.80237214360E+01 -0.79834207951E+03  0.81679366735E+03  0.17220704621E+03 0.  0.
         24    2    3    3    0    0 -0.16187970194E+02 -0.52080224037E+02 -0.27657909496E+03  0.29310443151E+03  0.80248438541E+02 0.  0.
         -6    2    1    2    0  501  0.90648904154E+01  0.80237214360E+01 -0.10329028953E+04  0.10475465191E+04  0.17412284774E+03 0.  0.
        -24    2    5    5    0    0  0.34561185646E+02  0.37440723192E+02 -0.96126343685E+03  0.96587814653E+03  0.79353107155E+02 0.  0.
          5    1    3    3  502    0  0.71230797786E+01  0.44056502601E+02 -0.52176298454E+03  0.52368923583E+03  0.47000000000E+01 0. -1.
        -11    1    4    4    0    0  0.54317875137E+01  0.66134442598E+01  0.95309737844E+00  0.86110600499E+01  0.00000000000E+00 0.  1.
         12    1    4    4    0    0 -0.21619757708E+02 -0.58693668297E+02 -0.27753219234E+03  0.28449337146E+03  0.00000000000E+00 0. -1.
         -5    1    5    5    0  501 -0.25496295231E+02 -0.29417001756E+02 -0.71639458478E+02  0.81668372543E+02  0.47000000000E+01 0.  1.
         11    1    6    6    0    0  0.10823905313E+02  0.28799575373E+02 -0.10949873736E+03  0.11373893771E+03  0.00000000000E+00 0. -1.
        -12    1    6    6    0    0  0.23737280333E+02  0.86411478192E+01 -0.85176469949E+03  0.85213920882E+03  0.00000000000E+00 0.  1.
</event>
<event>
12    1  0.1345781E-002  0.2024800E+03  0.7818608E-02  0.1147663E+00
          2   -1    0    0  502    0  0.00000000000E+00  0.00000000000E+00  0.14799557966E+04  0.14799557966E+04  0.00000000000E+00 0. -1.
         -2   -1    0    0    0  501 -0.00000000000E+00 -0.00000000000E+00 -0.56269843459E+02  0.56269843459E+02  0.00000000000E+00 0.  1.
          6    2    1    2  502    0  0.77669564729E+02 -0.44592958735E+02  0.18028876549E+03  0.27778506198E+03  0.19141423261E+03 0.  0.
         24    2    3    3    0    0  0.18714506094E+02  0.56557833601E+02  0.91446299674E+02  0.13073998229E+03  0.71982608774E+02 0.  0.
         -6    2    1    2    0  501 -0.77669564729E+02  0.44592958735E+02  0.12433971877E+04  0.12584405781E+04  0.17209017703E+03 0.  0.
        -24    2    5    5    0    0 -0.66852714310E+02 -0.24971982196E+01  0.11361812550E+04  0.11407467662E+04  0.76940360144E+02 0.  0.
          5    1    3    3  502    0  0.58955058635E+02 -0.10115079234E+03  0.88842465813E+02  0.14704507969E+03  0.47000000000E+01 0. -1.
        -11    1    4    4    0    0 -0.21964082328E+02  0.36735831265E+02  0.66457253090E+02  0.79047509129E+02  0.00000000000E+00 0.  1.
         12    1    4    4    0    0  0.40678588422E+02  0.19822002336E+02  0.24989046584E+02  0.51692473164E+02  0.00000000000E+00 0. -1.
         -5    1    5    5    0  501 -0.10816850418E+02  0.47090156955E+02  0.10721593268E+03  0.11769381188E+03  0.47000000000E+01 0.  1.
         11    1    6    6    0    0 -0.24745956423E+02 -0.38891931170E+02  0.47897033351E+03  0.48118346299E+03  0.00000000000E+00 0. -1.
        -12    1    6    6    0    0 -0.42106757887E+02  0.36394732951E+02  0.65721092150E+03  0.65956330325E+03  0.00000000000E+00 0.  1.
</event>
<event>
12    1  0.1345781E-002  0.2351841E+03  0.7818608E-02  0.1123043E+00
         -2   -1    0    0    0  501 -0.00000000000E+00  0.00000000000E+00  0.11947200258E+03  0.11947200258E+03  0.00000000000E+00 0. -1.
          2   -1    0    0  502    0  0.00000000000E+00 -0.00000000000E+00 -0.85010430725E+03  0.85010430725E+03  0.00000000000E+00 0.  1.
          6    2    1    2  502    0  0.13432176358E+03  0.88035340413E+02 -0.69396813857E+03  0.73331671929E+03  0.17426725482E+03 0.  0.
         24    2    3    3    0    0  0.95624909215E+02  0.70690826595E+02 -0.66855824586E+03  0.68365756762E+03  0.79222632018E+02 0.  0.
         -6    2    1    2    0  501 -0.13432176358E+03 -0.88035340413E+02 -0.36664166089E+02  0.23625959054E+03  0.16935694764E+03 0.  0.
        -24    2    5    5    0    0 -0.53557103001E+02 -0.24325609698E+02  0.40118746284E+02  0.10780895482E+03  0.80951580380E+02 0.  0.
          5    1    3    3  502    0  0.38696854362E+02  0.17344513818E+02 -0.25409892709E+02  0.49659151670E+02  0.47000000000E+01 0. -1.
        -11    1    4    4    0    0  0.10566014018E+03  0.53306067108E+02 -0.61857679420E+03  0.62979588149E+03  0.00000000000E+00 0.  1.
         12    1    4    4    0    0 -0.10035230960E+02  0.17384759487E+02 -0.49981451661E+02  0.53861686132E+02  0.00000000000E+00 0. -1.
         -5    1    5    5    0  501 -0.80764660576E+02 -0.63709730715E+02 -0.76782912373E+02  0.12845063573E+03  0.47000000000E+01 0.  1.
         13    1    6    6    0    0 -0.59504104754E+02 -0.41179929907E+02  0.10368507799E+02  0.73102879996E+02  0.00000000000E+00 0. -1.
        -14    1    6    6    0    0  0.59470017524E+01  0.16854320209E+02  0.29750238484E+02  0.34706074820E+02  0.00000000000E+00 0.  1.
</event>
<event>
12    1  0.1345781E-002  0.1975678E+03  0.7818608E-02  0.1151807E+00
          2   -1    0    0  502    0  0.00000000000E+00  0.00000000000E+00  0.85479170011E+03  0.85479170011E+03  0.00000000000E+00 0. -1.
         -2   -1    0    0    0  501 -0.00000000000E+00 -0.00000000000E+00 -0.45672012180E+02  0.45672012180E+02  0.00000000000E+00 0.  1.
          6    2    1    2  502    0 -0.90577131189E+02  0.33517745200E+02  0.41031404695E+03  0.45534286553E+03  0.17219713157E+03 0.  0.
         24    2    3    3    0    0 -0.63506335886E+02  0.51096943312E+02  0.12993063815E+03  0.17306852717E+03  0.80167275444E+02 0.  0.
         -6    2    1    2    0  501  0.90577131189E+02 -0.33517745200E+02  0.39880564098E+03  0.44512084676E+03  0.17250789260E+03 0.  0.
        -24    2    5    5    0    0  0.26973206448E+02 -0.76896918519E+02  0.28813335132E+03  0.31022215285E+03  0.81094180033E+02 0.  0.
          5    1    3    3  502    0 -0.27070795303E+02 -0.17579198112E+02  0.28038340880E+03  0.28227433836E+03  0.47000000000E+01 0. -1.
        -13    1    4    4    0    0 -0.77245798686E+02  0.51968559439E+02  0.12924335055E+03  0.15928430006E+03  0.00000000000E+00 0.  1.
         14    1    4    4    0    0  0.13739462800E+02 -0.87161612671E+00  0.68728760396E+00  0.13784227108E+02  0.00000000000E+00 0. -1.
         -5    1    5    5    0  501  0.63603924741E+02  0.43379173319E+02  0.11067228966E+03  0.13489869391E+03  0.47000000000E+01 0.  1.
         11    1    6    6    0    0  0.26094330802E+02 -0.66994999602E+02  0.10756945872E+03  0.12938482338E+03  0.00000000000E+00 0. -1.
        -12    1    6    6    0    0  0.87887564560E+00 -0.99019189169E+01  0.18056389260E+03  0.18083732948E+03  0.00000000000E+00 0.  1.
</event>
<event>
12    1  0.1345781E-002  0.3650094E+03  0.7818608E-02  0.1056618E+00
          1   -1    0    0  502    0  0.00000000000E+00  0.00000000000E+00  0.34866054710E+03  0.34866054710E+03  0.00000000000E+00 0.  1.
         -1   -1    0    0    0  501 -0.00000000000E+00 -0.00000000000E+00 -0.38252373197E+03  0.38252373197E+03  0.00000000000E+00 0. -1.
          6    2    1    2  502    0 -0.12571926257E+03  0.29627525080E+03 -0.51368645327E+01  0.36526049001E+03  0.17263974330E+03 0.  0.
         24    2    3    3    0    0 -0.64147131730E+02  0.54981143489E+02 -0.75292283994E+01  0.11617860202E+03  0.79391420431E+02 0.  0.
         -6    2    1    2    0  501  0.12571926257E+03 -0.29627525080E+03 -0.28726320339E+02  0.36592378906E+03  0.17172845047E+03 0.  0.
        -24    2    5    5    0    0  0.12205912712E+03 -0.20155542615E+03  0.36314693357E+02  0.25086873599E+03  0.78059883563E+02 0.  0.
          5    1    3    3  502    0 -0.61572130841E+02  0.24129410731E+03  0.23923638668E+01  0.24908188799E+03  0.47000000000E+01 0. -1.
        -11    1    4    4    0    0  0.79182031449E+00  0.45380505966E+02 -0.19590676851E+02  0.49434926121E+02  0.00000000000E+00 0.  1.
         12    1    4    4    0    0 -0.64938952045E+02  0.96006375230E+01  0.12061448452E+02  0.66743675897E+02  0.00000000000E+00 0. -1.
         -5    1    5    5    0  501  0.36601354533E+01 -0.94719824656E+02 -0.65041013696E+02  0.11505505307E+03  0.47000000000E+01 0.  1.
         13    1    6    6    0    0  0.11650737942E+03 -0.12970855998E+03  0.11791841981E+02  0.17474932769E+03  0.00000000000E+00 0. -1.
        -14    1    6    6    0    0  0.55517477016E+01 -0.71846866167E+02  0.24522851375E+02  0.76119408301E+02  0.00000000000E+00 0.  1.
</event>
<event>
12    1  0.1345781E-002  0.1730295E+03  0.7818608E-02  0.1174725E+00
         -2   -1    0    0    0  501 -0.00000000000E+00  0.00000000000E+00  0.30695926009E+02  0.30695926009E+02  0.00000000000E+00 0. -1.
          2   -1    0    0  502    0  0.00000000000E+00 -0.00000000000E+00 -0.21502392683E+04  0.21502392683E+04  0.00000000000E+00 0.  1.
          6    2    1    2  502    0 -0.12214590853E+02  0.22631014949E+02 -0.25162845414E+03  0.30495360937E+03  0.17034807268E+03 0.  0.
         24    2    3    3    0    0 -0.30775784226E+02  0.17657402633E+02 -0.26605318328E+03  0.28047060446E+03  0.81366644686E+02 0.  0.
         -6    2    1    2    0  501  0.12214590853E+02 -0.22631014949E+02 -0.18679148881E+04  0.18759815849E+04  0.17187064493E+03 0.  0.
        -24    2    5    5    0    0  0.30093732096E+02  0.48478862735E+02 -0.12163135268E+04  0.12202509219E+04  0.79610828197E+02 0.  0.
          5    1    3    3  502    0  0.18561193374E+02  0.49736123161E+01  0.14424729139E+02  0.24483004915E+02  0.47000000000E+01 0. -1.
        -13    1    4    4    0    0  0.16587585227E+02 -0.14121237272E+02 -0.14530913198E+03  0.14693298187E+03  0.00000000000E+00 0.  1.
         14    1    4    4    0    0 -0.47363369454E+02  0.31778639906E+02 -0.12074405131E+03  0.13353762259E+03  0.00000000000E+00 0. -1.
         -5    1    5    5    0  501 -0.17879141244E+02 -0.71109877684E+02 -0.65160136129E+03  0.65573066302E+03  0.47000000000E+01 0.  1.
         13    1    6    6    0    0  0.17967103847E+02 -0.20253954063E+02 -0.26458134415E+03  0.26596301839E+03  0.00000000000E+00 0. -1.
        -14    1    6    6    0    0  0.12126628249E+02  0.68732816798E+02 -0.95173218269E+03  0.95428790351E+03  0.00000000000E+00 0.  1.
</event>
<event>
12    1  0.1345781E-002  0.2078187E+03  0.7818608E-02  0.1143305E+00
          2   -1    0    0  502    0  0.00000000000E+00  0.00000000000E+00  0.14533127891E+03  0.14533127891E+03  0.00000000000E+00 0.  1.
         -2   -1    0    0    0  501 -0.00000000000E+00 -0.00000000000E+00 -0.44812746550E+03  0.44812746550E+03  0.00000000000E+00 0. -1.
          6    2    1    2  502    0  0.11615134214E+03 -0.26688744437E+02 -0.32277918063E+03  0.38297871798E+03  0.16817513378E+03 0.  0.
         24    2    3    3    0    0  0.12572235297E+03 -0.55132484466E+02 -0.31381454609E+03  0.35130688085E+03  0.78046488164E+02 0.  0.
         -6    2    1    2    0  501 -0.11615134214E+03  0.26688744437E+02  0.19982994034E+02  0.21048002643E+03  0.17233426275E+03 0.  0.
        -24    2    5    5    0    0 -0.13456647398E+03 -0.17245110254E+02  0.34139410449E+02  0.16056214592E+03  0.78798309697E+02 0.  0.
          5    1    3    3  502    0 -0.95710108297E+01  0.28443740029E+02 -0.89646345354E+01  0.31671837135E+02  0.47000000000E+01 0. -1.
        -13    1    4    4    0    0  0.98721842247E+02 -0.67008482417E+02 -0.28934961754E+03  0.31298456835E+03  0.00000000000E+00 0.  1.
         14    1    4    4    0    0  0.27000510719E+02  0.11875997951E+02 -0.24464928547E+02  0.38322312499E+02  0.00000000000E+00 0. -1.
         -5    1    5    5    0  501  0.18415131841E+02  0.43933854691E+02 -0.14156416415E+02  0.49917880508E+02  0.47000000000E+01 0.  1.
         13    1    6    6    0    0 -0.35333417307E+02 -0.22081496479E+01 -0.25667568860E+02  0.43728141907E+02  0.00000000000E+00 0. -1.
        -14    1    6    6    0    0 -0.99233056671E+02 -0.15036960606E+02  0.59806979308E+02  0.11683400402E+03  0.00000000000E+00 0.  1.
</event>
<event>
12    1  0.1345781E-002  0.2012103E+03  0.7818608E-02  0.1148722E+00
          1   -1    0    0  502    0  0.00000000000E+00  0.00000000000E+00  0.10499148426E+04  0.10499148426E+04  0.00000000000E+00 0.  1.
         -1   -1    0    0    0  501 -0.00000000000E+00 -0.00000000000E+00 -0.38827355955E+02  0.38827355955E+02  0.00000000000E+00 0. -1.
          6    2    1    2  502    0 -0.10321639711E+03  0.14133838499E+02  0.54915374361E+03  0.58465372968E+03  0.17145483222E+03 0.  0.
         24    2    3    3    0    0 -0.11663239155E+03  0.50868528190E+02  0.49615454003E+03  0.51862016312E+03  0.81282372516E+02 0.  0.
         -6    2    1    2    0  501  0.10321639711E+03 -0.14133838499E+02  0.46193374304E+03  0.50408846888E+03  0.17282653579E+03 0.  0.
        -24    2    5    5    0    0  0.12550049436E+03 -0.30998746702E+02  0.27152838565E+03  0.31158575139E+03  0.81527417897E+02 0.  0.
          5    1    3    3  502    0  0.13415994439E+02 -0.36734689691E+02  0.52999203577E+02  0.66033566565E+02  0.47000000000E+01 0. -1.
        -13    1    4    4    0    0 -0.12683325187E+02  0.32696975567E+02  0.22390282227E+03  0.22663281486E+03  0.00000000000E+00 0.  1.
         14    1    4    4    0    0 -0.10394906636E+03  0.18171552623E+02  0.27225171776E+03  0.29198734826E+03  0.00000000000E+00 0. -1.
         -5    1    5    5    0  501 -0.22284097256E+02  0.16864908203E+02  0.19040535739E+03  0.19250271749E+03  0.47000000000E+01 0.  1.
         13    1    6    6    0    0  0.96795968850E+02 -0.33749822137E+02  0.12222222390E+03  0.15952047547E+03  0.00000000000E+00 0. -1.
        -14    1    6    6    0    0  0.28704525512E+02  0.27510754348E+01  0.14930616176E+03  0.15206527592E+03  0.00000000000E+00 0.  1.
</event>
<event>
12    1  0.1345781E-002  0.1945185E+03  0.7818608E-02  0.1154448E+00
          2   -1    0    0  502    0  0.00000000000E+00  0.00000000000E+00  0.12348042037E+04  0.12348042037E+04  0.00000000000E+00 0.  1.
         -2   -1    0    0    0  501 -0.00000000000E+00 -0.00000000000E+00 -0.48518137633E+02  0.48518137633E+02  0.00000000000E+00 0. -1.
          6    2    1    2  502    0 -0.57078650494E+01  0.90554365401E+02  0.98229898233E+03  0.10013408019E+04  0.17187041079E+03 0.  0.
         24    2    3    3    0    0 -0.43316760746E+02  0.10654080409E+03  0.56682766621E+03  0.58383810760E+03  0.79662086356E+02 0.  0.
         -6    2    1    2    0  501  0.57078650494E+01 -0.90554365401E+02  0.20398708373E+03  0.28198153940E+03  0.17225035679E+03 0.  0.
        -24    2    5    5    0    0  0.48909899852E+02 -0.86997275376E+00  0.11797118508E+03  0.15033606505E+03  0.79314543368E+02 0.  0.
          5    1    3    3  502    0  0.37608895696E+02 -0.15986438691E+02  0.41547131612E+03  0.41750269433E+03  0.47000000000E+01 0. -1.
        -13    1    4    4    0    0 -0.56956569961E+02  0.90476489726E+02  0.53559183051E+03  0.54615808606E+03  0.00000000000E+00 0.  1.
         14    1    4    4    0    0  0.13639809215E+02  0.16064314366E+02  0.31235835704E+02  0.37680021544E+02  0.00000000000E+00 0. -1.
         -5    1    5    5    0  501 -0.43202034803E+02 -0.89684392647E+02  0.86015898659E+02  0.13164547435E+03  0.47000000000E+01 0.  1.
         13    1    6    6    0    0  0.65352487142E+02  0.87290478071E+01  0.59385750748E+02  0.88734498607E+02  0.00000000000E+00 0. -1.
        -14    1    6    6    0    0 -0.16442587289E+02 -0.95990205609E+01  0.58585434328E+02  0.61601566440E+02  0.00000000000E+00 0.  1.
</event>
<event>
12    1  0.1345781E-002  0.2101468E+03  0.7818608E-02  0.1141450E+00
          1   -1    0    0  502    0  0.00000000000E+00  0.00000000000E+00  0.18024085153E+04  0.18024085153E+04  0.00000000000E+00 0.  1.
         -1   -1    0    0    0  501 -0.00000000000E+00 -0.00000000000E+00 -0.29528511743E+02  0.29528511743E+02  0.00000000000E+00 0. -1.
          6    2    1    2  502    0 -0.11829334844E+03  0.21871622438E+02  0.12657051750E+04  0.12830946288E+04  0.17277312414E+03 0.  0.
         24    2    3    3    0    0 -0.77511992957E+02  0.81675748348E+02  0.84872222175E+03  0.85984939766E+03  0.79577258307E+02 0.  0.
         -6    2    1    2    0  501  0.11829334844E+03 -0.21871622438E+02  0.50717482857E+03  0.54884239820E+03  0.17184291423E+03 0.  0.
        -24    2    5    5    0    0  0.71065614209E+02  0.45674227204E+02  0.20038756468E+03  0.23114219995E+03  0.78326776804E+02 0.  0.
          5    1    3    3  502    0 -0.40781355487E+02 -0.59804125910E+02  0.41698295323E+03  0.42324523118E+03  0.47000000000E+01 0. -1.
        -11    1    4    4    0    0  0.12352986422E+02  0.32958446586E+02  0.24958506046E+03  0.25205467240E+03  0.00000000000E+00 0.  1.
         12    1    4    4    0    0 -0.89864979379E+02  0.48717301762E+02  0.59913716129E+03  0.60779472526E+03  0.00000000000E+00 0. -1.
         -5    1    5    5    0  501  0.47227734235E+02 -0.67545849641E+02  0.30678726389E+03  0.31770019825E+03  0.47000000000E+01 0.  1.
         11    1    6    6    0    0  0.26249432469E+02  0.43889387015E+02  0.40946772859E+02  0.65512969747E+02  0.00000000000E+00 0. -1.
        -12    1    6    6    0    0  0.44816181740E+02  0.17848401884E+01  0.15944079182E+03  0.16562923020E+03  0.00000000000E+00 0.  1.
</event>
<event>
12    1  0.1345781E-002  0.2241027E+03  0.7818608E-02  0.1130861E+00
          2   -1    0    0  502    0  0.00000000000E+00  0.00000000000E+00  0.24301334011E+03  0.24301334011E+03  0.00000000000E+00 0. -1.
         -2   -1    0    0    0  501 -0.00000000000E+00 -0.00000000000E+00 -0.25703193376E+03  0.25703193376E+03  0.00000000000E+00 0.  1.
          6    2    1    2  502    0  0.21387751514E+02 -0.13792083365E+03  0.10369868818E+03  0.24488994391E+03  0.17244730913E+03 0.  0.
         24    2    3    3    0    0  0.77902830088E+02 -0.60366699513E+02  0.53095105097E+02  0.13630168281E+03  0.77756473718E+02 0.  0.
         -6    2    1    2    0  501 -0.21387751514E+02  0.13792083365E+03 -0.11771728183E+03  0.25515532996E+03  0.17823381187E+03 0.  0.
        -24    2    5    5    0    0 -0.28447606939E+02 -0.36402984832E+01 -0.34249529366E+02  0.90600319729E+02  0.78821758161E+02 0.  0.
          5    1    3    3  502    0 -0.56515078574E+02 -0.77554134137E+02  0.50603583087E+02  0.10858826110E+03  0.47000000000E+01 0. -1.
        -11    1    4    4    0    0  0.44144830189E+02 -0.72366293593E+02  0.19058513782E+02  0.86884253052E+02  0.00000000000E+00 0.  1.
         12    1    4    4    0    0  0.33757999899E+02  0.11999594081E+02  0.34036591315E+02  0.49417429755E+02  0.00000000000E+00 0. -1.
         -5    1    5    5    0  501  0.70598554250E+01  0.14156113213E+03 -0.83467752469E+02  0.16455501023E+03  0.47000000000E+01 0.  1.
         13    1    6    6    0    0 -0.17100998186E+02 -0.11475092047E+02  0.23488693407E+02  0.31238447375E+02  0.00000000000E+00 0. -1.
        -14    1    6    6    0    0 -0.11346608753E+02  0.78347935634E+01 -0.57738222773E+02  0.59361872354E+02  0.00000000000E+00 0.  1.
</event>
<event>
12    1  0.1345781E-002  0.1884190E+03  0.7818608E-02  0.1159895E+00
         -2   -1    0    0    0  501 -0.00000000000E+00  0.00000000000E+00  0.11355552907E+03  0.11355552907E+03  0.00000000000E+00 0.  1.
          2   -1    0    0  502    0  0.00000000000E+00 -0.00000000000E+00 -0.31684823652E+03  0.31684823652E+03  0.00000000000E+00 0. -1.
          6    2    1    2  502    0 -0.57285721773E+02  0.42648225329E+02 -0.78281263910E+02  0.20628503575E+03  0.17698879809E+03 0.  0.
         24    2    3    3    0    0 -0.36445167255E+02  0.10557766571E+02  0.30027512787E+02  0.91319791583E+02  0.77446343745E+02 0.  0.
         -6    2    1    2    0  501  0.57285721773E+02 -0.42648225329E+02 -0.12501144354E+03  0.22411872985E+03  0.17175802458E+03 0.  0.
        -24    2    5    5    0    0  0.16028502909E+02  0.28745325186E+02 -0.11181010389E+03  0.14047925034E+03  0.78420111058E+02 0.  0.
          5    1    3    3  502    0 -0.20840554518E+02  0.32090458759E+02 -0.10830877670E+03  0.11496524416E+03  0.47000000000E+01 0. -1.
        -11    1    4    4    0    0 -0.26053687151E+02  0.92738857807E+00 -0.24018426295E+02  0.35447700425E+02  0.00000000000E+00 0.  1.
         12    1    4    4    0    0 -0.10391480104E+02  0.96303779925E+01  0.54045939083E+02  0.55872091158E+02  0.00000000000E+00 0. -1.
         -5    1    5    5    0  501  0.41257218864E+02 -0.71393550516E+02 -0.13201339654E+02  0.83639479508E+02  0.47000000000E+01 0.  1.
         11    1    6    6    0    0 -0.13699962260E+02 -0.21355651061E+02 -0.46424641953E+02  0.52905577954E+02  0.00000000000E+00 0. -1.
        -12    1    6    6    0    0  0.29728465169E+02  0.50100976247E+02 -0.65385461938E+02  0.87573672385E+02  0.00000000000E+00 0.  1.
</event>
<event>
12    1  0.1345781E-002  0.2071535E+03  0.7818608E-02  0.1143840E+00
         -2   -1    0    0    0  501 -0.00000000000E+00  0.00000000000E+00  0.19552394424E+03  0.19552394424E+03  0.00000000000E+00 0.  1.
          2   -1    0    0  502    0  0.00000000000E+00 -0.00000000000E+00 -0.22230895814E+03  0.22230895814E+03  0.00000000000E+00 0. -1.
          6    2    1    2  502    0  0.11638630811E+03  0.85491874600E+00 -0.36962978905E+02  0.21016208789E+03  0.17104191818E+03 0.  0.
         24    2    3    3    0    0  0.11396196098E+03  0.42459014385E+02  0.12192735012E+02  0.14554666834E+03  0.79025776957E+02 0.  0.
         -6    2    1    2    0  501 -0.11638630811E+03 -0.85491874600E+00  0.10177965000E+02  0.20767081449E+03  0.17168888322E+03 0.  0.
        -24    2    5    5    0    0 -0.64663848514E+01 -0.76010746996E+01  0.45970797823E+02  0.91778118302E+02  0.78805572626E+02 0.  0.
          5    1    3    3  502    0  0.24243471266E+01 -0.41604095639E+02 -0.49155713918E+02  0.64615419550E+02  0.47000000000E+01 0. -1.
        -11    1    4    4    0    0  0.49608258752E+02 -0.21375652606E+02  0.96135948387E+01  0.54866374643E+02  0.00000000000E+00 0.  1.
         12    1    4    4    0    0  0.64353702231E+02  0.63834666991E+02  0.25791401737E+01  0.90680293695E+02  0.00000000000E+00 0. -1.
         -5    1    5    5    0  501 -0.10991992326E+03  0.67461559536E+01 -0.35792832823E+02  0.11589269619E+03  0.47000000000E+01 0.  1.
         13    1    6    6    0    0 -0.65524599814E+01 -0.78245286334E+01 -0.21766523973E+02  0.24040373250E+02  0.00000000000E+00 0. -1.
        -14    1    6    6    0    0  0.86075129983E-01  0.22345393375E+00  0.67737321796E+02  0.67737745052E+02  0.00000000000E+00 0.  1.
</event>
<event>
12    1  0.1345781E-002  0.1817114E+03  0.7818608E-02  0.1166157E+00
          2   -1    0    0  502    0  0.00000000000E+00  0.00000000000E+00  0.44235707996E+03  0.44235707996E+03  0.00000000000E+00 0.  1.
         -2   -1    0    0    0  501 -0.00000000000E+00 -0.00000000000E+00 -0.93506747496E+02  0.93506747496E+02  0.00000000000E+00 0. -1.
          6    2    1    2  502    0 -0.60692983012E+02  0.67555418613E+01  0.54594796562E+02  0.19036999696E+03  0.17184547826E+03 0.  0.
         24    2    3    3    0    0  0.23401176934E+02 -0.27398309037E+02  0.48241877077E+01  0.86748007141E+02  0.78763326085E+02 0.  0.
         -6    2    1    2    0  501  0.60692983012E+02 -0.67555418613E+01  0.29425553590E+03  0.34549383050E+03  0.17044175242E+03 0.  0.
        -24    2    5    5    0    0  0.15945695732E+02  0.38915374102E+02  0.73340226582E+02  0.11546379729E+03  0.78641134887E+02 0.  0.
          5    1    3    3  502    0 -0.84094159947E+02  0.34153850898E+02  0.49770608855E+02  0.10362198982E+03  0.47000000000E+01 0. -1.
        -13    1    4    4    0    0  0.48361536642E+00 -0.36986895187E+02  0.32726401156E+02  0.49389084138E+02  0.00000000000E+00 0.  1.
         14    1    4    4    0    0  0.22917561568E+02  0.95885861505E+01 -0.27902213448E+02  0.37358923003E+02  0.00000000000E+00 0. -1.
         -5    1    5    5    0  501  0.44747287281E+02 -0.45670915963E+02  0.22091530932E+03  0.23003003320E+03  0.47000000000E+01 0.  1.
         11    1    6    6    0    0  0.31175103388E+02 -0.11215790726E+01  0.78239731125E+00  0.31205082221E+02  0.00000000000E+00 0. -1.
        -12    1    6    6    0    0 -0.15229407656E+02  0.40036953175E+02  0.72557829271E+02  0.84258715072E+02  0.00000000000E+00 0.  1.
</event>
<event>
12    1  0.1345781E-002  0.2001565E+03  0.7818608E-02  0.1149607E+00
          3   -1    0    0  502    0  0.00000000000E+00  0.00000000000E+00  0.11971228846E+03  0.11971228846E+03  0.00000000000E+00 0.  1.
         -3   -1    0    0    0  501 -0.00000000000E+00 -0.00000000000E+00 -0.39034047273E+03  0.39034047273E+03  0.00000000000E+00 0. -1.
          6    2    1    2  502    0 -0.17338343430E+02 -0.99159859099E+02 -0.42664142332E+02  0.21045702281E+03  0.17982945699E+03 0.  0.
         24    2    3    3    0    0  0.29664740654E+02 -0.12580231724E+03 -0.35422379269E+02  0.15574282336E+03  0.79340167713E+02 0.  0.
         -6    2    1    2    0  501  0.17338343430E+02  0.99159859099E+02 -0.22796404194E+03  0.29959573838E+03  0.16630305538E+03 0.  0.
        -24    2    5    5    0    0 -0.35033502275E+02  0.10347169665E+02 -0.78528878180E+02  0.11798224165E+03  0.80116255743E+02 0.  0.
          5    1    3    3  502    0 -0.47003084085E+02  0.26642458144E+02 -0.72417630624E+01  0.54714199452E+02  0.47000000000E+01 0. -1.
        -11    1    4    4    0    0  0.24050341974E+02 -0.10794649535E+03 -0.59232273590E+02  0.12545647469E+03  0.00000000000E+00 0.  1.
         12    1    4    4    0    0  0.56143986805E+01 -0.17855821895E+02  0.23809894321E+02  0.30286348668E+02  0.00000000000E+00 0. -1.
         -5    1    5    5    0  501  0.52371845705E+02  0.88812689433E+02 -0.14943516376E+03  0.18161349673E+03  0.47000000000E+01 0.  1.
         13    1    6    6    0    0 -0.39093311824E+02 -0.79738158700E+01 -0.88248774010E+02  0.96848928147E+02  0.00000000000E+00 0. -1.
        -14    1    6    6    0    0  0.40598095492E+01  0.18320985535E+02  0.97198958303E+01  0.21133313501E+02  0.00000000000E+00 0.  1.
</event>
<event>
12    1  0.1345781E-002  0.1820402E+03  0.7818608E-02  0.1165843E+00
          1   -1    0    0  502    0  0.00000000000E+00  0.00000000000E+00  0.38300387774E+03  0.38300387774E+03  0.00000000000E+00 0. -1.
         -1   -1    0    0    0  501 -0.00000000000E+00 -0.00000000000E+00 -0.13836005655E+03  0.13836005655E+03  0.00000000000E+00 0.  1.
          6    2    1    2  502    0  0.40796638885E+02 -0.42345928473E+02 -0.36972898092E+02  0.18637291675E+03  0.17294601905E+03 0.  0.
         24    2    3    3    0    0  0.72779102379E+02  0.17587601078E+01 -0.64518973290E+02  0.12514402011E+03  0.78730152252E+02 0.  0.
         -6    2    1    2    0  501 -0.40796638885E+02  0.42345928473E+02  0.28161671928E+03  0.33499101753E+03  0.17162010910E+03 0.  0.
        -24    2    5    5    0    0 -0.37114523519E+02  0.85673784118E+02  0.13916661160E+03  0.18597764825E+03  0.80640279779E+02 0.  0.
          5    1    3    3  502    0 -0.31982463494E+02 -0.44104688581E+02  0.27546075198E+02  0.61228896648E+02  0.47000000000E+01 0. -1.
        -11    1    4    4    0    0  0.41177156548E+02  0.77941080887E+01 -0.79334713512E+02  0.89723481377E+02  0.00000000000E+00 0.  1.
         12    1    4    4    0    0  0.31601945831E+02 -0.60353479809E+01  0.14815740222E+02  0.35420538729E+02  0.00000000000E+00 0. -1.
         -5    1    5    5    0  501 -0.36821153658E+01 -0.43327855645E+02  0.14245010767E+03  0.14901336928E+03  0.47000000000E+01 0.  1.
         13    1    6    6    0    0 -0.23787348756E+02 -0.10561749470E+02  0.25311884963E+02  0.36305371959E+02  0.00000000000E+00 0. -1.
        -14    1    6    6    0    0 -0.13327174764E+02  0.96235533589E+02  0.11385472664E+03  0.14967227629E+03  0.00000000000E+00 0.  1.
</event>
<event>
12    1  0.1345781E-002  0.1883213E+03  0.7818608E-02  0.1159984E+00
          4   -1    0    0  502    0  0.00000000000E+00  0.00000000000E+00  0.18093309173E+03  0.18093309173E+03  0.00000000000E+00 0.  1.
         -4   -1    0    0    0  501 -0.00000000000E+00 -0.00000000000E+00 -0.22212258120E+03  0.22212258120E+03  0.00000000000E+00 0. -1.
          6    2    1    2  502    0  0.13564688380E+02 -0.76241611921E+02 -0.89671296355E+02  0.20840184395E+03  0.17144562699E+03 0.  0.
         24    2    3    3    0    0  0.64789168516E+02 -0.20343381866E+02 -0.81498320595E+02  0.13199865670E+03  0.78550490571E+02 0.  0.
         -6    2    1    2    0  501 -0.13564688380E+02  0.76241611921E+02  0.48481806883E+02  0.19465382897E+03  0.17188031701E+03 0.  0.
        -24    2    5    5    0    0 -0.35842490549E+01  0.53590320496E+02 -0.43576138087E+02  0.99210414301E+02  0.71127049728E+02 0.  0.
          5    1    3    3  502    0 -0.51224480137E+02 -0.55898230055E+02 -0.81729757603E+01  0.76403187246E+02  0.47000000000E+01 0. -1.
        -11    1    4    4    0    0  0.60460192347E+01  0.15962426670E+02  0.80857066206E+01  0.18887351994E+02  0.00000000000E+00 0.  1.
         12    1    4    4    0    0  0.58743149282E+02 -0.36305808536E+02 -0.89584027215E+02  0.11311130471E+03  0.00000000000E+00 0. -1.
         -5    1    5    5    0  501 -0.99804393250E+01  0.22651291425E+02  0.92057944971E+02  0.95443414673E+02  0.47000000000E+01 0.  1.
         11    1    6    6    0    0 -0.22453727559E+02  0.62535579237E+02 -0.24173010130E+02  0.70705042044E+02  0.00000000000E+00 0. -1.
        -12    1    6    6    0    0  0.18869478504E+02 -0.89452587405E+01 -0.19403127958E+02  0.28505372256E+02  0.00000000000E+00 0.  1.
</event>
<event>
12    1  0.1345781E-002  0.2010847E+03  0.7818608E-02  0.1148827E+00
          1   -1    0    0  502    0  0.00000000000E+00  0.00000000000E+00  0.16277157120E+04  0.16277157120E+04  0.00000000000E+00 0.  1.
         -1   -1    0    0    0  501 -0.00000000000E+00 -0.00000000000E+00 -0.28490177259E+02  0.28490177259E+02  0.00000000000E+00 0. -1.
          6    2    1    2  502    0  0.56358179579E+02  0.87799482356E+02  0.10968569117E+04  0.11151837008E+04  0.17220513429E+03 0.  0.
         24    2    3    3    0    0  0.20568342906E+02  0.10220211110E+03  0.10254554024E+04  0.10338903206E+04  0.80635504676E+02 0.  0.
         -6    2    1    2    0  501 -0.56358179579E+02 -0.87799482356E+02  0.50236862307E+03  0.54102218849E+03  0.17159773158E+03 0.  0.
        -24    2    5    5    0    0 -0.90346105840E+02 -0.10530819351E+03  0.37474637600E+03  0.40771329140E+03  0.80889104284E+02 0.  0.
          5    1    3    3  502    0  0.35789836674E+02 -0.14402628745E+02  0.71401509350E+02  0.81293380181E+02  0.47000000000E+01 0. -1.
        -11    1    4    4    0    0 -0.58656827040E+01  0.18548994203E+02  0.55401903079E+03  0.55436049453E+03  0.00000000000E+00 0.  1.
         12    1    4    4    0    0  0.26434025610E+02  0.83653116898E+02  0.47143637157E+03  0.47952982610E+03  0.00000000000E+00 0. -1.
         -5    1    5    5    0  501  0.33987926261E+02  0.17508711157E+02  0.12762224707E+03  0.13330889710E+03  0.47000000000E+01 0.  1.
         11    1    6    6    0    0 -0.85076857082E+01 -0.46290738145E+01 -0.14300781196E+01  0.97905139762E+01  0.00000000000E+00 0. -1.
        -12    1    6    6    0    0 -0.81838420132E+02 -0.10067911970E+03  0.37617645412E+03  0.39792277742E+03  0.00000000000E+00 0.  1.
</event>
<event>
12    1  0.1345781E-002  0.2098360E+03  0.7818608E-02  0.1141696E+00
         -2   -1    0    0    0  501 -0.00000000000E+00  0.00000000000E+00  0.49150385405E+02  0.49150385405E+02  0.00000000000E+00 0. -1.
          2   -1    0    0  502    0  0.00000000000E+00 -0.00000000000E+00 -0.10546763275E+04  0.10546763275E+04  0.00000000000E+00 0.  1.
          6    2    1    2  502    0 -0.71252259816E+02  0.98600508855E+02 -0.28660571179E+03  0.35463367857E+03  0.16977416491E+03 0.  0.
         24    2    3    3    0    0 -0.90124731191E+02  0.17651094199E+02 -0.13590079277E+03  0.18246213468E+03  0.79933577534E+02 0.  0.
         -6    2    1    2    0  501  0.71252259816E+02 -0.98600508855E+02 -0.71892023034E+03  0.74919303437E+03  0.17217711892E+03 0.  0.
        -24    2    5    5    0    0 -0.23867604824E+02 -0.59070790249E+02 -0.44462413279E+03  0.45615579026E+03  0.79551648068E+02 0.  0.
          5    1    3    3  502    0  0.18872471375E+02  0.80949414657E+02 -0.15070491902E+03  0.17217154390E+03  0.47000000000E+01 0. -1.
        -13    1    4    4    0    0 -0.29450158600E+02  0.36776938920E+02 -0.97148893345E+02  0.10797111908E+03  0.00000000000E+00 0.  1.
         14    1    4    4    0    0 -0.60674572590E+02 -0.19125844721E+02 -0.38751899421E+02  0.74491015593E+02  0.00000000000E+00 0. -1.
         -5    1    5    5    0  501  0.95119864639E+02 -0.39529718606E+02 -0.27429609755E+03  0.29303724411E+03  0.47000000000E+01 0.  1.
         11    1    6    6    0    0  0.91642509300E+01 -0.36308553833E+02 -0.69973325620E+02  0.79363473178E+02  0.00000000000E+00 0. -1.
        -12    1    6    6    0    0 -0.33031855754E+02 -0.22762236417E+02 -0.37465080717E+03  0.37679231708E+03  0.00000000000E+00 0.  1.
</event>
<event>
12    1  0.1345781E-002  0.2124664E+03  0.7818608E-02  0.1139628E+00
         -2   -1    0    0    0  501 -0.00000000000E+00  0.00000000000E+00  0.33048730591E+02  0.33048730591E+02  0.00000000000E+00 0.  1.
          2   -1    0    0  502    0  0.00000000000E+00 -0.00000000000E+00 -0.13685080370E+04  0.13685080370E+04  0.00000000000E+00 0. -1.
          6    2    1    2  502    0 -0.99862253882E+02  0.69551221051E+02 -0.68529341341E+03  0.71647619888E+03  0.17000364409E+03 0.  0.
         24    2    3    3    0    0 -0.21480922254E+02 -0.96034284198E+01 -0.19710333049E+03  0.21571603798E+03  0.84439506724E+02 0.  0.
         -6    2    1    2    0  501  0.99862253882E+02 -0.69551221051E+02 -0.65016589303E+03  0.68508056874E+03  0.17835317520E+03 0.  0.
        -24    2    5    5    0    0  0.25576469989E+02 -0.42048720305E+02 -0.13839163750E+03  0.16719086633E+03  0.79864195725E+02 0.  0.
          5    1    3    3  502    0 -0.78381331628E+02  0.79154649470E+02 -0.48819008292E+03  0.50076016090E+03  0.47000000000E+01 0. -1.
        -11    1    4    4    0    0 -0.23987166788E+01  0.24894402723E+02 -0.14507701630E+02  0.28912947536E+02  0.00000000000E+00 0.  1.
         12    1    4    4    0    0 -0.19082205575E+02 -0.34497831142E+02 -0.18259562885E+03  0.18680309045E+03  0.00000000000E+00 0. -1.
         -5    1    5    5    0  501  0.74285783893E+02 -0.27502500746E+02 -0.51177425552E+03  0.51788970240E+03  0.47000000000E+01 0.  1.
         13    1    6    6    0    0  0.21649828818E+02 -0.40317605513E+02 -0.14893527817E+03  0.15580738585E+03  0.00000000000E+00 0. -1.
        -14    1    6    6    0    0  0.39266411715E+01 -0.17311147921E+01  0.10543640670E+02  0.11383480482E+02  0.00000000000E+00 0.  1.
</event>
<event>
12    1  0.1345781E-002  0.2700349E+03  0.7818608E-02  0.1101260E+00
         -1   -1    0    0    0  501 -0.00000000000E+00  0.00000000000E+00  0.26947824605E+02  0.26947824605E+02  0.00000000000E+00 0.  1.
          1   -1    0    0  502    0  0.00000000000E+00 -0.00000000000E+00 -0.29983640768E+04  0.29983640768E+04  0.00000000000E+00 0. -1.
          6    2    1    2  502    0  0.28804191397E+02  0.20672795946E+03 -0.19535649238E+04  0.19720153852E+04  0.16989007392E+03 0.  0.
         24    2    3    3    0    0  0.71086437023E+02  0.17366037165E+03 -0.12633420380E+04  0.12796925011E+04  0.79803423037E+02 0.  0.
         -6    2    1    2    0  501 -0.28804191397E+02 -0.20672795946E+03 -0.10178513283E+04  0.10532965162E+04  0.17276022027E+03 0.  0.
        -24    2    5    5    0    0 -0.54388316051E+01 -0.19405918160E+03 -0.99808172303E+03  0.10198395996E+04  0.78848819095E+02 0.  0.
          5    1    3    3  502    0 -0.42282245626E+02  0.33067587813E+02 -0.69022288586E+03  0.69232288409E+03  0.47000000000E+01 0. -1.
        -13    1    4    4    0    0  0.50794607758E+02  0.38458315227E+02 -0.29942200879E+03  0.30612525792E+03  0.00000000000E+00 0.  1.
         14    1    4    4    0    0  0.20291829265E+02  0.13520205642E+03 -0.96392002918E+03  0.97356724321E+03  0.00000000000E+00 0. -1.
         -5    1    5    5    0  501 -0.23365359792E+02 -0.12668777861E+02 -0.19769605323E+02  0.33456916554E+02  0.47000000000E+01 0.  1.
         11    1    6    6    0    0 -0.11944919858E+02 -0.48656069049E+02 -0.44929489236E+03  0.45207963289E+03  0.00000000000E+00 0. -1.
        -12    1    6    6    0    0  0.65060882527E+01 -0.14540311255E+03 -0.54878683066E+03  0.56775996674E+03  0.00000000000E+00 0.  1.
</event>
<event>
12    1  0.1345781E-002  0.2200016E+03  0.7818608E-02  0.1133882E+00
          1   -1    0    0  502    0  0.00000000000E+00  0.00000000000E+00  0.89198158881E+03  0.89198158881E+03  0.00000000000E+00 0.  1.
         -1   -1    0    0    0  501 -0.00000000000E+00 -0.00000000000E+00 -0.63994489578E+02  0.63994489578E+02  0.00000000000E+00 0. -1.
          6    2    1    2  502    0  0.13537737841E+03  0.36295976619E+02  0.23086899401E+03  0.32031247340E+03  0.17220672379E+03 0.  0.
         24    2    3    3    0    0  0.78608370271E+02  0.87454297756E+02  0.17375797667E+03  0.22479466141E+03  0.80704865216E+02 0.  0.
         -6    2    1    2    0  501 -0.13537737841E+03 -0.36295976619E+02  0.59711810523E+03  0.63566360499E+03  0.16695434889E+03 0.  0.
        -24    2    5    5    0    0 -0.13584956187E+03 -0.37027266510E+02  0.32138679218E+03  0.35989086388E+03  0.80036502884E+02 0.  0.
          5    1    3    3  502    0  0.56769008137E+02 -0.51158321137E+02  0.57111017341E+02  0.95517811994E+02  0.47000000000E+01 0. -1.
        -13    1    4    4    0    0  0.60101149741E+01  0.17475994173E+02  0.95183857509E+02  0.96961325201E+02  0.00000000000E+00 0.  1.
         14    1    4    4    0    0  0.72598255297E+02  0.69978303583E+02  0.78574119158E+02  0.12783333621E+03  0.00000000000E+00 0. -1.
         -5    1    5    5    0  501  0.47218346065E+00  0.73128989048E+00  0.27573131305E+03  0.27577274111E+03  0.47000000000E+01 0.  1.
         13    1    6    6    0    0 -0.27755280110E+02  0.24954097732E+02  0.70944429982E+02  0.80163425034E+02  0.00000000000E+00 0. -1.
        -14    1    6    6    0    0 -0.10809428176E+03 -0.61981364242E+02  0.25044236220E+03  0.27972743885E+03  0.00000000000E+00 0.  1.
</event>
<event>
12    1  0.1345781E-002  0.2091151E+03  0.7818608E-02  0.1142269E+00
         -2   -1    0    0    0  501 -0.00000000000E+00  0.00000000000E+00  0.10237702475E+03  0.10237702475E+03  0.00000000000E+00 0. -1.
          2   -1    0    0  502    0  0.00000000000E+00 -0.00000000000E+00 -0.42859155145E+03  0.42859155145E+03  0.00000000000E+00 0.  1.
          6    2    1    2  502    0  0.27177477112E+02  0.11446476493E+03 -0.14814655388E+03  0.25677892095E+03  0.17362953419E+03 0.  0.
         24    2    3    3    0    0 -0.39843648248E+02  0.84612867445E+02 -0.45519713664E+02  0.13053580089E+03  0.78871397479E+02 0.  0.
         -6    2    1    2    0  501 -0.27177477112E+02 -0.11446476493E+03 -0.17806797282E+03  0.27418965526E+03  0.17213647618E+03 0.  0.
        -24    2    5    5    0    0  0.42726279811E+01 -0.81094067849E+02 -0.46030014078E+02  0.13433678585E+03  0.96608005078E+02 0.  0.
          5    1    3    3  502    0  0.67021125360E+02  0.29851897489E+02 -0.10262684022E+03  0.12624312006E+03  0.47000000000E+01 0. -1.
        -13    1    4    4    0    0  0.63198103280E+01  0.71129951286E+02 -0.13272859060E+02  0.72633179472E+02  0.00000000000E+00 0.  1.
         14    1    4    4    0    0 -0.46163458576E+02  0.13482916159E+02 -0.32246854603E+02  0.57902621423E+02  0.00000000000E+00 0. -1.
         -5    1    5    5    0  501 -0.31450105093E+02 -0.33370697085E+02 -0.13203795874E+03  0.13985286941E+03  0.47000000000E+01 0.  1.
         13    1    6    6    0    0  0.20531209136E+02 -0.72959259571E+02 -0.70728803404E+02  0.10366845102E+03  0.00000000000E+00 0. -1.
        -14    1    6    6    0    0 -0.16258581155E+02 -0.81348082772E+01  0.24698789326E+02  0.30668334826E+02  0.00000000000E+00 0.  1.
</event>
<event>
12    1  0.1345781E-002  0.2371593E+03  0.7818608E-02  0.1121700E+00
          2   -1    0    0  502    0  0.00000000000E+00  0.00000000000E+00  0.53427349754E+03  0.53427349754E+03  0.00000000000E+00 0. -1.
         -2   -1    0    0    0  501 -0.00000000000E+00 -0.00000000000E+00 -0.14224077023E+03  0.14224077023E+03  0.00000000000E+00 0.  1.
          6    2    1    2  502    0  0.11125682962E+03  0.12292210627E+03  0.22396075362E+02  0.23627304219E+03  0.16683956344E+03 0.  0.
         24    2    3    3    0    0  0.97381219846E+02  0.15367636169E+03  0.61058612793E+01  0.19851303891E+03  0.79187239834E+02 0.  0.
         -6    2    1    2    0  501 -0.11125682962E+03 -0.12292210627E+03  0.36963665195E+03  0.44024122558E+03  0.17231702147E+03 0.  0.
        -24    2    5    5    0    0 -0.30552935079E+02 -0.32662301599E+02  0.66216157350E+02  0.11352110457E+03  0.80635934296E+02 0.  0.
          5    1    3    3  502    0  0.13875609775E+02 -0.30754255422E+02  0.16290214082E+02  0.37760003285E+02  0.47000000000E+01 0. -1.
        -13    1    4    4    0    0  0.31496142013E+02  0.22282392587E+02 -0.27938554958E+02  0.47634806961E+02  0.00000000000E+00 0.  1.
         14    1    4    4    0    0  0.65885077833E+02  0.13139396911E+03  0.34044416237E+02  0.15087823195E+03  0.00000000000E+00 0. -1.
         -5    1    5    5    0  501 -0.80703894542E+02 -0.90259804673E+02  0.30342049459E+03  0.32672012101E+03  0.47000000000E+01 0.  1.
         11    1    6    6    0    0 -0.34228703507E+02  0.13170900812E+02  0.55144029293E+02  0.66226435346E+02  0.00000000000E+00 0. -1.
        -12    1    6    6    0    0  0.36757684285E+01 -0.45833202411E+02  0.11072128058E+02  0.47294669219E+02  0.00000000000E+00 0.  1.
</event>
<event>
12    1  0.1345781E-002  0.2699273E+03  0.7818608E-02  0.1101321E+00
          1   -1    0    0  502    0  0.00000000000E+00  0.00000000000E+00  0.47315152373E+03  0.47315152373E+03  0.00000000000E+00 0. -1.
         -1   -1    0    0    0  501 -0.00000000000E+00 -0.00000000000E+00 -0.16229489051E+03  0.16229489051E+03  0.00000000000E+00 0.  1.
          6    2    1    2  502    0  0.10519035166E+03  0.17853169337E+03  0.83405642166E+02  0.28225363170E+03  0.17254574999E+03 0.  0.
         24    2    3    3    0    0  0.12466580672E+03  0.19161457293E+03  0.89135839301E+02  0.25764915555E+03  0.78614130930E+02 0.  0.
         -6    2    1    2    0  501 -0.10519035166E+03 -0.17853169337E+03  0.22745099105E+03  0.35319278254E+03  0.17341456887E+03 0.  0.
        -24    2    5    5    0    0 -0.13446732490E+03 -0.16878536113E+03  0.22611279116E+03  0.32195157685E+03  0.77174243848E+02 0.  0.
          5    1    3    3  502    0 -0.19475455062E+02 -0.13082879559E+02 -0.57301971352E+01  0.24604476150E+02  0.47000000000E+01 0. -1.
        -11    1    4    4    0    0  0.99866128033E+02  0.14594871014E+03  0.30770327652E+02  0.17950231916E+03  0.00000000000E+00 0.  1.
         12    1    4    4    0    0  0.24799678686E+02  0.45665862790E+02  0.58365511649E+02  0.78146836388E+02  0.00000000000E+00 0. -1.
         -5    1    5    5    0  501  0.29276973238E+02 -0.97463322354E+01  0.13381998820E+01  0.31241205690E+02  0.47000000000E+01 0.  1.
         13    1    6    6    0    0 -0.43929337931E+02 -0.61649683256E+02  0.13473556063E+03  0.15454494969E+03  0.00000000000E+00 0. -1.
        -14    1    6    6    0    0 -0.90537986966E+02 -0.10713567788E+03  0.91377230530E+02  0.16740662716E+03  0.00000000000E+00 0.  1.
</event>
<event>
12    1  0.1345781E-002  0.1800442E+03  0.7818608E-02  0.1167760E+00
         -1   -1    0    0    0  501 -0.00000000000E+00  0.00000000000E+00  0.47247324787E+02  0.47247324787E+02  0.00000000000E+00 0.  1.
          1   -1    0    0  502    0  0.00000000000E+00 -0.00000000000E+00 -0.10104491981E+04  0.10104491981E+04  0.00000000000E+00 0. -1.
          6    2    1    2  502    0 -0.27637414111E+01  0.50954870282E+02 -0.78012414206E+03  0.80049463025E+03  0.17202888991E+03 0.  0.
         24    2    3    3    0    0 -0.41839797865E+02 -0.66318494648E+01 -0.24400535841E+03  0.25985740561E+03  0.78693749486E+02 0.  0.
         -6    2    1    2    0  501  0.27637414111E+01 -0.50954870282E+02 -0.18307773123E+03  0.25720189261E+03  0.17329547259E+03 0.  0.
        -24    2    5    5    0    0 -0.57424858881E+02 -0.51165891427E+01 -0.13254048961E+03  0.16609800459E+03  0.81839915934E+02 0.  0.
          5    1    3    3  502    0  0.39076056454E+02  0.57586719746E+02 -0.53611878365E+03  0.54063722464E+03  0.47000000000E+01 0. -1.
        -13    1    4    4    0    0 -0.40573305512E+02 -0.35308170782E+02 -0.10561656453E+03  0.11852307263E+03  0.00000000000E+00 0.  1.
         14    1    4    4    0    0 -0.12664923530E+01  0.28676321317E+02 -0.13838879388E+03  0.14133433298E+03  0.00000000000E+00 0. -1.
         -5    1    5    5    0  501  0.60188600292E+02 -0.45838281139E+02 -0.50537241621E+02  0.91103888026E+02  0.47000000000E+01 0.  1.
         13    1    6    6    0    0 -0.20640442044E+01 -0.28483368786E+02 -0.84405293217E+02  0.89105645718E+02  0.00000000000E+00 0. -1.
        -14    1    6    6    0    0 -0.55360814676E+02  0.23366779643E+02 -0.48135196394E+02  0.76992358870E+02  0.00000000000E+00 0.  1.
</event>
<event>
12    1  0.1345781E-002  0.1730910E+03  0.7818608E-02  0.1174662E+00
          2   -1    0    0  502    0  0.00000000000E+00  0.00000000000E+00  0.17850785726E+04  0.17850785726E+04  0.00000000000E+00 0.  1.
         -2   -1    0    0    0  501 -0.00000000000E+00 -0.00000000000E+00 -0.21155340785E+02  0.21155340785E+02  0.00000000000E+00 0. -1.
          6    2    1    2  502    0  0.15817395325E+02 -0.70057144824E+00  0.12949990517E+04  0.13065983767E+04  0.17299159858E+03 0.  0.
         24    2    3    3    0    0 -0.37114487284E+02 -0.49370137384E+02  0.70370833887E+03  0.71093294378E+03  0.80033297596E+02 0.  0.
         -6    2    1    2    0  501 -0.15817395325E+02  0.70057144824E+00  0.46892418011E+03  0.49963553672E+03  0.17174138136E+03 0.  0.
        -24    2    5    5    0    0  0.24368849543E+02  0.57770725231E+02  0.33334215010E+03  0.34706911319E+03  0.73543747337E+02 0.  0.
          5    1    3    3  502    0  0.52931882609E+02  0.48669565935E+02  0.59129071286E+03  0.59566543291E+03  0.47000000000E+01 0. -1.
        -11    1    4    4    0    0 -0.39888258435E+02 -0.14279967536E+02  0.14359812016E+03  0.14971777031E+03  0.00000000000E+00 0.  1.
         12    1    4    4    0    0  0.27737711506E+01 -0.35090169848E+02  0.56011021872E+03  0.56121517347E+03  0.00000000000E+00 0. -1.
         -5    1    5    5    0  501 -0.40186244868E+02 -0.57070153783E+02  0.13558203000E+03  0.15256642353E+03  0.47000000000E+01 0.  1.
         13    1    6    6    0    0  0.61106865723E+01  0.41194029206E+02  0.31105263447E+03  0.31382802606E+03  0.00000000000E+00 0. -1.
        -14    1    6    6    0    0  0.18258162971E+02  0.16576696026E+02  0.22289515639E+02  0.33241087131E+02  0.00000000000E+00 0.  1.
</event>
<event>
12    1  0.1345781E-002  0.1853751E+03  0.7818608E-02  0.1162700E+00
          2   -1    0    0  502    0  0.00000000000E+00  0.00000000000E+00  0.44470841229E+03  0.44470841229E+03  0.00000000000E+00 0.  1.
         -2   -1    0    0    0  501 -0.00000000000E+00 -0.00000000000E+00 -0.83275134476E+02  0.83275134476E+02  0.00000000000E+00 0. -1.
          6    2    1    2  502    0  0.63729681618E+02 -0.27926235872E+02  0.25133041163E+03  0.31212936365E+03  0.17151214788E+03 0.  0.
         24    2    3    3    0    0  0.98375367044E+00  0.41764197749E+02  0.13962024323E+03  0.16620109450E+03  0.79898532583E+02 0.  0.
         -6    2    1    2    0  501 -0.63729681618E+02  0.27926235872E+02  0.11010286618E+03  0.21585418312E+03  0.17213088119E+03 0.  0.
        -24    2    5    5    0    0  0.32682402922E+01  0.67613685298E+02  0.48851531944E+02  0.11666934996E+03  0.81504436767E+02 0.  0.
          5    1    3    3  502    0  0.62745927948E+02 -0.69690433620E+02  0.11171016840E+03  0.14592826915E+03  0.47000000000E+01 0. -1.
        -13    1    4    4    0    0  0.25025661470E+02  0.20911959290E+00  0.10251221732E+03  0.10552289876E+03  0.00000000000E+00 0.  1.
         14    1    4    4    0    0 -0.24041907800E+02  0.41555078156E+02  0.37108025905E+02  0.60678195736E+02  0.00000000000E+00 0. -1.
         -5    1    5    5    0  501 -0.66997921910E+02 -0.39687449426E+02  0.61251334239E+02  0.99184833157E+02  0.47000000000E+01 0.  1.
         13    1    6    6    0    0 -0.37758352187E+02  0.29128792494E+02  0.33758555734E+02  0.58427902558E+02  0.00000000000E+00 0. -1.
        -14    1    6    6    0    0  0.41026592480E+02  0.38484892803E+02  0.15092976210E+02  0.58241447402E+02  0.00000000000E+00 0.  1.
</event>
<event>
12    1  0.1345781E-002  0.1823256E+03  0.7818608E-02  0.1165571E+00
          1   -1    0    0  502    0  0.00000000000E+00  0.00000000000E+00  0.18715404449E+03  0.18715404449E+03  0.00000000000E+00 0. -1.
         -1   -1    0    0    0  501 -0.00000000000E+00 -0.00000000000E+00 -0.30628152075E+03  0.30628152075E+03  0.00000000000E+00 0.  1.
          6    2    1    2  502    0  0.26343265682E+02  0.56279011260E+02 -0.21944643388E+03  0.28523157026E+03  0.17128635839E+03 0.  0.
         24    2    3    3    0    0  0.61801591020E+02 -0.13545310418E+02 -0.99982137676E+02  0.14231013449E+03  0.79074866027E+02 0.  0.
         -6    2    1    2    0  501 -0.26343265682E+02 -0.56279011260E+02  0.10031895762E+03  0.20820399498E+03  0.17153342390E+03 0.  0.
        -24    2    5    5    0    0  0.27327947099E+02 -0.12010663556E+02  0.10856674717E+03  0.13798717562E+03  0.79766216607E+02 0.  0.
          5    1    3    3  502    0 -0.35458325338E+02  0.69824321678E+02 -0.11946429621E+03  0.14292143577E+03  0.47000000000E+01 0. -1.
        -13    1    4    4    0    0  0.24846482839E+02  0.10750183222E+02 -0.93830814733E+02  0.97658261004E+02  0.00000000000E+00 0.  1.
         14    1    4    4    0    0  0.36955108180E+02 -0.24295493640E+02 -0.61513229429E+01  0.44651873486E+02  0.00000000000E+00 0. -1.
         -5    1    5    5    0  501 -0.53671212781E+02 -0.44268347704E+02 -0.82477895527E+01  0.70216819369E+02  0.47000000000E+01 0.  1.
         13    1    6    6    0    0 -0.85412433782E+01 -0.39083432245E+02  0.56136373378E+02  0.68933010456E+02  0.00000000000E+00 0. -1.
        -14    1    6    6    0    0  0.35869190477E+02  0.27072768689E+02  0.52430373791E+02  0.69054165160E+02  0.00000000000E+00 0.  1.
</event>
<event>
12    1  0.1345781E-002  0.1838749E+03  0.7818608E-02  0.1164105E+00
          2   -1    0    0  502    0  0.00000000000E+00  0.00000000000E+00  0.61698862152E+03  0.61698862152E+03  0.00000000000E+00 0. -1.
         -2   -1    0    0    0  501 -0.00000000000E+00 -0.00000000000E+00 -0.63067317841E+02  0.63067317841E+02  0.00000000000E+00 0.  1.
          6    2    1    2  502    0 -0.30117893488E+02 -0.60115036311E+02  0.15457501285E+03  0.24064468741E+03  0.17174261522E+03 0.  0.
         24    2    3    3    0    0  0.10343531233E+02 -0.86796415382E+02  0.15125630272E+03  0.19183765189E+03  0.79262911942E+02 0.  0.
         -6    2    1    2    0  501  0.30117893488E+02  0.60115036311E+02  0.39934629082E+03  0.43941125195E+03  0.17053997550E+03 0.  0.
        -24    2    5    5    0    0  0.65780927694E+02 -0.54181590245E+01  0.17927313253E+03  0.20698763718E+03  0.79677719614E+02 0.  0.
          5    1    3    3  502    0 -0.40461424720E+02  0.26681379071E+02  0.33187101369E+01  0.48807035522E+02  0.47000000000E+01 0. -1.
        -13    1    4    4    0    0 -0.32634038210E+02 -0.45205826995E+02  0.92460925637E+02  0.10797022744E+03  0.00000000000E+00 0.  1.
         14    1    4    4    0    0  0.42977569443E+02 -0.41590588387E+02  0.58795377079E+02  0.83867424448E+02  0.00000000000E+00 0. -1.
         -5    1    5    5    0  501 -0.35663034206E+02  0.65533195335E+02  0.22007315830E+03  0.23242361477E+03  0.47000000000E+01 0.  1.
         11    1    6    6    0    0 -0.98121658030E+01 -0.19478715916E+02  0.17835461137E+02  0.28174503464E+02  0.00000000000E+00 0. -1.
        -12    1    6    6    0    0  0.75593093497E+02  0.14060556892E+02  0.16143767139E+03  0.17881313371E+03  0.00000000000E+00 0.  1.
</event>
<event>
12    1  0.1345781E-002  0.2129653E+03  0.7818608E-02  0.1139239E+00
          4   -1    0    0  502    0  0.00000000000E+00  0.00000000000E+00  0.46189742999E+03  0.46189742999E+03  0.00000000000E+00 0. -1.
         -4   -1    0    0    0  501 -0.00000000000E+00 -0.00000000000E+00 -0.13148125817E+03  0.13148125817E+03  0.00000000000E+00 0.  1.
          6    2    1    2  502    0  0.50470519527E+02  0.11307151576E+03  0.15828013095E+02  0.21339586002E+03  0.17307462569E+03 0.  0.
         24    2    3    3    0    0  0.58375744658E+02  0.23522534291E+02 -0.38396396351E+02  0.10830594972E+03  0.79340143113E+02 0.  0.
         -6    2    1    2    0  501 -0.50470519527E+02 -0.11307151576E+03  0.31458815872E+03  0.37998282814E+03  0.17346123215E+03 0.  0.
        -24    2    5    5    0    0  0.29312445806E+02 -0.95822390189E+02  0.22400185763E+03  0.25795487300E+03  0.79515623269E+02 0.  0.
          5    1    3    3  502    0 -0.79052251311E+01  0.89548981464E+02  0.54224409446E+02  0.10508991029E+03  0.47000000000E+01 0. -1.
        -11    1    4    4    0    0  0.58137455772E+02  0.18758925511E+02 -0.60331134802E+02  0.85858644739E+02  0.00000000000E+00 0.  1.
         12    1    4    4    0    0  0.23828888583E+00  0.47636087804E+01  0.21934738451E+02  0.22447304986E+02  0.00000000000E+00 0. -1.
         -5    1    5    5    0  501 -0.79782965333E+02 -0.17249125566E+02  0.90586301091E+02  0.12202795514E+03  0.47000000000E+01 0.  1.
         13    1    6    6    0    0 -0.26473302026E+02 -0.25300703823E+02  0.83037897917E+02  0.90753808870E+02  0.00000000000E+00 0. -1.
        -14    1    6    6    0    0  0.55785747832E+02 -0.70521686367E+02  0.14096395971E+03  0.16720106413E+03  0.00000000000E+00 0.  1.
</event>
<event>
12    1  0.1345781E-002  0.1825765E+03  0.7818608E-02  0.1165333E+00
         -1   -1    0    0    0  501 -0.00000000000E+00  0.00000000000E+00  0.91169686197E+02  0.91169686197E+02  0.00000000000E+00 0. -1.
          1   -1    0    0  502    0  0.00000000000E+00 -0.00000000000E+00 -0.49546001953E+03  0.49546001953E+03  0.00000000000E+00 0.  1.
          6    2    1    2  502    0  0.59498104748E+02  0.19149629810E+02 -0.51874707546E+02  0.18965924812E+03  0.17138527452E+03 0.  0.
         24    2    3    3    0    0  0.12027983760E+02 -0.17132583454E+02 -0.85440618591E+02  0.12096738710E+03  0.83035002420E+02 0.  0.
         -6    2    1    2    0  501 -0.59498104748E+02 -0.19149629810E+02 -0.35241562579E+03  0.39697045761E+03  0.17170334338E+03 0.  0.
        -24    2    5    5    0    0  0.70130177645E+01  0.10010908868E+02 -0.77802407022E+02  0.11287790869E+03  0.80862890232E+02 0.  0.
          5    1    3    3  502    0  0.47470120988E+02  0.36282213264E+02  0.33565911044E+02  0.68691861018E+02  0.47000000000E+01 0. -1.
        -11    1    4    4    0    0 -0.25982825242E+02 -0.46159142621E+01  0.25203696521E+00  0.26390858165E+02  0.00000000000E+00 0.  1.
         12    1    4    4    0    0  0.38010809003E+02 -0.12516669192E+02 -0.85692655556E+02  0.94576528932E+02  0.00000000000E+00 0. -1.
         -5    1    5    5    0  501 -0.66511122513E+02 -0.29160538678E+02 -0.27461321876E+03  0.28409254892E+03  0.47000000000E+01 0.  1.
         11    1    6    6    0    0 -0.12965226813E+02 -0.14236570701E+02  0.84899402673E+01  0.21044147343E+02  0.00000000000E+00 0. -1.
        -12    1    6    6    0    0  0.19978244578E+02  0.24247479569E+02 -0.86292347289E+02  0.91833761344E+02  0.00000000000E+00 0.  1.
</event>
<event>
12    1  0.1345781E-002  0.2654454E+03  0.7818608E-02  0.1103915E+00
         -1   -1    0    0    0  501 -0.00000000000E+00  0.00000000000E+00  0.26547025677E+03  0.26547025677E+03  0.00000000000E+00 0.  1.
          1   -1    0    0  502    0  0.00000000000E+00 -0.00000000000E+00 -0.51290234091E+03  0.51290234091E+03  0.00000000000E+00 0. -1.
          6    2    1    2  502    0  0.19939839862E+03  0.20561157112E+02 -0.39385422108E+03  0.47449132060E+03  0.17273790352E+03 0.  0.
         24    2    3    3    0    0  0.19060509145E+03  0.66266266930E+02 -0.33398258945E+03  0.39851118117E+03  0.80902858055E+02 0.  0.
         -6    2    1    2    0  501 -0.19939839862E+03 -0.20561157112E+02  0.14642213694E+03  0.30388127708E+03  0.17527665509E+03 0.  0.
        -24    2    5    5    0    0 -0.52233074617E+02 -0.60063056744E+02  0.73088376154E+02  0.13471283104E+03  0.80434888257E+02 0.  0.
          5    1    3    3  502    0  0.87933071676E+01 -0.45705109817E+02 -0.59871631626E+02  0.75980139431E+02  0.47000000000E+01 0. -1.
        -11    1    4    4    0    0 -0.62349911234E+01 -0.19958471437E+01 -0.25054590828E+02  0.25895772660E+02  0.00000000000E+00 0.  1.
         12    1    4    4    0    0  0.19684008257E+03  0.68262114073E+02 -0.30892799862E+03  0.37261540851E+03  0.00000000000E+00 0. -1.
         -5    1    5    5    0  501 -0.14716532400E+03  0.39501899632E+02  0.73333760782E+02  0.16916844603E+03  0.47000000000E+01 0.  1.
         11    1    6    6    0    0 -0.31972148624E+02 -0.67859519172E+01 -0.97959182084E+01  0.34120777315E+02  0.00000000000E+00 0. -1.
        -12    1    6    6    0    0 -0.20260925993E+02 -0.53277104827E+02  0.82884294363E+02  0.10059205373E+03  0.00000000000E+00 0.  1.
</event>
<event>
12    1  0.1345781E-002  0.1888801E+03  0.7818608E-02  0.1159475E+00
         -1   -1    0    0    0  501 -0.00000000000E+00  0.00000000000E+00  0.44082016583E+03  0.44082016583E+03  0.00000000000E+00 0. -1.
          1   -1    0    0  502    0  0.00000000000E+00 -0.00000000000E+00 -0.10635543738E+03  0.10635543738E+03  0.00000000000E+00 0.  1.
          6    2    1    2  502    0 -0.55115660185E+02 -0.57149157263E+02  0.30133736104E+03  0.35590868953E+03  0.17193902394E+03 0.  0.
         24    2    3    3    0    0 -0.84582407503E+02 -0.14237447121E+02  0.26676984577E+03  0.29324524583E+03  0.86427628848E+02 0.  0.
         -6    2    1    2    0  501  0.55115660185E+02  0.57149157263E+02  0.33127367416E+02  0.19126691368E+03  0.17082695227E+03 0.  0.
        -24    2    5    5    0    0  0.59555275252E+02  0.10292925275E+03  0.30987706763E+02  0.14498305610E+03  0.76932351470E+02 0.  0.
          5    1    3    3  502    0  0.29466747319E+02 -0.42911710142E+02  0.34567515264E+02  0.62663443700E+02  0.47000000000E+01 0. -1.
        -11    1    4    4    0    0 -0.37722441580E+02 -0.10234153937E+02  0.23792434987E+02  0.45758064516E+02  0.00000000000E+00 0.  1.
         12    1    4    4    0    0 -0.46859965923E+02 -0.40032931839E+01  0.24297741079E+03  0.24748718131E+03  0.00000000000E+00 0. -1.
         -5    1    5    5    0  501 -0.44396150677E+01 -0.45780095489E+02  0.21396606527E+01  0.46283857582E+02  0.47000000000E+01 0.  1.
         11    1    6    6    0    0 -0.11865145481E+02  0.15470017641E+02 -0.13398675962E+02  0.23656450297E+02  0.00000000000E+00 0. -1.
        -12    1    6    6    0    0  0.71420420733E+02  0.87459235111E+02  0.44386382725E+02  0.12132660580E+03  0.00000000000E+00 0.  1.
</event>
<event>
12    1  0.1345781E-002  0.1883612E+03  0.7818608E-02  0.1159948E+00
         -2   -1    0    0    0  501 -0.00000000000E+00  0.00000000000E+00  0.41378632849E+02  0.41378632849E+02  0.00000000000E+00 0. -1.
          2   -1    0    0  502    0  0.00000000000E+00 -0.00000000000E+00 -0.98622940573E+03  0.98622940573E+03  0.00000000000E+00 0.  1.
          6    2    1    2  502    0  0.51769007721E+02 -0.55610046389E+02 -0.28603594737E+03  0.34230374198E+03  0.17199645684E+03 0.  0.
         24    2    3    3    0    0 -0.38078072178E+02 -0.38716466298E+02 -0.13462452374E+03  0.16537042115E+03  0.79213063663E+02 0.  0.
         -6    2    1    2    0  501 -0.51769007721E+02  0.55610046389E+02 -0.65881482550E+03  0.68530429660E+03  0.17272086500E+03 0.  0.
        -24    2    5    5    0    0 -0.23033413853E+01 -0.33113955468E+02 -0.33026055137E+03  0.34137290561E+03  0.79759572883E+02 0.  0.
          5    1    3    3  502    0  0.89847079898E+02 -0.16893580091E+02 -0.15141142363E+03  0.17693332083E+03  0.47000000000E+01 0. -1.
        -11    1    4    4    0    0  0.10134989831E+02 -0.25697305986E+02 -0.10210524850E+03  0.10577594871E+03  0.00000000000E+00 0.  1.
         12    1    4    4    0    0 -0.48213062008E+02 -0.13019160312E+02 -0.32519275247E+02  0.59594472445E+02  0.00000000000E+00 0. -1.
         -5    1    5    5    0  501 -0.49465666335E+02  0.88724001856E+02 -0.32855427414E+03  0.34393139098E+03  0.47000000000E+01 0.  1.
         13    1    6    6    0    0 -0.29493342913E+02 -0.16160232502E+02 -0.27831547777E+03  0.28033999992E+03  0.00000000000E+00 0. -1.
        -14    1    6    6    0    0  0.27190001528E+02 -0.16953722966E+02 -0.51945073599E+02  0.61032905688E+02  0.00000000000E+00 0.  1.
</event>
<event>
12    1  0.1345781E-002  0.2225792E+03  0.7818608E-02  0.1131975E+00
          2   -1    0    0  502    0  0.00000000000E+00  0.00000000000E+00  0.16422319411E+03  0.16422319411E+03  0.00000000000E+00 0.  1.
         -2   -1    0    0    0  501 -0.00000000000E+00 -0.00000000000E+00 -0.30196507230E+03  0.30196507230E+03  0.00000000000E+00 0. -1.
          6    2    1    2  502    0 -0.60025075321E+01  0.14221333157E+03 -0.61518028272E+02  0.23062842156E+03  0.17071713229E+03 0.  0.
         24    2    3    3    0    0  0.42760201981E+02  0.27816879865E+02 -0.51127999645E+01  0.93997569330E+02  0.78785713410E+02 0.  0.
         -6    2    1    2    0  501  0.60025075321E+01 -0.14221333157E+03 -0.76223849918E+02  0.23555984484E+03  0.17151589848E+03 0.  0.
        -24    2    5    5    0    0  0.64082112786E+00 -0.13060421233E+03  0.49130452249E+01  0.15328709672E+03  0.80093227408E+02 0.  0.
          5    1    3    3  502    0 -0.48762709513E+02  0.11439645171E+03 -0.56405228307E+02  0.13663085223E+03  0.47000000000E+01 0. -1.
        -13    1    4    4    0    0  0.95608599503E+01  0.43160669904E+02  0.21115934053E+02  0.48991184314E+02  0.00000000000E+00 0.  1.
         14    1    4    4    0    0  0.33199342031E+02 -0.15343790039E+02 -0.26228734018E+02  0.45006385016E+02  0.00000000000E+00 0. -1.
         -5    1    5    5    0  501  0.53616864042E+01 -0.11609119243E+02 -0.81136895142E+02  0.82272748125E+02  0.47000000000E+01 0.  1.
         11    1    6    6    0    0  0.14980678831E+02 -0.15900632557E+02 -0.25675752661E+02  0.33711943413E+02  0.00000000000E+00 0. -1.
        -12    1    6    6    0    0 -0.14339857703E+02 -0.11470357977E+03  0.30588797886E+02  0.11957515330E+03  0.00000000000E+00 0.  1.
</event>
<event>
12    1  0.1345781E-002  0.2274886E+03  0.7818608E-02  0.1128420E+00
          1   -1    0    0  502    0  0.00000000000E+00  0.00000000000E+00  0.42991757111E+03  0.42991757111E+03  0.00000000000E+00 0. -1.
         -1   -1    0    0    0  501 -0.00000000000E+00 -0.00000000000E+00 -0.12073180123E+03  0.12073180123E+03  0.00000000000E+00 0.  1.
          6    2    1    2  502    0 -0.77204319977E+02  0.12705373996E+03  0.13973910538E+03  0.26713577940E+03  0.17242780287E+03 0.  0.
         24    2    3    3    0    0  0.17498523835E+02  0.94456515300E+02  0.93158117912E+02  0.15657771287E+03  0.81301375241E+02 0.  0.
         -6    2    1    2    0  501  0.77204319977E+02 -0.12705373996E+03  0.16944666450E+03  0.28351359294E+03  0.17194366929E+03 0.  0.
        -24    2    5    5    0    0 -0.14766808522E+01 -0.20703252425E+02  0.19857806924E+02  0.83763643247E+02  0.78684243574E+02 0.  0.
          5    1    3    3  502    0 -0.94702843812E+02  0.32597224656E+02  0.46580987468E+02  0.11055806653E+03  0.47000000000E+01 0. -1.
        -11    1    4    4    0    0  0.13194620223E+02  0.62579305477E+02  0.66705240136E+01  0.64302125684E+02  0.00000000000E+00 0.  1.
         12    1    4    4    0    0  0.43039036122E+01  0.31877209822E+02  0.86487593898E+02  0.92275587187E+02  0.00000000000E+00 0. -1.
         -5    1    5    5    0  501  0.78681000829E+02 -0.10635048753E+03  0.14958885758E+03  0.19974994969E+03  0.47000000000E+01 0.  1.
         13    1    6    6    0    0 -0.36910130949E+02 -0.10813211116E+02 -0.58218065813E+01  0.38899572404E+02  0.00000000000E+00 0. -1.
        -14    1    6    6    0    0  0.35433450097E+02 -0.98900413080E+01  0.25679613506E+02  0.44864070843E+02  0.00000000000E+00 0.  1.
</event>
<event>
12    1  0.1345781E-002  0.2925429E+03  0.7818608E-02  0.1089029E+00
         -2   -1    0    0    0  501 -0.00000000000E+00  0.00000000000E+00  0.17427952326E+03  0.17427952326E+03  0.00000000000E+00 0. -1.
          2   -1    0    0  502    0  0.00000000000E+00 -0.00000000000E+00 -0.89583453085E+03  0.89583453085E+03  0.00000000000E+00 0.  1.
          6    2    1    2  502    0  0.21267715128E+03 -0.10451964800E+03 -0.93336339423E+00  0.29227382549E+03  0.17107656298E+03 0.  0.
         24    2    3    3    0    0  0.62101919876E+02 -0.97712666280E+02 -0.12814603743E+02  0.14100423441E+03  0.79457953964E+02 0.  0.
         -6    2    1    2    0  501 -0.21267715128E+03  0.10451964800E+03 -0.72062164420E+03  0.77784022862E+03  0.17199982465E+03 0.  0.
        -24    2    5    5    0    0 -0.18618752722E+03  0.64891222420E+02 -0.68819756448E+03  0.71999973033E+03  0.76857386644E+02 0.  0.
          5    1    3    3  502    0  0.15057523140E+03 -0.68069817231E+01  0.11881240348E+02  0.15126959108E+03  0.47000000000E+01 0. -1.
        -11    1    4    4    0    0  0.21236118660E+02 -0.16402502302E+02  0.30157108155E+02  0.40366644519E+02  0.00000000000E+00 0.  1.
         12    1    4    4    0    0  0.40865801216E+02 -0.81310163979E+02 -0.42971711898E+02  0.10063758989E+03  0.00000000000E+00 0. -1.
         -5    1    5    5    0  501 -0.26489624056E+02  0.39628425583E+02 -0.32424079721E+02  0.57840498292E+02  0.47000000000E+01 0.  1.
         11    1    6    6    0    0 -0.15623773558E+03  0.42534371824E+02 -0.43695527714E+03  0.46599282937E+03  0.00000000000E+00 0. -1.
        -12    1    6    6    0    0 -0.29949791648E+02  0.22356850596E+02 -0.25124228734E+03  0.25400690096E+03  0.00000000000E+00 0.  1.
</event>
<event>
12    1  0.1345781E-002  0.2490231E+03  0.7818608E-02  0.1113924E+00
         -2   -1    0    0    0  501 -0.00000000000E+00  0.00000000000E+00  0.42412018415E+02  0.42412018415E+02  0.00000000000E+00 0.  1.
          2   -1    0    0  502    0  0.00000000000E+00 -0.00000000000E+00 -0.14833200086E+04  0.14833200086E+04  0.00000000000E+00 0. -1.
          6    2    1    2  502    0  0.10221924544E+03  0.14748483623E+03 -0.63553376081E+03  0.68335382296E+03  0.17569500609E+03 0.  0.
         24    2    3    3    0    0  0.66656401134E+01  0.24287874039E+02 -0.12957476544E+03  0.15389695221E+03  0.79122187010E+02 0.  0.
         -6    2    1    2    0  501 -0.10221924544E+03 -0.14748483623E+03 -0.80537422934E+03  0.84237820402E+03  0.16962558259E+03 0.  0.
        -24    2    5    5    0    0  0.37547178339E+01 -0.85487503335E+02 -0.49133307500E+03  0.50515707954E+03  0.80332268026E+02 0.  0.
          5    1    3    3  502    0  0.95553605329E+02  0.12319696219E+03 -0.50595899537E+03  0.52945687075E+03  0.47000000000E+01 0. -1.
        -11    1    4    4    0    0  0.22857536551E+01 -0.11687997459E+01 -0.12799205384E+03  0.12801779802E+03  0.00000000000E+00 0.  1.
         12    1    4    4    0    0  0.43798864584E+01  0.25456673785E+02 -0.15827115952E+01  0.25879154190E+02  0.00000000000E+00 0. -1.
         -5    1    5    5    0  501 -0.10597396328E+03 -0.61997332898E+02 -0.31404115434E+03  0.33722112448E+03  0.47000000000E+01 0.  1.
         13    1    6    6    0    0  0.30516653516E+02 -0.21836254591E+02 -0.83826734491E+02  0.91842308179E+02  0.00000000000E+00 0. -1.
        -14    1    6    6    0    0 -0.26761935682E+02 -0.63651248744E+02 -0.40750634051E+03  0.41331477136E+03  0.00000000000E+00 0.  1.
</event>
<event>
12    1  0.1345781E-002  0.2444867E+03  0.7818608E-02  0.1116839E+00
          2   -1    0    0  502    0  0.00000000000E+00  0.00000000000E+00  0.67651314994E+02  0.67651314994E+02  0.00000000000E+00 0.  1.
         -2   -1    0    0    0  501 -0.00000000000E+00 -0.00000000000E+00 -0.88442391079E+03  0.88442391079E+03  0.00000000000E+00 0. -1.
          6    2    1    2  502    0 -0.57221091901E+02  0.16425169707E+03 -0.39402513707E+03  0.46388156638E+03  0.17227137207E+03 0.  0.
         24    2    3    3    0    0  0.67196169979E+01  0.85329704485E+02 -0.10670375335E+03  0.15909842592E+03  0.81242269972E+02 0.  0.
         -6    2    1    2    0  501  0.57221091901E+02 -0.16425169707E+03 -0.42274745872E+03  0.48819365940E+03  0.17136149472E+03 0.  0.
        -24    2    5    5    0    0  0.21659554427E+02 -0.36295111630E+02 -0.27733915751E+03  0.29120844481E+03  0.78095317507E+02 0.  0.
          5    1    3    3  502    0 -0.63940708899E+02  0.78921992584E+02 -0.28732138372E+03  0.30478314047E+03  0.47000000000E+01 0. -1.
        -13    1    4    4    0    0 -0.29820315387E+02  0.73207804745E+02 -0.78234885173E+02  0.11121749477E+03  0.00000000000E+00 0.  1.
         14    1    4    4    0    0  0.36539932385E+02  0.12121899740E+02 -0.28468868176E+02  0.47880931144E+02  0.00000000000E+00 0. -1.
         -5    1    5    5    0  501  0.35561537474E+02 -0.12795658544E+03 -0.14540830122E+03  0.19698521459E+03  0.47000000000E+01 0.  1.
         13    1    6    6    0    0  0.22655799007E+02 -0.50160899870E+02 -0.26987373718E+03  0.27542918350E+03  0.00000000000E+00 0. -1.
        -14    1    6    6    0    0 -0.99624457964E+00  0.13865788240E+02 -0.74654203221E+01  0.15779261306E+02  0.00000000000E+00 0.  1.
</event>
<event>
12    1  0.1345781E-002  0.1766922E+03  0.7818608E-02  0.1171043E+00
          2   -1    0    0  502    0  0.00000000000E+00  0.00000000000E+00  0.14911926720E+04  0.14911926720E+04  0.00000000000E+00 0. -1.
         -2   -1    0    0    0  501 -0.00000000000E+00 -0.00000000000E+00 -0.23200700376E+02  0.23200700376E+02  0.00000000000E+00 0.  1.
          6    2    1    2  502    0 -0.37669642505E+02  0.10837764517E+02  0.49839652969E+03  0.52887531623E+03  0.17255010923E+03 0.  0.
         24    2    3    3    0    0 -0.34657842236E+01 -0.23483052974E+02  0.11382679118E+03  0.14123657175E+03  0.80173345779E+02 0.  0.
         -6    2    1    2    0  501  0.37669642505E+02 -0.10837764517E+02  0.96959544191E+03  0.98551805613E+03  0.17202923844E+03 0.  0.
        -24    2    5    5    0    0 -0.20178202606E+02  0.42967749940E+02  0.63682884798E+03  0.64346966393E+03  0.79049600781E+02 0.  0.
          5    1    3    3  502    0 -0.34203858282E+02  0.34320817491E+02  0.38456973852E+03  0.38763874447E+03  0.47000000000E+01 0. -1.
        -11    1    4    4    0    0  0.20352368643E+02  0.10663069868E+01 -0.19873322649E+01  0.20476948247E+02  0.00000000000E+00 0.  1.
         12    1    4    4    0    0 -0.23818152867E+02 -0.24549359961E+02  0.11581412344E+03  0.12075962350E+03  0.00000000000E+00 0. -1.
         -5    1    5    5    0  501  0.57847845111E+02 -0.53805514457E+02  0.33276659393E+03  0.34204839220E+03  0.47000000000E+01 0.  1.
         13    1    6    6    0    0 -0.50577805311E+02  0.21755053520E+02  0.36731029726E+03  0.37141385437E+03  0.00000000000E+00 0. -1.
        -14    1    6    6    0    0  0.30399602705E+02  0.21212696420E+02  0.26951855071E+03  0.27205580955E+03  0.00000000000E+00 0.  1.
</event>
<event>
12    1  0.1345781E-002  0.1851972E+03  0.7818608E-02  0.1162866E+00
          1   -1    0    0  502    0  0.00000000000E+00  0.00000000000E+00  0.38723096677E+03  0.38723096677E+03  0.00000000000E+00 0.  1.
         -1   -1    0    0    0  501 -0.00000000000E+00 -0.00000000000E+00 -0.88662298810E+02  0.88662298810E+02  0.00000000000E+00 0. -1.
          6    2    1    2  502    0  0.48420231704E+02  0.48165589798E+02  0.15696898265E+03  0.24287898456E+03  0.17229769803E+03 0.  0.
         24    2    3    3    0    0  0.65747985895E+02 -0.12613054281E+02  0.14626898419E+03  0.17860710417E+03  0.77614400309E+02 0.  0.
         -6    2    1    2    0  501 -0.48420231704E+02 -0.48165589798E+02  0.14159968531E+03  0.23301428103E+03  0.17199052707E+03 0.  0.
        -24    2    5    5    0    0  0.27619038071E+02 -0.67153808063E+02  0.87798606870E+02  0.13783461396E+03  0.77571516919E+02 0.  0.
          5    1    3    3  502    0 -0.17327754191E+02  0.60778644079E+02  0.10699998458E+02  0.64271880386E+02  0.47000000000E+01 0. -1.
        -11    1    4    4    0    0 -0.15466293348E+02  0.24739684611E+01  0.46573768166E+02  0.49136978245E+02  0.00000000000E+00 0.  1.
         12    1    4    4    0    0  0.81214279243E+02 -0.15087022742E+02  0.99695216028E+02  0.12947012592E+03  0.00000000000E+00 0. -1.
         -5    1    5    5    0  501 -0.76039269775E+02  0.18988218264E+02  0.53801078441E+02  0.95179667063E+02  0.47000000000E+01 0.  1.
         11    1    6    6    0    0 -0.24519677906E+02 -0.16754970516E+02  0.44109615380E+02  0.53175199206E+02  0.00000000000E+00 0. -1.
        -12    1    6    6    0    0  0.52138715977E+02 -0.50398837547E+02  0.43688991490E+02  0.84659414758E+02  0.00000000000E+00 0.  1.
</event>
<event>
12    1  0.1345781E-002  0.1684902E+03  0.7818608E-02  0.1179432E+00
         -2   -1    0    0    0  501 -0.00000000000E+00  0.00000000000E+00  0.60778566278E+02  0.60778566278E+02  0.00000000000E+00 0.  1.
          2   -1    0    0  502    0  0.00000000000E+00 -0.00000000000E+00 -0.69757373821E+03  0.69757373821E+03  0.00000000000E+00 0. -1.
          6    2    1    2  502    0 -0.80258854718E+01 -0.15762628276E+02 -0.53081295808E+03  0.55566267346E+03  0.16335769014E+03 0.  0.
         24    2    3    3    0    0 -0.56909367112E+02  0.47263796304E+01 -0.23368244363E+03  0.25380504669E+03  0.80922818393E+02 0.  0.
         -6    2    1    2    0  501  0.80258854718E+01  0.15762628276E+02 -0.10598221385E+03  0.20268963102E+03  0.17186617347E+03 0.  0.
        -24    2    5    5    0    0 -0.46614894412E+02  0.39314542742E+02 -0.10210680945E+03  0.14287812493E+03  0.79181919632E+02 0.  0.
          5    1    3    3  502    0  0.48883481640E+02 -0.20489007906E+02 -0.29713051445E+03  0.30185762677E+03  0.47000000000E+01 0. -1.
        -11    1    4    4    0    0 -0.29374279890E+02  0.35944750703E+02 -0.17991558888E+03  0.18580767623E+03  0.00000000000E+00 0.  1.
         12    1    4    4    0    0 -0.27535087222E+02 -0.31218371073E+02 -0.53766854746E+02  0.67997370464E+02  0.00000000000E+00 0. -1.
         -5    1    5    5    0  501  0.54640779884E+02 -0.23551914466E+02 -0.38754044024E+01  0.59811506089E+02  0.47000000000E+01 0.  1.
         13    1    6    6    0    0 -0.35475064575E+02 -0.49741273685E+01 -0.57953066754E+01  0.36287845474E+02  0.00000000000E+00 0. -1.
        -14    1    6    6    0    0 -0.11139829837E+02  0.44288670110E+02 -0.96311502770E+02  0.10659027946E+03  0.00000000000E+00 0.  1.
</event>
<event>
12    1  0.1345781E-002  0.1821544E+03  0.7818608E-02  0.1165734E+00
         -4   -1    0    0    0  501 -0.00000000000E+00  0.00000000000E+00  0.15936786428E+03  0.15936786428E+03  0.00000000000E+00 0.  1.
          4   -1    0    0  502    0  0.00000000000E+00 -0.00000000000E+00 -0.24607220641E+03  0.24607220641E+03  0.00000000000E+00 0. -1.
          6    2    1    2  502    0 -0.54301638251E+02 -0.25861375610E+02  0.36218154072E+02  0.18552252939E+03  0.17172470865E+03 0.  0.
         24    2    3    3    0    0 -0.83883334662E+02 -0.19940645622E+02  0.73260414823E+02  0.13751887445E+03  0.78168467217E+02 0.  0.
         -6    2    1    2    0  501  0.54301638251E+02  0.25861375610E+02 -0.12292249620E+03  0.21991754130E+03  0.17215198586E+03 0.  0.
        -24    2    5    5    0    0  0.96318890003E+02  0.99273791225E+00 -0.11455325136E+03  0.17015779005E+03  0.80950058790E+02 0.  0.
          5    1    3    3  502    0  0.29581696411E+02 -0.59207299885E+01 -0.37042260752E+02  0.48003654942E+02  0.47000000000E+01 0. -1.
        -11    1    4    4    0    0 -0.71320600078E+01 -0.17748341037E+02  0.55507409766E+02  0.58710667075E+02  0.00000000000E+00 0.  1.
         12    1    4    4    0    0 -0.76751274655E+02 -0.21923045852E+01  0.17753005058E+02  0.78808207371E+02  0.00000000000E+00 0. -1.
         -5    1    5    5    0  501 -0.42017251751E+02  0.24868637698E+02 -0.83692448402E+01  0.49759751254E+02  0.47000000000E+01 0.  1.
         11    1    6    6    0    0  0.88791358022E+02  0.30468999515E+02 -0.97219115027E+02  0.13514370691E+03  0.00000000000E+00 0. -1.
        -12    1    6    6    0    0  0.75275319809E+01 -0.29476261602E+02 -0.17334136329E+02  0.35014083139E+02  0.00000000000E+00 0.  1.
</event>
<event>
12    1  0.1345781E-002  0.1721625E+03  0.7818608E-02  0.1175611E+00
         -2   -1    0    0    0  501 -0.00000000000E+00  0.00000000000E+00  0.11809327298E+03  0.11809327298E+03  0.00000000000E+00 0.  1.
          2   -1    0    0  502    0  0.00000000000E+00 -0.00000000000E+00 -0.26272332503E+03  0.26272332503E+03  0.00000000000E+00 0. -1.
          6    2    1    2  502    0 -0.92316654259E+01 -0.19625326687E+02 -0.11240311677E+03  0.20528809678E+03  0.17040646973E+03 0.  0.
         24    2    3    3    0    0  0.38759599781E+02  0.10431978658E+02 -0.19673194811E+02  0.96533641391E+02  0.85560368000E+02 0.  0.
         -6    2    1    2    0  501  0.92316654259E+01  0.19625326687E+02 -0.32226935281E+02  0.17552850123E+03  0.17117623168E+03 0.  0.
        -24    2    5    5    0    0  0.33209423010E+02 -0.28137337117E+02 -0.65944069106E+02  0.11216336866E+03  0.79607948738E+02 0.  0.
          5    1    3    3  502    0 -0.47991265207E+02 -0.30057305345E+02 -0.92729921954E+02  0.10875445539E+03  0.47000000000E+01 0. -1.
        -11    1    4    4    0    0 -0.14009641017E+02  0.33558182118E+02 -0.12602945224E+02  0.38487086884E+02  0.00000000000E+00 0.  1.
         12    1    4    4    0    0  0.52769240798E+02 -0.23126203461E+02 -0.70702495873E+01  0.58046554507E+02  0.00000000000E+00 0. -1.
         -5    1    5    5    0  501 -0.23977757584E+02  0.47762663804E+02  0.33717133826E+02  0.63365132572E+02  0.47000000000E+01 0.  1.
         13    1    6    6    0    0 -0.23831055751E+02 -0.22492536834E+02 -0.17702939004E+02  0.37245502826E+02  0.00000000000E+00 0. -1.
        -14    1    6    6    0    0  0.57040478761E+02 -0.56448002833E+01 -0.48241130103E+02  0.74917865834E+02  0.00000000000E+00 0.  1.
</event>
<event>
12    1  0.1345781E-002  0.1762430E+03  0.7818608E-02  0.1171489E+00
          2   -1    0    0  502    0  0.00000000000E+00  0.00000000000E+00  0.16418556235E+04  0.16418556235E+04  0.00000000000E+00 0.  1.
         -2   -1    0    0    0  501 -0.00000000000E+00 -0.00000000000E+00 -0.23021008743E+02  0.23021008743E+02  0.00000000000E+00 0. -1.
          6    2    1    2  502    0 -0.33600366081E+02  0.11684723762E+02  0.45616684245E+03  0.48885311964E+03  0.17211527261E+03 0.  0.
         24    2    3    3    0    0  0.25855113045E+02  0.56332553627E+02  0.28037301362E+03  0.29792396272E+03  0.79421768599E+02 0.  0.
         -6    2    1    2    0  501  0.33600366081E+02 -0.11684723762E+02  0.11626677723E+04  0.11760235126E+04  0.17311682775E+03 0.  0.
        -24    2    5    5    0    0 -0.23650881460E+01 -0.39392780396E+02  0.10581646871E+04  0.10619873994E+04  0.80915675996E+02 0.  0.
          5    1    3    3  502    0 -0.59455479125E+02 -0.44647829865E+02  0.17579382883E+03  0.19092915692E+03  0.47000000000E+01 0. -1.
        -13    1    4    4    0    0 -0.79316869940E+01  0.63618529047E+02  0.15172943779E+03  0.16471809612E+03  0.00000000000E+00 0.  1.
         14    1    4    4    0    0  0.33786800039E+02 -0.72859754196E+01  0.12864357584E+03  0.13320586661E+03  0.00000000000E+00 0. -1.
         -5    1    5    5    0  501  0.35965454227E+02  0.27708056634E+02  0.10450308519E+03  0.11403611320E+03  0.47000000000E+01 0.  1.
         11    1    6    6    0    0 -0.22601345857E+02 -0.19268346617E+02  0.12861308341E+03  0.13199778498E+03  0.00000000000E+00 0. -1.
        -12    1    6    6    0    0  0.20236257711E+02 -0.20124433780E+02  0.92955160369E+03  0.92998961439E+03  0.00000000000E+00 0.  1.
</event>
<event>
12    1  0.1345781E-002  0.2771538E+03  0.7818608E-02  0.1097254E+00
          1   -1    0    0  502    0  0.00000000000E+00  0.00000000000E+00  0.22355658065E+03  0.22355658065E+03  0.00000000000E+00 0. -1.
         -1   -1    0    0    0  501 -0.00000000000E+00 -0.00000000000E+00 -0.37283309989E+03  0.37283309989E+03  0.00000000000E+00 0.  1.
          6    2    1    2  502    0  0.19558179549E+03 -0.93861071904E+02 -0.15809068408E+03  0.31891450664E+03  0.17219656967E+03 0.  0.
         24    2    3    3    0    0  0.11031387757E+03 -0.74744137286E+00 -0.35675117756E+02  0.14299285676E+03  0.83693086958E+02 0.  0.
         -6    2    1    2    0  501 -0.19558179549E+03  0.93861071904E+02  0.88141648343E+01  0.27747517391E+03  0.17277917434E+03 0.  0.
        -24    2    5    5    0    0 -0.12649549458E+03  0.12276101444E+03  0.45800610421E+02  0.19381986440E+03  0.66310384603E+02 0.  0.
          5    1    3    3  502    0  0.85267917914E+02 -0.93113630531E+02 -0.12241556632E+03  0.17592164987E+03  0.47000000000E+01 0. -1.
        -13    1    4    4    0    0  0.11691150081E+03  0.17995535217E+02 -0.33863679860E+02  0.12304018499E+03  0.00000000000E+00 0.  1.
         14    1    4    4    0    0 -0.65976232311E+01 -0.18742976589E+02 -0.18114378953E+01  0.19952671776E+02  0.00000000000E+00 0. -1.
         -5    1    5    5    0  501 -0.69086300913E+02 -0.28899942531E+02 -0.36986445587E+02  0.83655309510E+02  0.47000000000E+01 0.  1.
         11    1    6    6    0    0 -0.75517310671E+02  0.47172079460E+02 -0.54924810004E+01  0.89208949322E+02  0.00000000000E+00 0. -1.
        -12    1    6    6    0    0 -0.50978183905E+02  0.75588934975E+02  0.51293091422E+02  0.10461091507E+03  0.00000000000E+00 0.  1.
</event>
<event>
12    1  0.1345781E-002  0.1728224E+03  0.7818608E-02  0.1174936E+00
         -2   -1    0    0    0  501 -0.00000000000E+00  0.00000000000E+00  0.50534474994E+02  0.50534474994E+02  0.00000000000E+00 0.  1.
          2   -1    0    0  502    0  0.00000000000E+00 -0.00000000000E+00 -0.63774297168E+03  0.63774297168E+03  0.00000000000E+00 0. -1.
          6    2    1    2  502    0  0.90897431854E+01  0.22494832521E+02 -0.20377566286E+03  0.26852718100E+03  0.17318685066E+03 0.  0.
         24    2    3    3    0    0 -0.33171435044E+02  0.23461049987E+02 -0.20715977390E+03  0.22586006288E+03  0.80292160940E+02 0.  0.
         -6    2    1    2    0  501 -0.90897431854E+01 -0.22494832521E+02 -0.38343283383E+03  0.41975026568E+03  0.16905888487E+03 0.  0.
        -24    2    5    5    0    0 -0.27489549288E+02 -0.17068063632E+02 -0.38942933385E+03  0.39910927012E+03  0.81154231629E+02 0.  0.
          5    1    3    3  502    0  0.42261178229E+02 -0.96621746650E+00  0.33841110487E+01  0.42667118125E+02  0.47000000000E+01 0. -1.
        -13    1    4    4    0    0 -0.28299436312E+02 -0.26999870329E+02 -0.97310166557E+02  0.10487668763E+03  0.00000000000E+00 0.  1.
         14    1    4    4    0    0 -0.48719987317E+01  0.50460920316E+02 -0.10984960735E+03  0.12098337524E+03  0.00000000000E+00 0. -1.
         -5    1    5    5    0  501  0.18399806103E+02 -0.54267688888E+01  0.59965000210E+01  0.20640995560E+02  0.47000000000E+01 0.  1.
         13    1    6    6    0    0  0.16099421624E+02  0.20177962949E+02 -0.18499172086E+03  0.18678404201E+03  0.00000000000E+00 0. -1.
        -14    1    6    6    0    0 -0.43588970912E+02 -0.37246026580E+02 -0.20443761300E+03  0.21232522810E+03  0.00000000000E+00 0.  1.
</event>
<event>
12    1  0.1345781E-002  0.1767147E+03  0.7818608E-02  0.1171021E+00
          1   -1    0    0  502    0  0.00000000000E+00  0.00000000000E+00  0.17269669711E+04  0.17269669711E+04  0.00000000000E+00 0.  1.
         -1   -1    0    0    0  501 -0.00000000000E+00 -0.00000000000E+00 -0.23964540167E+02  0.23964540167E+02  0.00000000000E+00 0. -1.
          6    2    1    2  502    0 -0.19617089779E+02  0.32606157618E+02  0.12787639699E+04  0.12906786200E+04  0.17078061214E+03 0.  0.
         24    2    3    3    0    0 -0.43021119484E+00  0.50762096976E+01  0.12207382262E+04  0.12234840422E+04  0.81764488975E+02 0.  0.
         -6    2    1    2    0  501  0.19617089779E+02 -0.32606157618E+02  0.42423846095E+03  0.46025289127E+03  0.17437448334E+03 0.  0.
        -24    2    5    5    0    0  0.62673719653E+01  0.40727622829E+02  0.13799590005E+03  0.16442701006E+03  0.79343266841E+02 0.  0.
          5    1    3    3  502    0 -0.19186878584E+02  0.27529947921E+02  0.58025743748E+02  0.67194577756E+02  0.47000000000E+01 0. -1.
        -11    1    4    4    0    0  0.98866049607E+00 -0.33036535232E+02  0.27530677270E+03  0.27728362592E+03  0.00000000000E+00 0.  1.
         12    1    4    4    0    0 -0.14188716909E+01  0.38112744930E+02  0.94543145348E+03  0.94620041628E+03  0.00000000000E+00 0. -1.
         -5    1    5    5    0  501  0.13349717813E+02 -0.73333780448E+02  0.28624256090E+03  0.29582588121E+03  0.47000000000E+01 0.  1.
         13    1    6    6    0    0  0.24050521127E+02 -0.31371311267E+01  0.71545917471E+01  0.25287493772E+02  0.00000000000E+00 0. -1.
        -14    1    6    6    0    0 -0.17783149162E+02  0.43864753956E+02  0.13084130830E+03  0.13913951628E+03  0.00000000000E+00 0.  1.
</event>
<event>
12    1  0.1345781E-002  0.2384892E+03  0.7818608E-02  0.1120803E+00
         -2   -1    0    0    0  501 -0.00000000000E+00  0.00000000000E+00  0.69379878841E+02  0.69379878841E+02  0.00000000000E+00 0. -1.
          2   -1    0    0  502    0  0.00000000000E+00 -0.00000000000E+00 -0.83605445988E+03  0.83605445988E+03  0.00000000000E+00 0.  1.
          6    2    1    2  502    0  0.11661446757E+03 -0.11749081694E+03 -0.44710444442E+03  0.50692334784E+03  0.17223783048E+03 0.  0.
         24    2    3    3    0    0  0.75945238257E+02 -0.19511037639E+02 -0.33025938811E+03  0.34903452445E+03  0.81274079636E+02 0.  0.
         -6    2    1    2    0  501 -0.11661446757E+03  0.11749081694E+03 -0.31957013662E+03  0.39851099089E+03  0.17112250443E+03 0.  0.
        -24    2    5    5    0    0 -0.12899907888E+03  0.56374487557E+02 -0.15557770434E+03  0.22299976002E+03  0.75535592152E+02 0.  0.
          5    1    3    3  502    0  0.40669229315E+02 -0.97979779306E+02 -0.11684505631E+03  0.15788882339E+03  0.47000000000E+01 0. -1.
        -11    1    4    4    0    0  0.42664856330E+02 -0.25439713573E+02 -0.29865378949E+03  0.30275659360E+03  0.00000000000E+00 0.  1.
         12    1    4    4    0    0  0.33280381927E+02  0.59286759346E+01 -0.31605598616E+02  0.46277930846E+02  0.00000000000E+00 0. -1.
         -5    1    5    5    0  501  0.12384611309E+02  0.61116329387E+02 -0.16399243228E+03  0.17551123086E+03  0.47000000000E+01 0.  1.
         13    1    6    6    0    0 -0.30036031591E+02  0.33930765431E+01  0.11151944251E+01  0.30247641574E+02  0.00000000000E+00 0. -1.
        -14    1    6    6    0    0 -0.98963047290E+02  0.52981411014E+02 -0.15669289877E+03  0.19275211845E+03  0.00000000000E+00 0.  1.
</event>
<event>
12    1  0.1345781E-002  0.1923913E+03  0.7818608E-02  0.1156322E+00
          2   -1    0    0  502    0  0.00000000000E+00  0.00000000000E+00  0.16749190033E+03  0.16749190033E+03  0.00000000000E+00 0.  1.
         -2   -1    0    0    0  501 -0.00000000000E+00 -0.00000000000E+00 -0.26097675367E+03  0.26097675367E+03  0.00000000000E+00 0. -1.
          6    2    1    2  502    0  0.27697748651E+02  0.82107218117E+02 -0.13061018445E+03  0.23258444532E+03  0.17183638548E+03 0.  0.
         24    2    3    3    0    0  0.51826675076E+01  0.74162238422E+02 -0.41240171802E+01  0.10377880844E+03  0.72292018330E+02 0.  0.
         -6    2    1    2    0  501 -0.27697748651E+02 -0.82107218117E+02  0.37125331109E+02  0.19588420868E+03  0.17170781128E+03 0.  0.
        -24    2    5    5    0    0  0.40848609461E+02 -0.43626985398E+02 -0.18202728873E+02  0.99641724602E+02  0.77622233886E+02 0.  0.
          5    1    3    3  502    0  0.22515081144E+02  0.79449796949E+01 -0.12648616727E+03  0.12880563688E+03  0.47000000000E+01 0. -1.
        -11    1    4    4    0    0 -0.61473000272E+01  0.13032607156E+00  0.23242176584E+02  0.24041735688E+02  0.00000000000E+00 0.  1.
         12    1    4    4    0    0  0.11329967535E+02  0.74031912350E+02 -0.27366193765E+02  0.79737072756E+02  0.00000000000E+00 0. -1.
         -5    1    5    5    0  501 -0.68546358112E+02 -0.38480232718E+02  0.55328059982E+02  0.96242484080E+02  0.47000000000E+01 0.  1.
         11    1    6    6    0    0 -0.16008013289E+02 -0.28443096635E+02  0.10338406966E+02  0.34236660092E+02  0.00000000000E+00 0. -1.
        -12    1    6    6    0    0  0.56856622751E+02 -0.15183888763E+02 -0.28541135839E+02  0.65405064510E+02  0.00000000000E+00 0.  1.
</event>
<event>
12    1  0.1345781E-002  0.2455304E+03  0.7818608E-02  0.1116163E+00
         -2   -1    0    0    0  501 -0.00000000000E+00  0.00000000000E+00  0.16908626546E+03  0.16908626546E+03  0.00000000000E+00 0. -1.
          2   -1    0    0  502    0  0.00000000000E+00 -0.00000000000E+00 -0.38762266418E+03  0.38762266418E+03  0.00000000000E+00 0.  1.
          6    2    1    2  502    0  0.13678565369E+03 -0.11255792035E+03 -0.18854060417E+03  0.31044916871E+03  0.17161447037E+03 0.  0.
         24    2    3    3    0    0  0.70609408575E+02 -0.27912603711E+02 -0.16769249788E+03  0.20090073840E+03  0.80470682987E+02 0.  0.
         -6    2    1    2    0  501 -0.13678565369E+03  0.11255792035E+03 -0.29995794547E+02  0.24625976093E+03  0.16841770000E+03 0.  0.
        -24    2    5    5    0    0 -0.11056211266E+03  0.58677636200E+02 -0.80816023525E+02  0.16754797784E+03  0.76642347779E+02 0.  0.
          5    1    3    3  502    0  0.66176245114E+02 -0.84645316638E+02 -0.20848106291E+02  0.10954843030E+03  0.47000000000E+01 0. -1.
        -13    1    4    4    0    0  0.36027240310E+02  0.22768030906E+02 -0.36666205898E+02  0.56220600589E+02  0.00000000000E+00 0.  1.
         14    1    4    4    0    0  0.34582168265E+02 -0.50680634618E+02 -0.13102629198E+03  0.14468013781E+03  0.00000000000E+00 0. -1.
         -5    1    5    5    0  501 -0.26223541026E+02  0.53880284149E+02  0.50820228979E+02  0.78711783091E+02  0.47000000000E+01 0.  1.
         11    1    6    6    0    0 -0.57870707558E+02  0.13070475224E+02  0.19380494523E+01  0.59360021492E+02  0.00000000000E+00 0. -1.
        -12    1    6    6    0    0 -0.52691405104E+02  0.45607160976E+02 -0.82754072978E+02  0.10818795635E+03  0.00000000000E+00 0.  1.
</event>
<event>
12    1  0.1345781E-002  0.2412210E+03  0.7818608E-02  0.1118982E+00
         -2   -1    0    0    0  501 -0.00000000000E+00  0.00000000000E+00  0.36227113066E+02  0.36227113066E+02  0.00000000000E+00 0. -1.
          2   -1    0    0  502    0  0.00000000000E+00 -0.00000000000E+00 -0.19429603229E+04  0.19429603229E+04  0.00000000000E+00 0.  1.
          6    2    1    2  502    0  0.13244842348E+03  0.10474682785E+03 -0.53991618456E+03  0.59117007908E+03  0.17163360170E+03 0.  0.
         24    2    3    3    0    0  0.11794044104E+03  0.67852906323E+02 -0.22997039863E+03  0.27866388200E+03  0.79077242977E+02 0.  0.
         -6    2    1    2    0  501 -0.13244842348E+03 -0.10474682785E+03 -0.13668170252E+04  0.13880173568E+04  0.17288412186E+03 0.  0.
        -24    2    5    5    0    0 -0.14135818771E+03 -0.87659507756E+02 -0.13496534760E+04  0.13617868816E+04  0.72337260196E+02 0.  0.
          5    1    3    3  502    0  0.14507982433E+02  0.36893921524E+02 -0.30994578593E+03  0.31250619708E+03  0.47000000000E+01 0. -1.
        -11    1    4    4    0    0  0.22071185458E+02  0.17330421200E+02 -0.12385214299E+03  0.12699147235E+03  0.00000000000E+00 0.  1.
         12    1    4    4    0    0  0.95869255587E+02  0.50522485123E+02 -0.10611825564E+03  0.15167240965E+03  0.00000000000E+00 0. -1.
         -5    1    5    5    0  501  0.89097642315E+01 -0.17087320091E+02 -0.17163549235E+02  0.26230475194E+02  0.47000000000E+01 0.  1.
         11    1    6    6    0    0 -0.60243170759E+02 -0.74449181265E+02 -0.59305719771E+03  0.60074017675E+03  0.00000000000E+00 0. -1.
        -12    1    6    6    0    0 -0.81115016951E+02 -0.13210326491E+02 -0.75659627829E+03  0.76104670489E+03  0.00000000000E+00 0.  1.
</event>
<event>
12    1  0.1345781E-002  0.1782998E+03  0.7818608E-02  0.1169459E+00
          2   -1    0    0  502    0  0.00000000000E+00  0.00000000000E+00  0.20725939724E+03  0.20725939724E+03  0.00000000000E+00 0.  1.
         -2   -1    0    0    0  501 -0.00000000000E+00 -0.00000000000E+00 -0.18074372034E+03  0.18074372034E+03  0.00000000000E+00 0. -1.
          6    2    1    2  502    0  0.17220374681E+02  0.44684238648E+02  0.88738003268E+02  0.19922009067E+03  0.17181673031E+03 0.  0.
         24    2    3    3    0    0 -0.45140003922E+02  0.27962627345E+01  0.18047311349E+02  0.95959821112E+02  0.82687017008E+02 0.  0.
         -6    2    1    2    0  501 -0.17220374681E+02 -0.44684238648E+02 -0.62222326370E+02  0.18878302691E+03  0.17168049063E+03 0.  0.
        -24    2    5    5    0    0 -0.63225292787E+02 -0.32872725333E+02 -0.18206899134E+01  0.11179983379E+03  0.86126849500E+02 0.  0.
          5    1    3    3  502    0  0.62360378603E+02  0.41887975914E+02  0.70690691919E+02  0.10326026956E+03  0.47000000000E+01 0. -1.
        -11    1    4    4    0    0 -0.16783086136E+01  0.30418080169E+02  0.30362658377E+02  0.43011246723E+02  0.00000000000E+00 0.  1.
         12    1    4    4    0    0 -0.43461695308E+02 -0.27621817434E+02 -0.12315347028E+02  0.52948574389E+02  0.00000000000E+00 0. -1.
         -5    1    5    5    0  501  0.46004918106E+02 -0.11811513315E+02 -0.60401636457E+02  0.76983193123E+02  0.47000000000E+01 0.  1.
         11    1    6    6    0    0 -0.30041102397E+02 -0.20959285015E+02 -0.43721882973E+02  0.57038254814E+02  0.00000000000E+00 0. -1.
        -12    1    6    6    0    0 -0.33184190390E+02 -0.11913440318E+02  0.41901193060E+02  0.54761578976E+02  0.00000000000E+00 0.  1.
</event>
<event>
12    1  0.1345781E-002  0.1749228E+03  0.7818608E-02  0.1172809E+00
         -2   -1    0    0    0  501 -0.00000000000E+00  0.00000000000E+00  0.13999709087E+02  0.13999709087E+02  0.00000000000E+00 0. -1.
          2   -1    0    0  502    0  0.00000000000E+00 -0.00000000000E+00 -0.21890807728E+04  0.21890807728E+04  0.00000000000E+00 0.  1.
          6    2    1    2  502    0  0.30298085314E+02 -0.51274369373E+02 -0.11153231263E+04  0.11300234568E+04  0.17164003547E+03 0.  0.
         24    2    3    3    0    0  0.76412816567E+02 -0.69023665451E+02 -0.85447015671E+03  0.86449009217E+03  0.81367596930E+02 0.  0.
         -6    2    1    2    0  501 -0.30298085314E+02  0.51274369373E+02 -0.10597579373E+04  0.10730570251E+04  0.15753557819E+03 0.  0.
        -24    2    5    5    0    0 -0.36935241244E+02 -0.17786130387E+01 -0.90551610387E+03  0.90974351072E+03  0.79413257180E+02 0.  0.
          5    1    3    3  502    0 -0.46114731252E+02  0.17749296077E+02 -0.26085296964E+03  0.26553336461E+03  0.47000000000E+01 0. -1.
        -13    1    4    4    0    0  0.46914553720E+02 -0.30703473798E+02 -0.70856021969E+03  0.71077511463E+03  0.00000000000E+00 0.  1.
         14    1    4    4    0    0  0.29498262847E+02 -0.38320191652E+02 -0.14590993702E+03  0.15371497754E+03  0.00000000000E+00 0. -1.
         -5    1    5    5    0  501  0.66371559295E+01  0.53052982412E+02 -0.15424183346E+03  0.16331351436E+03  0.47000000000E+01 0.  1.
         11    1    6    6    0    0 -0.43411893098E+02  0.26851300452E+02 -0.38065657641E+03  0.38406381496E+03  0.00000000000E+00 0. -1.
        -12    1    6    6    0    0  0.64766518544E+01 -0.28629913490E+02 -0.52485952746E+03  0.52567969576E+03  0.00000000000E+00 0.  1.
</event>
<event>
12    1  0.1345781E-002  0.2393346E+03  0.7818608E-02  0.1120237E+00
         -1   -1    0    0    0  501 -0.00000000000E+00  0.00000000000E+00  0.72935304782E+02  0.72935304782E+02  0.00000000000E+00 0.  1.
          1   -1    0    0  502    0  0.00000000000E+00 -0.00000000000E+00 -0.78882721609E+03  0.78882721609E+03  0.00000000000E+00 0. -1.
          6    2    1    2  502    0 -0.73277101350E+02 -0.14954730505E+03 -0.33002466398E+03  0.40791165896E+03  0.17245785761E+03 0.  0.
         24    2    3    3    0    0 -0.10831247825E+02 -0.63763201493E+02 -0.65269778628E+02  0.12264750705E+03  0.81235492185E+02 0.  0.
         -6    2    1    2    0  501  0.73277101350E+02  0.14954730505E+03 -0.38586724733E+03  0.45385086191E+03  0.17132758758E+03 0.  0.
        -24    2    5    5    0    0  0.58412701844E+02  0.15639865282E+03 -0.39608924714E+03  0.43398957748E+03  0.59897239681E+02 0.  0.
          5    1    3    3  502    0 -0.62445853526E+02 -0.85784103558E+02 -0.26475488535E+03  0.28526415191E+03  0.47000000000E+01 0. -1.
        -11    1    4    4    0    0  0.16199776888E+02 -0.46699521610E+02 -0.74471832285E+02  0.89383062678E+02  0.00000000000E+00 0.  1.
         12    1    4    4    0    0 -0.27031024713E+02 -0.17063679882E+02  0.92020536567E+01  0.33264444376E+02  0.00000000000E+00 0. -1.
         -5    1    5    5    0  501  0.14864399507E+02 -0.68513477718E+01  0.10221999812E+02  0.19861284428E+02  0.47000000000E+01 0.  1.
         11    1    6    6    0    0  0.55123928676E+02  0.12354588058E+03 -0.25043428987E+03  0.28463936070E+03  0.00000000000E+00 0. -1.
        -12    1    6    6    0    0  0.32887731672E+01  0.32852772239E+02 -0.14565495727E+03  0.14935021678E+03  0.00000000000E+00 0.  1.
</event>
<event>
12    1  0.1345781E-002  0.2158667E+03  0.7818608E-02  0.1137003E+00
         -1   -1    0    0    0  501 -0.00000000000E+00  0.00000000000E+00  0.37424310698E+03  0.37424310698E+03  0.00000000000E+00 0.  1.
          1   -1    0    0  502    0  0.00000000000E+00 -0.00000000000E+00 -0.13866314863E+03  0.13866314863E+03  0.00000000000E+00 0. -1.
          6    2    1    2  502    0 -0.11416141678E+03  0.57547235517E+02  0.35648214585E+02  0.21834277898E+03  0.17337318285E+03 0.  0.
         24    2    3    3    0    0 -0.49915448031E+02  0.85886596611E+02  0.63973868809E+02  0.14248042616E+03  0.79623843917E+02 0.  0.
         -6    2    1    2    0  501  0.11416141678E+03 -0.57547235517E+02  0.19993174377E+03  0.29456347663E+03  0.17450050487E+03 0.  0.
        -24    2    5    5    0    0  0.21013710678E+02 -0.29197570195E+02 -0.10969350918E+02  0.62224154909E+02  0.49572619992E+02 0.  0.
          5    1    3    3  502    0 -0.64245968747E+02 -0.28339361094E+02 -0.28325654224E+02  0.75862352815E+02  0.47000000000E+01 0. -1.
        -11    1    4    4    0    0 -0.35849071275E+02  0.63448513085E+02 -0.39488482142E+00  0.72876784081E+02  0.00000000000E+00 0.  1.
         12    1    4    4    0    0 -0.14066376755E+02  0.22438083526E+02  0.64368753630E+02  0.69603642083E+02  0.00000000000E+00 0. -1.
         -5    1    5    5    0  501  0.93147706100E+02 -0.28349665322E+02  0.21090109469E+03  0.23233932172E+03  0.47000000000E+01 0.  1.
         13    1    6    6    0    0  0.33846449511E+02 -0.59627067313E+01 -0.94227624647E+01  0.35635999615E+02  0.00000000000E+00 0. -1.
        -14    1    6    6    0    0 -0.12832738833E+02 -0.23234863464E+02 -0.15465884534E+01  0.26588155295E+02  0.00000000000E+00 0.  1.
</event>
<event>
12    1  0.1345781E-002  0.2424211E+03  0.7818608E-02  0.1118190E+00
         -1   -1    0    0    0  501 -0.00000000000E+00  0.00000000000E+00  0.15853018173E+03  0.15853018173E+03  0.00000000000E+00 0. -1.
          1   -1    0    0  502    0  0.00000000000E+00 -0.00000000000E+00 -0.12037863964E+04  0.12037863964E+04  0.00000000000E+00 0.  1.
          6    2    1    2  502    0 -0.20772160131E+02  0.17027454257E+03 -0.10893111112E+04  0.11159699250E+04  0.17136298888E+03 0.  0.
         24    2    3    3    0    0  0.55734830017E+01  0.13371195220E+02 -0.30121683867E+03  0.31196281945E+03  0.79870922411E+02 0.  0.
         -6    2    1    2    0  501  0.20772160131E+02 -0.17027454257E+03  0.44054896583E+02  0.24634665312E+03  0.17123357471E+03 0.  0.
        -24    2    5    5    0    0  0.18565903797E+02 -0.18864943693E+03  0.81768665629E+01  0.20570397422E+03  0.79460436852E+02 0.  0.
          5    1    3    3  502    0 -0.26345643133E+02  0.15690334735E+03 -0.78809427256E+03  0.80400710555E+03  0.47000000000E+01 0. -1.
        -11    1    4    4    0    0  0.33130631148E+01 -0.19331415831E+02 -0.25240061270E+03  0.25316150837E+03  0.00000000000E+00 0.  1.
         12    1    4    4    0    0  0.22604198868E+01  0.32702611050E+02 -0.48816225965E+02  0.58801311082E+02  0.00000000000E+00 0. -1.
         -5    1    5    5    0  501  0.22062563342E+01  0.18374894363E+02  0.35878030020E+02  0.40642678898E+02  0.47000000000E+01 0.  1.
         13    1    6    6    0    0 -0.27479437471E+02 -0.10161873921E+03  0.17842159119E+02  0.10676998775E+03  0.00000000000E+00 0. -1.
        -14    1    6    6    0    0  0.46045341268E+02 -0.87030697722E+02 -0.96652925566E+01  0.98933986469E+02  0.00000000000E+00 0.  1.
</event>
<event>
12    1  0.1345781E-002  0.2769638E+03  0.7818608E-02  0.1097359E+00
         -2   -1    0    0    0  501 -0.00000000000E+00  0.00000000000E+00  0.51366222683E+02  0.51366222683E+02  0.00000000000E+00 0. -1.
          2   -1    0    0  502    0  0.00000000000E+00 -0.00000000000E+00 -0.15394978580E+04  0.15394978580E+04  0.00000000000E+00 0.  1.
          6    2    1    2  502    0  0.19399054751E+03 -0.95776917058E+02 -0.88232974834E+03  0.92484526718E+03  0.17328425507E+03 0.  0.
         24    2    3    3    0    0  0.13815969483E+03 -0.12274650349E+03 -0.77595639361E+03  0.80163072543E+03  0.79678665685E+02 0.  0.
         -6    2    1    2    0  501 -0.19399054751E+03  0.95776917058E+02 -0.60580188701E+03  0.66601881354E+03  0.17256761954E+03 0.  0.
        -24    2    5    5    0    0 -0.15414514198E+03  0.54151170418E+02 -0.27733795440E+03  0.33250568913E+03  0.83370368237E+02 0.  0.
          5    1    3    3  502    0  0.55830852677E+02  0.26969586436E+02 -0.10637335473E+03  0.12321454175E+03  0.47000000000E+01 0. -1.
        -11    1    4    4    0    0  0.18825297255E+02 -0.66871540511E+02 -0.26303490472E+03  0.27205432518E+03  0.00000000000E+00 0.  1.
         12    1    4    4    0    0  0.11933439758E+03 -0.55874962983E+02 -0.51292148889E+03  0.52957640025E+03  0.00000000000E+00 0. -1.
         -5    1    5    5    0  501 -0.39845405532E+02  0.41625746640E+02 -0.32846393261E+03  0.33351312441E+03  0.47000000000E+01 0.  1.
         13    1    6    6    0    0 -0.93447834419E+01  0.28667796807E+02 -0.20171451585E+02  0.36277472492E+02  0.00000000000E+00 0. -1.
        -14    1    6    6    0    0 -0.14480035854E+03  0.25483373611E+02 -0.25716650281E+03  0.29622821664E+03  0.00000000000E+00 0.  1.
</event>
<event>
12    1  0.1345781E-002  0.2436903E+03  0.7818608E-02  0.1117359E+00
          2   -1    0    0  502    0  0.00000000000E+00  0.00000000000E+00  0.14951454478E+04  0.14951454478E+04  0.00000000000E+00 0.  1.
         -2   -1    0    0    0  501 -0.00000000000E+00 -0.00000000000E+00 -0.53811754683E+02  0.53811754683E+02  0.00000000000E+00 0. -1.
          6    2    1    2  502    0  0.67432787326E+02 -0.15901760745E+03  0.32468660368E+03  0.40606449735E+03  0.17214297867E+03 0.  0.
         24    2    3    3    0    0  0.19889544915E+02 -0.68132501542E+02  0.26783634813E+03  0.28869966474E+03  0.81077464694E+02 0.  0.
         -6    2    1    2    0  501 -0.67432787326E+02  0.15901760745E+03  0.11166470894E+04  0.11428927051E+04  0.17166605032E+03 0.  0.
        -24    2    5    5    0    0 -0.62863517453E+02  0.86810006210E+02  0.97107997563E+03  0.98026832035E+03  0.80261209921E+02 0.  0.
          5    1    3    3  502    0  0.47543242411E+02 -0.90885105907E+02  0.56850255556E+02  0.11736483260E+03  0.47000000000E+01 0. -1.
        -11    1    4    4    0    0  0.14740990293E+01  0.15983189131E+02  0.16487270779E+02  0.23010115177E+02  0.00000000000E+00 0.  1.
         12    1    4    4    0    0  0.18415445886E+02 -0.84115690673E+02  0.25134907735E+03  0.26568954957E+03  0.00000000000E+00 0. -1.
         -5    1    5    5    0  501 -0.45692698728E+01  0.72207601239E+02  0.14556711377E+03  0.16262438475E+03  0.47000000000E+01 0.  1.
         11    1    6    6    0    0 -0.32137626912E+02  0.13344826186E+02  0.10676647334E+03  0.11229421748E+03  0.00000000000E+00 0. -1.
        -12    1    6    6    0    0 -0.30725890541E+02  0.73465180024E+02  0.86431350229E+03  0.86797410288E+03  0.00000000000E+00 0.  1.
</event>
<event>
12    1  0.1345781E-002  0.1732395E+03  0.7818608E-02  0.1174511E+00
         -1   -1    0    0    0  501 -0.00000000000E+00  0.00000000000E+00  0.45844160045E+02  0.45844160045E+02  0.00000000000E+00 0.  1.
          1   -1    0    0  502    0  0.00000000000E+00 -0.00000000000E+00 -0.67033681629E+03  0.67033681629E+03  0.00000000000E+00 0. -1.
          6    2    1    2  502    0 -0.10417306630E+02 -0.11907913728E+02 -0.36601219031E+03  0.40469841030E+03  0.17194639035E+03 0.  0.
         24    2    3    3    0    0  0.32938482920E+02 -0.58202725028E+02 -0.27449543208E+03  0.29325182633E+03  0.78590015631E+02 0.  0.
         -6    2    1    2    0  501  0.10417306630E+02  0.11907913728E+02 -0.25848046593E+03  0.31148256604E+03  0.17308644946E+03 0.  0.
        -24    2    5    5    0    0 -0.82635629740E+00 -0.55988331208E+02 -0.19527576379E+03  0.21792379090E+03  0.78884590502E+02 0.  0.
          5    1    3    3  502    0 -0.43355789549E+02  0.46294811300E+02 -0.91516758235E+02  0.11144658397E+03  0.47000000000E+01 0. -1.
        -13    1    4    4    0    0 -0.23997324027E+02 -0.47071134152E+01 -0.52648238317E+02  0.58050542418E+02  0.00000000000E+00 0.  1.
         14    1    4    4    0    0  0.56935806947E+02 -0.53495611613E+02 -0.22184719376E+03  0.23520128391E+03  0.00000000000E+00 0. -1.
         -5    1    5    5    0  501  0.11243662927E+02  0.67896244936E+02 -0.63204702143E+02  0.93558775139E+02  0.47000000000E+01 0.  1.
         11    1    6    6    0    0 -0.18415092955E+02 -0.68702025649E+02 -0.11915403203E+03  0.13876875486E+03  0.00000000000E+00 0. -1.
        -12    1    6    6    0    0  0.17588736658E+02  0.12713694440E+02 -0.76121731761E+02  0.79155036036E+02  0.00000000000E+00 0.  1.
</event>
<event>
12    1  0.1345781E-002  0.2018730E+03  0.7818608E-02  0.1148168E+00
          2   -1    0    0  502    0  0.00000000000E+00  0.00000000000E+00  0.15759025125E+03  0.15759025125E+03  0.00000000000E+00 0.  1.
         -2   -1    0    0    0  501 -0.00000000000E+00 -0.00000000000E+00 -0.26742129921E+03  0.26742129921E+03  0.00000000000E+00 0. -1.
          6    2    1    2  502    0 -0.28855718576E+02 -0.99478372873E+02 -0.93075037734E+02  0.22090753464E+03  0.17148929135E+03 0.  0.
         24    2    3    3    0    0 -0.18491667981E+02 -0.11202958962E+03 -0.15031781468E+02  0.14104649010E+03  0.82313954956E+02 0.  0.
         -6    2    1    2    0  501  0.28855718576E+02  0.99478372873E+02 -0.16756010218E+02  0.20410401582E+03  0.17506880428E+03 0.  0.
        -24    2    5    5    0    0 -0.22004908614E+02  0.11219862974E+03  0.22810780924E+02  0.13825396423E+03  0.74303959385E+02 0.  0.
          5    1    3    3  502    0 -0.10364050595E+02  0.12551216745E+02 -0.78043256266E+02  0.79861044541E+02  0.47000000000E+01 0. -1.
        -11    1    4    4    0    0 -0.51402713809E+01 -0.62899682404E+02 -0.48952495509E+02  0.79869513915E+02  0.00000000000E+00 0.  1.
         12    1    4    4    0    0 -0.13351396600E+02 -0.49129907213E+02  0.33920714041E+02  0.61176976184E+02  0.00000000000E+00 0. -1.
         -5    1    5    5    0  501  0.50860627189E+02 -0.12720256870E+02 -0.39566791142E+02  0.65850051589E+02  0.47000000000E+01 0.  1.
         13    1    6    6    0    0  0.20889966883E+02  0.39325741279E+02 -0.13051926350E+02  0.46403204899E+02  0.00000000000E+00 0. -1.
        -14    1    6    6    0    0 -0.42894875497E+02  0.72872888464E+02  0.35862707274E+02  0.91850759333E+02  0.00000000000E+00 0.  1.
</event>
<event>
12    1  0.1345781E-002  0.1928543E+03  0.7818608E-02  0.1155912E+00
         -2   -1    0    0    0  501 -0.00000000000E+00  0.00000000000E+00  0.40902936396E+02  0.40902936396E+02  0.00000000000E+00 0. -1.
          2   -1    0    0  502    0  0.00000000000E+00 -0.00000000000E+00 -0.11991383286E+04  0.11991383286E+04  0.00000000000E+00 0.  1.
          6    2    1    2  502    0  0.59998032930E+02 -0.60721546822E+02 -0.88177785724E+03  0.90242007733E+03  0.17188058716E+03 0.  0.
         24    2    3    3    0    0 -0.32437153156E+01 -0.69394726750E+02 -0.71075694934E+03  0.71981398841E+03  0.90169768132E+02 0.  0.
         -6    2    1    2    0  501 -0.59998032930E+02  0.60721546822E+02 -0.27645753499E+03  0.33762118769E+03  0.17398973396E+03 0.  0.
        -24    2    5    5    0    0  0.34351521702E+02  0.21045111555E+02 -0.10996373041E+03  0.14212608561E+03  0.80528742952E+02 0.  0.
          5    1    3    3  502    0  0.63241748245E+02  0.86731799288E+01 -0.17102090790E+03  0.18260608892E+03  0.47000000000E+01 0. -1.
        -13    1    4    4    0    0 -0.32240774176E+02 -0.36552954452E+02 -0.15856675531E+03  0.16588852247E+03  0.00000000000E+00 0.  1.
         14    1    4    4    0    0  0.28997058860E+02 -0.32841772298E+02 -0.55219019403E+03  0.55392546594E+03  0.00000000000E+00 0. -1.
         -5    1    5    5    0  501 -0.94349554632E+02  0.39676435267E+02 -0.16649380458E+03  0.19549510209E+03  0.47000000000E+01 0.  1.
         11    1    6    6    0    0 -0.14225079036E+02 -0.18771729247E+02 -0.13892238195E+02  0.27344560237E+02  0.00000000000E+00 0. -1.
        -12    1    6    6    0    0  0.48576600738E+02  0.39816840801E+02 -0.96071492211E+02  0.11478152537E+03  0.00000000000E+00 0.  1.
</event>
<event>
12    1  0.1345781E-002  0.2233487E+03  0.7818608E-02  0.1131411E+00
          1   -1    0    0  502    0  0.00000000000E+00  0.00000000000E+00  0.15284740041E+03  0.15284740041E+03  0.00000000000E+00 0. -1.
         -1   -1    0    0    0  501 -0.00000000000E+00 -0.00000000000E+00 -0.49027439446E+03  0.49027439446E+03  0.00000000000E+00 0.  1.
          6    2    1    2  502    0  0.12357532963E+03  0.51190684459E+02  0.18197170744E+02  0.22210721453E+03  0.17637780318E+03 0.  0.
         24    2    3    3    0    0  0.33691984749E+02  0.86731257858E+02 -0.12727622586E+01  0.12339897609E+03  0.81044595445E+02 0.  0.
         -6    2    1    2    0  501 -0.12357532963E+03 -0.51190684459E+02 -0.35562416479E+03  0.42101458034E+03  0.18136532746E+03 0.  0.
        -24    2    5    5    0    0 -0.90610935772E+02 -0.10647830408E+03 -0.25592762869E+03  0.30225069081E+03  0.79426431672E+02 0.  0.
          5    1    3    3  502    0  0.89883344885E+02 -0.35540573398E+02  0.19469933003E+02  0.98708238442E+02  0.47000000000E+01 0. -1.
        -11    1    4    4    0    0  0.17774953081E+02 -0.21127531114E+01 -0.24364694622E+02  0.30233276811E+02  0.00000000000E+00 0.  1.
         12    1    4    4    0    0  0.15917031668E+02  0.88844010969E+02  0.23091932363E+02  0.93165699281E+02  0.00000000000E+00 0. -1.
         -5    1    5    5    0  501 -0.32964393862E+02  0.55287619616E+02 -0.99696536102E+02  0.11876388953E+03  0.47000000000E+01 0.  1.
         13    1    6    6    0    0  0.11380282805E+01 -0.37114275890E+02 -0.26537443608E+02  0.45639900268E+02  0.00000000000E+00 0. -1.
        -14    1    6    6    0    0 -0.91748964053E+02 -0.69364028186E+02 -0.22939018508E+03  0.25661079054E+03  0.00000000000E+00 0.  1.
</event>
<event>
12    1  0.1345781E-002  0.2993973E+03  0.7818608E-02  0.1085542E+00
         -1   -1    0    0    0  501 -0.00000000000E+00  0.00000000000E+00  0.10103168656E+03  0.10103168656E+03  0.00000000000E+00 0. -1.
          1   -1    0    0  502    0  0.00000000000E+00 -0.00000000000E+00 -0.10628128793E+04  0.10628128793E+04  0.00000000000E+00 0.  1.
          6    2    1    2  502    0 -0.22223103815E+03 -0.10650952178E+03 -0.24097324268E+03  0.38233643606E+03  0.16547547887E+03 0.  0.
         24    2    3    3    0    0 -0.45759073907E+02 -0.64580663056E+02 -0.11576656088E+03  0.16188420422E+03  0.80870538964E+02 0.  0.
         -6    2    1    2    0  501  0.22223103815E+03  0.10650952178E+03 -0.72080795005E+03  0.78150812978E+03  0.17452777290E+03 0.  0.
        -24    2    5    5    0    0  0.16478172118E+03  0.12736054882E+02 -0.53532577102E+03  0.56582406488E+03  0.79170503040E+02 0.  0.
          5    1    3    3  502    0 -0.17647196424E+03 -0.41928858727E+02 -0.12520668181E+03  0.22045223185E+03  0.47000000000E+01 0. -1.
        -13    1    4    4    0    0 -0.28901902903E+02 -0.27862403072E+02 -0.11463967496E+03  0.12146558595E+03  0.00000000000E+00 0.  1.
         14    1    4    4    0    0 -0.16857171004E+02 -0.36718259984E+02 -0.11268859178E+01  0.40418618264E+02  0.00000000000E+00 0. -1.
         -5    1    5    5    0  501  0.57449316964E+02  0.93773466902E+02 -0.18548217903E+03  0.21568406490E+03  0.47000000000E+01 0.  1.
         13    1    6    6    0    0  0.13843421239E+03 -0.15442683948E+02 -0.35355755418E+03  0.38000717331E+03  0.00000000000E+00 0. -1.
        -14    1    6    6    0    0  0.26347508798E+02  0.28178738830E+02 -0.18176821684E+03  0.18581689157E+03  0.00000000000E+00 0.  1.
</event>
<event>
12    1  0.1345781E-002  0.1776287E+03  0.7818608E-02  0.1170118E+00
         -1   -1    0    0    0  501 -0.00000000000E+00  0.00000000000E+00  0.32129946450E+02  0.32129946450E+02  0.00000000000E+00 0. -1.
          1   -1    0    0  502    0  0.00000000000E+00 -0.00000000000E+00 -0.11353110656E+04  0.11353110656E+04  0.00000000000E+00 0.  1.
          6    2    1    2  502    0  0.39113484741E+02  0.22735888711E+02 -0.33587060124E+03  0.37973521442E+03  0.17129794794E+03 0.  0.
         24    2    3    3    0    0  0.34487542798E+02 -0.52721580908E+02 -0.19868929220E+03  0.22303157499E+03  0.79351703868E+02 0.  0.
         -6    2    1    2    0  501 -0.39113484741E+02 -0.22735888711E+02 -0.76731051787E+03  0.78770579759E+03  0.17224461501E+03 0.  0.
        -24    2    5    5    0    0 -0.54938920637E+02 -0.53578790789E+02 -0.72196713640E+03  0.73043589910E+03  0.80069250198E+02 0.  0.
          5    1    3    3  502    0  0.46259419429E+01  0.75457469619E+02 -0.13718130904E+03  0.15670363943E+03  0.47000000000E+01 0. -1.
        -11    1    4    4    0    0  0.98717221767E+01  0.14838515194E+02 -0.96183727183E+02  0.97820968134E+02  0.00000000000E+00 0.  1.
         12    1    4    4    0    0  0.24615820621E+02 -0.67560096102E+02 -0.10250556502E+03  0.12521060686E+03  0.00000000000E+00 0. -1.
         -5    1    5    5    0  501  0.15825435896E+02  0.30842902078E+02 -0.45343381462E+02  0.57269898484E+02  0.47000000000E+01 0.  1.
         11    1    6    6    0    0 -0.14153342204E+02 -0.66004126527E+02 -0.39964157902E+03  0.40530266900E+03  0.00000000000E+00 0. -1.
        -12    1    6    6    0    0 -0.40785578432E+02  0.12425335738E+02 -0.32232555738E+03  0.32513323011E+03  0.00000000000E+00 0.  1.
</event>
<event>
12    1  0.1345781E-002  0.1725785E+03  0.7818608E-02  0.1175185E+00
          2   -1    0    0  502    0  0.00000000000E+00  0.00000000000E+00  0.54096998908E+03  0.54096998908E+03  0.00000000000E+00 0. -1.
         -2   -1    0    0    0  501 -0.00000000000E+00 -0.00000000000E+00 -0.13377982331E+03  0.13377982331E+03  0.00000000000E+00 0.  1.
          6    2    1    2  502    0 -0.13340649416E+02  0.47954025821E+01 -0.55006790670E+02  0.18152969372E+03  0.17241320677E+03 0.  0.
         24    2    3    3    0    0 -0.34365545001E+02 -0.44458324282E+02 -0.75770194656E+02  0.12389997231E+03  0.80327750246E+02 0.  0.
         -6    2    1    2    0  501  0.13340649416E+02 -0.47954025821E+01  0.46219695644E+03  0.49322011866E+03  0.17157823318E+03 0.  0.
        -24    2    5    5    0    0 -0.34924530788E+02  0.41386986121E+02  0.35082517625E+03  0.36326588030E+03  0.77143956529E+02 0.  0.
          5    1    3    3  502    0  0.21024895585E+02  0.49253726864E+02  0.20763403986E+02  0.57629721406E+02  0.47000000000E+01 0. -1.
        -13    1    4    4    0    0  0.25771640189E+02 -0.21345952716E+02 -0.29094586053E+02  0.44343230295E+02  0.00000000000E+00 0.  1.
         14    1    4    4    0    0 -0.60137185190E+02 -0.23112371566E+02 -0.46675608603E+02  0.79556742017E+02  0.00000000000E+00 0. -1.
         -5    1    5    5    0  501  0.48265180205E+02 -0.46182388703E+02  0.11137178019E+03  0.12995423837E+03  0.47000000000E+01 0.  1.
         13    1    6    6    0    0 -0.43962964543E+02  0.14706281143E+02  0.31128062175E+03  0.31471358794E+03  0.00000000000E+00 0. -1.
        -14    1    6    6    0    0  0.90384337545E+01  0.26680704978E+02  0.39544554493E+02  0.48552292355E+02  0.00000000000E+00 0.  1.
</event>
<event>
12    1  0.1345781E-002  0.2024738E+03  0.7818608E-02  0.1147668E+00
          1   -1    0    0  502    0  0.00000000000E+00  0.00000000000E+00  0.63305823886E+03  0.63305823886E+03  0.00000000000E+00 0.  1.
         -1   -1    0    0    0  501 -0.00000000000E+00 -0.00000000000E+00 -0.64814045607E+02  0.64814045607E+02  0.00000000000E+00 0. -1.
          6    2    1    2  502    0 -0.64767024200E+02  0.86382360492E+02  0.29411447270E+03  0.35696654651E+03  0.17107049029E+03 0.  0.
         24    2    3    3    0    0  0.30263665489E+02  0.26195357962E+02  0.11924660292E+03  0.14899017974E+03  0.79851331370E+02 0.  0.
         -6    2    1    2    0  501  0.64767024200E+02 -0.86382360492E+02  0.27412972055E+03  0.34090573796E+03  0.17150200831E+03 0.  0.
        -24    2    5    5    0    0  0.33968272647E+02 -0.10578852790E+01  0.21618996714E+03  0.23316561454E+03  0.80455821705E+02 0.  0.
          5    1    3    3  502    0 -0.95030689689E+02  0.60187002530E+02  0.17486786977E+03  0.20797636677E+03  0.47000000000E+01 0. -1.
        -13    1    4    4    0    0 -0.25484455463E+02  0.13374718383E+02  0.22235722676E+02  0.36369876615E+02  0.00000000000E+00 0.  1.
         14    1    4    4    0    0  0.55748120952E+02  0.12820639579E+02  0.97010880248E+02  0.11262030312E+03  0.00000000000E+00 0. -1.
         -5    1    5    5    0  501  0.30798751552E+02 -0.85324475213E+02  0.57939753416E+02  0.10774012342E+03  0.47000000000E+01 0.  1.
         11    1    6    6    0    0 -0.10862412867E+02  0.30474627249E+02  0.73193237919E+02  0.80024652429E+02  0.00000000000E+00 0. -1.
        -12    1    6    6    0    0  0.44830685515E+02 -0.31532512528E+02  0.14299672922E+03  0.15314096211E+03  0.00000000000E+00 0.  1.
</event>
<event>
12    1  0.1345781E-002  0.1786285E+03  0.7818608E-02  0.1169137E+00
          2   -1    0    0  502    0  0.00000000000E+00  0.00000000000E+00  0.22721014953E+04  0.22721014953E+04  0.00000000000E+00 0.  1.
         -2   -1    0    0    0  501 -0.00000000000E+00 -0.00000000000E+00 -0.16028738697E+02  0.16028738697E+02  0.00000000000E+00 0. -1.
          6    2    1    2  502    0  0.10334729633E+01  0.47292646553E+02  0.73045844374E+03  0.75219898580E+03  0.17319386171E+03 0.  0.
         24    2    3    3    0    0  0.23568605436E+02 -0.30429524829E+02  0.24249601886E+03  0.25754962898E+03  0.77756395738E+02 0.  0.
         -6    2    1    2    0  501 -0.10334729633E+01 -0.47292646553E+02  0.15256143128E+04  0.15359312482E+04  0.17131288646E+03 0.  0.
        -24    2    5    5    0    0 -0.15117214942E+02  0.18461420214E+02  0.44784850987E+03  0.45605942006E+03  0.82780146231E+02 0.  0.
          5    1    3    3  502    0 -0.22535132472E+02  0.77722171383E+02  0.48796242488E+03  0.49464935683E+03  0.47000000000E+01 0. -1.
        -11    1    4    4    0    0 -0.28531680482E+02 -0.15875652997E+02  0.93618977513E+02  0.99149413007E+02  0.00000000000E+00 0.  1.
         12    1    4    4    0    0  0.52100285917E+02 -0.14553871833E+02  0.14887704135E+03  0.15840021597E+03  0.00000000000E+00 0. -1.
         -5    1    5    5    0  501  0.14083741979E+02 -0.65754066767E+02  0.10777658030E+04  0.10798718281E+04  0.47000000000E+01 0.  1.
         13    1    6    6    0    0 -0.18954899555E+02 -0.22660020658E+02  0.70251300118E+02  0.76210300627E+02  0.00000000000E+00 0. -1.
        -14    1    6    6    0    0  0.38376846135E+01  0.41121440872E+02  0.37759720975E+03  0.37984911943E+03  0.00000000000E+00 0.  1.
</event>
<event>
12    1  0.1345781E-002  0.1932983E+03  0.7818608E-02  0.1155520E+00
         -2   -1    0    0    0  501 -0.00000000000E+00  0.00000000000E+00  0.27165393516E+02  0.27165393516E+02  0.00000000000E+00 0.  1.
          2   -1    0    0  502    0  0.00000000000E+00 -0.00000000000E+00 -0.18444535956E+04  0.18444535956E+04  0.00000000000E+00 0. -1.
          6    2    1    2  502    0  0.75585420867E+02 -0.42421568941E+02 -0.43933004120E+03  0.48027060046E+03  0.17359786637E+03 0.  0.
         24    2    3    3    0    0  0.10620931089E+03 -0.10479351174E+02 -0.23279544393E+03  0.26899647099E+03  0.82311288216E+02 0.  0.
         -6    2    1    2    0  501 -0.75585420867E+02  0.42421568941E+02 -0.13779581609E+04  0.13913483887E+04  0.17195609934E+03 0.  0.
        -24    2    5    5    0    0 -0.10022685171E+03  0.65842945514E+02 -0.12818044966E+04  0.12892534419E+04  0.69072097837E+02 0.  0.
          5    1    3    3  502    0 -0.30623890026E+02 -0.31942217767E+02 -0.20653459727E+03  0.21127412948E+03  0.47000000000E+01 0. -1.
        -11    1    4    4    0    0  0.79471345277E+02 -0.12028652123E+02 -0.78349133779E+02  0.11224513333E+03  0.00000000000E+00 0.  1.
         12    1    4    4    0    0  0.26737965617E+02  0.15493009497E+01 -0.15444631015E+03  0.15675133766E+03  0.00000000000E+00 0. -1.
         -5    1    5    5    0  501  0.24641430843E+02 -0.23421376573E+02 -0.96153664268E+02  0.10209494672E+03  0.47000000000E+01 0.  1.
         13    1    6    6    0    0 -0.30417299824E+02 -0.12725591135E+02 -0.27047850840E+03  0.27248078153E+03  0.00000000000E+00 0. -1.
        -14    1    6    6    0    0 -0.69809551886E+02  0.78568536649E+02 -0.10113259882E+04  0.10167726604E+04  0.00000000000E+00 0.  1.
</event>
<event>
12    1  0.1345781E-002  0.2076335E+03  0.7818608E-02  0.1143454E+00
         -1   -1    0    0    0  501 -0.00000000000E+00  0.00000000000E+00  0.66036062620E+02  0.66036062620E+02  0.00000000000E+00 0. -1.
          1   -1    0    0  502    0  0.00000000000E+00 -0.00000000000E+00 -0.29776240290E+04  0.29776240290E+04  0.00000000000E+00 0.  1.
          6    2    1    2  502    0  0.10275142508E+03  0.14036886749E+02 -0.12261529064E+03  0.24748678135E+03  0.18830907545E+03 0.  0.
         24    2    3    3    0    0  0.13728509778E+02 -0.68548529349E+01 -0.13308348991E+03  0.15532812776E+03  0.78613936393E+02 0.  0.
         -6    2    1    2    0  501 -0.10275142508E+03 -0.14036886749E+02 -0.27889726758E+04  0.27961733103E+04  0.17164412467E+03 0.  0.
        -24    2    5    5    0    0 -0.51164569712E+01 -0.46535038247E+02 -0.14944639974E+04  0.14975727076E+04  0.84318961406E+02 0.  0.
          5    1    3    3  502    0  0.89022915300E+02  0.20891739684E+02  0.10468199271E+02  0.92158653590E+02  0.47000000000E+01 0. -1.
        -11    1    4    4    0    0 -0.20255312703E+02 -0.30955201149E+02 -0.77379434914E+02  0.85767587809E+02  0.00000000000E+00 0.  1.
         12    1    4    4    0    0  0.33983822481E+02  0.24100348214E+02 -0.55704055000E+02  0.69560539948E+02  0.00000000000E+00 0. -1.
         -5    1    5    5    0  501 -0.97634968107E+02  0.32498151499E+02 -0.12945086784E+04  0.12986006027E+04  0.47000000000E+01 0.  1.
         13    1    6    6    0    0  0.33053588381E+02  0.36883052862E+01 -0.54930094042E+03  0.55030688388E+03  0.00000000000E+00 0. -1.
        -14    1    6    6    0    0 -0.38170045352E+02 -0.50223343533E+02 -0.94516305693E+03  0.94726582372E+03  0.00000000000E+00 0.  1.
</event>
<event>
12    1  0.1345781E-002  0.1770038E+03  0.7818608E-02  0.1170735E+00
         -3   -1    0    0    0  501 -0.00000000000E+00  0.00000000000E+00  0.64765638549E+03  0.64765638549E+03  0.00000000000E+00 0. -1.
          3   -1    0    0  502    0  0.00000000000E+00 -0.00000000000E+00 -0.52107774595E+02  0.52107774595E+02  0.00000000000E+00 0.  1.
          6    2    1    2  502    0  0.33914434130E+02 -0.42579231145E+01  0.20250485624E+03  0.26826779860E+03  0.17260091603E+03 0.  0.
         24    2    3    3    0    0 -0.17616913336E+02 -0.36079901458E+02  0.47650000893E+02  0.10192407524E+03  0.80659032995E+02 0.  0.
         -6    2    1    2    0  501 -0.33914434130E+02  0.42579231145E+01  0.39304375465E+03  0.43149636148E+03  0.17474952975E+03 0.  0.
        -24    2    5    5    0    0  0.28850264306E+02 -0.30640795228E+02  0.13008293225E+03  0.15886508662E+03  0.80903339872E+02 0.  0.
          5    1    3    3  502    0  0.51531347466E+02  0.31821978343E+02  0.15485485535E+03  0.16634372336E+03  0.47000000000E+01 0. -1.
        -11    1    4    4    0    0 -0.19990573348E+01  0.15438142239E+02 -0.13392269569E+02  0.20534978700E+02  0.00000000000E+00 0.  1.
         12    1    4    4    0    0 -0.15617856001E+02 -0.51518043697E+02  0.61042270461E+02  0.81389096539E+02  0.00000000000E+00 0. -1.
         -5    1    5    5    0  501 -0.62764698436E+02  0.34898718342E+02  0.26296082240E+03  0.27263127486E+03  0.47000000000E+01 0.  1.
         13    1    6    6    0    0 -0.17195084816E+02  0.14687702095E+02  0.15819009658E+02  0.27597836894E+02  0.00000000000E+00 0. -1.
        -14    1    6    6    0    0  0.46045349122E+02 -0.45328497323E+02  0.11426392259E+03  0.13126724973E+03  0.00000000000E+00 0.  1.
</event>
<event>
12    1  0.1345781E-002  0.2146946E+03  0.7818608E-02  0.1137901E+00
         -2   -1    0    0    0  501 -0.00000000000E+00  0.00000000000E+00  0.57050065126E+02  0.57050065126E+02  0.00000000000E+00 0.  1.
          2   -1    0    0  502    0  0.00000000000E+00 -0.00000000000E+00 -0.13060309335E+04  0.13060309335E+04  0.00000000000E+00 0. -1.
          6    2    1    2  502    0  0.71860181323E+02  0.10965437454E+03 -0.20689280196E+03  0.29946858523E+03  0.17230448201E+03 0.  0.
         24    2    3    3    0    0  0.70096610146E+02  0.12740396777E+03 -0.10273926149E+03  0.19369425831E+03  0.76267975551E+02 0.  0.
         -6    2    1    2    0  501 -0.71860181323E+02 -0.10965437454E+03 -0.10420880664E+04  0.10636124134E+04  0.16773747418E+03 0.  0.
        -24    2    5    5    0    0 -0.50717037959E+02 -0.85385775857E+02 -0.37928849010E+03  0.40001512154E+03  0.79305674956E+02 0.  0.
          5    1    3    3  502    0  0.17635711767E+01 -0.17749593229E+02 -0.10415354046E+03  0.10577432692E+03  0.47000000000E+01 0. -1.
        -13    1    4    4    0    0  0.39455858324E+02  0.26468988907E+02 -0.67371410878E+02  0.82439548359E+02  0.00000000000E+00 0.  1.
         14    1    4    4    0    0  0.30640751822E+02  0.10093497886E+03 -0.35367850613E+02  0.11125470995E+03  0.00000000000E+00 0. -1.
         -5    1    5    5    0  501 -0.21143143363E+02 -0.24268598683E+02 -0.66279957628E+03  0.66359729182E+03  0.47000000000E+01 0.  1.
         13    1    6    6    0    0 -0.14461191818E+02 -0.28420462455E+02 -0.26765883477E+03  0.26955166589E+03  0.00000000000E+00 0. -1.
        -14    1    6    6    0    0 -0.36255846141E+02 -0.56965313402E+02 -0.11162965533E+03  0.13046345565E+03  0.00000000000E+00 0.  1.
</event>
<event>
12    1  0.1345781E-002  0.1936380E+03  0.7818608E-02  0.1155220E+00
         -2   -1    0    0    0  501 -0.00000000000E+00  0.00000000000E+00  0.17840524353E+02  0.17840524353E+02  0.00000000000E+00 0. -1.
          2   -1    0    0  502    0  0.00000000000E+00 -0.00000000000E+00 -0.21058727688E+04  0.21058727688E+04  0.00000000000E+00 0.  1.
          6    2    1    2  502    0 -0.83030108356E+02 -0.29179320707E+02 -0.10898413130E+04  0.11068662084E+04  0.17220128961E+03 0.  0.
         24    2    3    3    0    0 -0.51301126488E+01 -0.71197602345E+00 -0.84500052124E+03  0.84831659546E+03  0.74755202329E+02 0.  0.
         -6    2    1    2    0  501  0.83030108356E+02  0.29179320707E+02 -0.99819093146E+03  0.10168470848E+04  0.17276407752E+03 0.  0.
        -24    2    5    5    0    0  0.10033332082E+03 -0.13044629122E+02 -0.88925858931E+03  0.89864975709E+03  0.80954367689E+02 0.  0.
          5    1    3    3  502    0 -0.77899995707E+02 -0.28467344683E+02 -0.24484079173E+03  0.25854961292E+03  0.47000000000E+01 0. -1.
        -13    1    4    4    0    0 -0.10601058720E+02  0.98231170404E+00 -0.84157648269E+03  0.84164382229E+03  0.00000000000E+00 0.  1.
         14    1    4    4    0    0  0.54709460715E+01 -0.16942877275E+01 -0.34240385508E+01  0.66727731730E+01  0.00000000000E+00 0. -1.
         -5    1    5    5    0  501 -0.17303212460E+02  0.42223949829E+02 -0.10893234215E+03  0.11819732766E+03  0.47000000000E+01 0.  1.
         11    1    6    6    0    0  0.10104981070E+02 -0.28912571256E+02 -0.11569979949E+03  0.11968496573E+03  0.00000000000E+00 0. -1.
        -12    1    6    6    0    0  0.90228339746E+02  0.15867942134E+02 -0.77355878981E+03  0.77896479136E+03  0.00000000000E+00 0.  1.
</event>
<event>
12    1  0.1345781E-002  0.1796309E+03  0.7818608E-02  0.1168161E+00
          2   -1    0    0  502    0  0.00000000000E+00  0.00000000000E+00  0.33669428582E+03  0.33669428582E+03  0.00000000000E+00 0.  1.
         -2   -1    0    0    0  501 -0.00000000000E+00 -0.00000000000E+00 -0.96154955682E+02  0.96154955682E+02  0.00000000000E+00 0. -1.
          6    2    1    2  502    0 -0.30119076072E+02 -0.40341788366E+02  0.10794652840E+03  0.20976199992E+03  0.17266448675E+03 0.  0.
         24    2    3    3    0    0 -0.79685418957E+02 -0.43881304813E+02  0.64329013438E+02  0.14347528831E+03  0.90396910789E+02 0.  0.
         -6    2    1    2    0  501  0.30119076072E+02  0.40341788366E+02  0.13259280173E+03  0.22308724158E+03  0.17219886078E+03 0.  0.
        -24    2    5    5    0    0 -0.31387098813E+02  0.62191837591E+01  0.99464941647E+01  0.81624990594E+02  0.74430357548E+02 0.  0.
          5    1    3    3  502    0  0.49566342885E+02  0.35395164468E+01  0.43617514961E+02  0.66286711602E+02  0.47000000000E+01 0. -1.
        -13    1    4    4    0    0  0.15514318837E+02  0.50932943995E+00  0.28570417715E+02  0.32514954619E+02  0.00000000000E+00 0.  1.
         14    1    4    4    0    0 -0.95199737795E+02 -0.44390634253E+02  0.35758595723E+02  0.11096033369E+03  0.00000000000E+00 0. -1.
         -5    1    5    5    0  501  0.61506174885E+02  0.34122604607E+02  0.12264630757E+03  0.14146225099E+03  0.47000000000E+01 0.  1.
         13    1    6    6    0    0 -0.52068486399E+02 -0.11197666836E+02  0.11703621989E+02  0.54529714708E+02  0.00000000000E+00 0. -1.
        -14    1    6    6    0    0  0.20681387586E+02  0.17416850595E+02 -0.17571278244E+01  0.27095275886E+02  0.00000000000E+00 0.  1.
</event>
<event>
12    1  0.1345781E-002  0.4741191E+03  0.7818608E-02  0.1020764E+00
          1   -1    0    0  502    0  0.00000000000E+00  0.00000000000E+00  0.14855791167E+04  0.14855791167E+04  0.00000000000E+00 0. -1.
         -1   -1    0    0    0  501 -0.00000000000E+00 -0.00000000000E+00 -0.25211496557E+03  0.25211496557E+03  0.00000000000E+00 0.  1.
          6    2    1    2  502    0  0.41287443314E+03  0.15636600316E+03  0.11660359450E+04  0.12587021188E+04  0.17255600309E+03 0.  0.
         24    2    3    3    0    0  0.11203469873E+03  0.11187789650E+03  0.46307658899E+03  0.49276629660E+03  0.57534844655E+02 0.  0.
         -6    2    1    2    0  501 -0.41287443314E+03 -0.15636600316E+03  0.67428206118E+02  0.47899196352E+03  0.17312167296E+03 0.  0.
        -24    2    5    5    0    0 -0.14470004837E+03 -0.66932965423E+02  0.75589603239E+02  0.19614135403E+03  0.85670979815E+02 0.  0.
          5    1    3    3  502    0  0.30083973441E+03  0.44488106658E+02  0.70295935603E+03  0.76593582216E+03  0.47000000000E+01 0. -1.
        -13    1    4    4    0    0  0.93385896784E+02  0.11589957687E+03  0.39673284410E+03  0.42373409967E+03  0.00000000000E+00 0.  1.
         14    1    4    4    0    0  0.18648801944E+02 -0.40216803637E+01  0.66343744891E+02  0.69032196930E+02  0.00000000000E+00 0. -1.
         -5    1    5    5    0  501 -0.26817438477E+03 -0.89433037738E+02 -0.81613971218E+01  0.28285060949E+03  0.47000000000E+01 0.  1.
         11    1    6    6    0    0 -0.80357110328E+02 -0.75751955527E+02  0.23544218647E+02  0.11291569500E+03  0.00000000000E+00 0. -1.
        -12    1    6    6    0    0 -0.64342938042E+02  0.88189901038E+01  0.52045384592E+02  0.83225659022E+02  0.00000000000E+00 0.  1.
</event>
<event>
12    1  0.1345781E-002  0.2011932E+03  0.7818608E-02  0.1148736E+00
         -4   -1    0    0    0  501 -0.00000000000E+00  0.00000000000E+00  0.37481801828E+03  0.37481801828E+03  0.00000000000E+00 0.  1.
          4   -1    0    0  502    0  0.00000000000E+00 -0.00000000000E+00 -0.19232361411E+03  0.19232361411E+03  0.00000000000E+00 0. -1.
          6    2    1    2  502    0 -0.10287198891E+03 -0.10215498688E+02  0.27895855590E+03  0.34380395441E+03  0.17232608811E+03 0.  0.
         24    2    3    3    0    0 -0.48340038154E+02  0.28245055333E+02  0.25438216125E+03  0.27253659131E+03  0.80195805392E+02 0.  0.
         -6    2    1    2    0  501  0.10287198891E+03  0.10215498688E+02 -0.96464151728E+02  0.22333767798E+03  0.17287967874E+03 0.  0.
        -24    2    5    5    0    0  0.19400796448E+01 -0.75335140583E+01 -0.26178061742E+00  0.82698906762E+02  0.82331785523E+02 0.  0.
          5    1    3    3  502    0 -0.54531950756E+02 -0.38460554021E+02  0.24576394646E+02  0.71267363096E+02  0.47000000000E+01 0. -1.
        -11    1    4    4    0    0  0.10466322253E+01  0.42631035107E+02  0.15327349128E+03  0.15909514047E+03  0.00000000000E+00 0.  1.
         12    1    4    4    0    0 -0.49386670379E+02 -0.14385979774E+02  0.10110866997E+03  0.11344145084E+03  0.00000000000E+00 0. -1.
         -5    1    5    5    0  501  0.10093190927E+03  0.17749012746E+02 -0.96202371111E+02  0.14063877121E+03  0.47000000000E+01 0.  1.
         13    1    6    6    0    0  0.22359894773E+02 -0.21486111674E+02 -0.30594375799E+02  0.43561837882E+02  0.00000000000E+00 0. -1.
        -14    1    6    6    0    0 -0.20419815128E+02  0.13952597615E+02  0.30332595182E+02  0.39137068880E+02  0.00000000000E+00 0.  1.
</event>
<event>
12    1  0.1345781E-002  0.1788304E+03  0.7818608E-02  0.1168940E+00
          2   -1    0    0  502    0  0.00000000000E+00  0.00000000000E+00  0.24437600174E+02  0.24437600174E+02  0.00000000000E+00 0. -1.
         -2   -1    0    0    0  501 -0.00000000000E+00 -0.00000000000E+00 -0.13122947741E+04  0.13122947741E+04  0.00000000000E+00 0.  1.
          6    2    1    2  502    0  0.19565230318E+02 -0.43931379454E+02 -0.60799317169E+03  0.63369012250E+03  0.17203113148E+03 0.  0.
         24    2    3    3    0    0  0.54083275839E+02  0.25496057179E+02 -0.27588087751E+03  0.29261486634E+03  0.77059404152E+02 0.  0.
         -6    2    1    2    0  501 -0.19565230318E+02  0.43931379454E+02 -0.67986400220E+03  0.70304225173E+03  0.17245457923E+03 0.  0.
        -24    2    5    5    0    0 -0.60672598446E+02  0.10246099542E+02 -0.22859070399E+03  0.24862592998E+03  0.75993396756E+02 0.  0.
          5    1    3    3  502    0 -0.34518045521E+02 -0.69427436633E+02 -0.33211229418E+03  0.34107525617E+03  0.47000000000E+01 0. -1.
        -13    1    4    4    0    0  0.27787966154E+02 -0.96824485733E+01 -0.21789646551E+03  0.21987448819E+03  0.00000000000E+00 0.  1.
         14    1    4    4    0    0  0.26295309686E+02  0.35178505752E+02 -0.57984411998E+02  0.72740378148E+02  0.00000000000E+00 0. -1.
         -5    1    5    5    0  501  0.41107368128E+02  0.33685279912E+02 -0.45127329821E+03  0.45441632175E+03  0.47000000000E+01 0.  1.
         13    1    6    6    0    0 -0.71859806147E+02  0.24139175064E+02 -0.20800168011E+03  0.22138480174E+03  0.00000000000E+00 0. -1.
        -14    1    6    6    0    0  0.11187207701E+02 -0.13893075522E+02 -0.20589023880E+02  0.27241128243E+02  0.00000000000E+00 0.  1.
</event>
<event>
12    1  0.1345781E-002  0.2208425E+03  0.7818608E-02  0.1133256E+00
         -2   -1    0    0    0  501 -0.00000000000E+00  0.00000000000E+00  0.18148646817E+02  0.18148646817E+02  0.00000000000E+00 0.  1.
          2   -1    0    0  502    0  0.00000000000E+00 -0.00000000000E+00 -0.27328324625E+04  0.27328324625E+04  0.00000000000E+00 0. -1.
          6    2    1    2  502    0  0.11030687030E+03 -0.85008335950E+02 -0.15320687691E+04  0.15478393010E+04  0.17081500367E+03 0.  0.
         24    2    3    3    0    0  0.11098446438E+02 -0.64266131360E+02 -0.10546001278E+04  0.10597092529E+04  0.80925644213E+02 0.  0.
         -6    2    1    2    0  501 -0.11030687030E+03  0.85008335950E+02 -0.11826150465E+04  0.12031418083E+04  0.17198209160E+03 0.  0.
        -24    2    5    5    0    0 -0.12628105510E+03  0.98730874063E+02 -0.11500658172E+04  0.11640902404E+04  0.82219300451E+02 0.  0.
          5    1    3    3  502    0  0.99208423861E+02 -0.20742204590E+02 -0.47746864130E+03  0.48813004808E+03  0.47000000000E+01 0. -1.
        -11    1    4    4    0    0 -0.71051529839E+01 -0.49586606085E+02 -0.26094215792E+03  0.26570683935E+03  0.00000000000E+00 0.  1.
         12    1    4    4    0    0  0.18203599422E+02 -0.14679525274E+02 -0.79365796991E+03  0.79400241353E+03  0.00000000000E+00 0. -1.
         -5    1    5    5    0  501  0.15974184798E+02 -0.13722538113E+02 -0.32549229301E+02  0.39051567963E+02  0.47000000000E+01 0.  1.
         13    1    6    6    0    0 -0.39981701748E+01  0.37471813056E+02 -0.39005798849E+03  0.39187415904E+03  0.00000000000E+00 0. -1.
        -14    1    6    6    0    0 -0.12228288492E+03  0.61259061007E+02 -0.76000782873E+03  0.77221608131E+03  0.00000000000E+00 0.  1.
</event>
<event>
12    1  0.1345781E-002  0.2095372E+03  0.7818608E-02  0.1141933E+00
         -2   -1    0    0    0  501 -0.00000000000E+00  0.00000000000E+00  0.37514460956E+02  0.37514460956E+02  0.00000000000E+00 0.  1.
          2   -1    0    0  502    0  0.00000000000E+00 -0.00000000000E+00 -0.11717551472E+04  0.11717551472E+04  0.00000000000E+00 0. -1.
          6    2    1    2  502    0  0.42373794286E+02 -0.11527026745E+03 -0.55192943142E+03  0.59101642260E+03  0.17202192160E+03 0.  0.
         24    2    3    3    0    0 -0.15918986223E+02 -0.15843149140E+02 -0.13619192101E+03  0.15957283686E+03  0.80067667736E+02 0.  0.
         -6    2    1    2    0  501 -0.42373794286E+02  0.11527026745E+03 -0.58231125483E+03  0.61825318557E+03  0.16753456646E+03 0.  0.
        -24    2    5    5    0    0 -0.50316499334E+02  0.14668457774E+03 -0.51533767969E+03  0.54370457577E+03  0.77418513025E+02 0.  0.
          5    1    3    3  502    0  0.58292780509E+02 -0.99427118311E+02 -0.41573751041E+03  0.43144358574E+03  0.47000000000E+01 0. -1.
        -13    1    4    4    0    0 -0.53998848364E+01 -0.27057546935E+02 -0.56943847784E+01  0.28172604076E+02  0.00000000000E+00 0.  1.
         14    1    4    4    0    0 -0.10519101387E+02  0.11214397795E+02 -0.13049753623E+03  0.13140023278E+03  0.00000000000E+00 0. -1.
         -5    1    5    5    0  501  0.79427050482E+01 -0.31414310291E+02 -0.66973575143E+02  0.74548609793E+02  0.47000000000E+01 0.  1.
         13    1    6    6    0    0 -0.23585015580E+02  0.49529490200E+02 -0.31180410458E+03  0.31659315057E+03  0.00000000000E+00 0. -1.
        -14    1    6    6    0    0 -0.26731483754E+02  0.97155087541E+02 -0.20353357511E+03  0.22711142520E+03  0.00000000000E+00 0.  1.
</event>
<event>
12    1  0.1345781E-002  0.2520228E+03  0.7818608E-02  0.1112033E+00
         -1   -1    0    0    0  501 -0.00000000000E+00  0.00000000000E+00  0.13133579086E+03  0.13133579086E+03  0.00000000000E+00 0.  1.
          1   -1    0    0  502    0  0.00000000000E+00 -0.00000000000E+00 -0.48805787143E+03  0.48805787143E+03  0.00000000000E+00 0. -1.
          6    2    1    2  502    0  0.12198342312E+03 -0.13977603680E+03 -0.20879800775E+03  0.32829400046E+03  0.17251969950E+03 0.  0.
         24    2    3    3    0    0  0.15582441987E+03 -0.10993060520E+03 -0.15984353293E+03  0.26155125963E+03  0.80579889612E+02 0.  0.
         -6    2    1    2    0  501 -0.12198342312E+03  0.13977603680E+03 -0.14792407282E+03  0.29109966182E+03  0.16864218279E+03 0.  0.
        -24    2    5    5    0    0 -0.38252312881E+02  0.67793537032E+02 -0.14224425168E+03  0.18043471948E+03  0.79145800608E+02 0.  0.
          5    1    3    3  502    0 -0.33840996743E+02 -0.29845431601E+02 -0.48954474822E+02  0.66742740827E+02  0.47000000000E+01 0. -1.
        -11    1    4    4    0    0  0.55369904710E+02 -0.86376817488E+02 -0.65376895835E+02  0.12165902949E+03  0.00000000000E+00 0.  1.
         12    1    4    4    0    0  0.10045451515E+03 -0.23553787710E+02 -0.94466637095E+02  0.13989223014E+03  0.00000000000E+00 0. -1.
         -5    1    5    5    0  501 -0.83731110241E+02  0.71982499768E+02 -0.56798211329E+01  0.11066494234E+03  0.47000000000E+01 0.  1.
         11    1    6    6    0    0 -0.28381611378E+02  0.70459410843E+02 -0.57999747997E+02  0.95572041981E+02  0.00000000000E+00 0. -1.
        -12    1    6    6    0    0 -0.98707015028E+01 -0.26658738111E+01 -0.84244503688E+02  0.84862677503E+02  0.00000000000E+00 0.  1.
</event>
<event>
12    1  0.1345781E-002  0.1890680E+03  0.7818608E-02  0.1159305E+00
          1   -1    0    0  502    0  0.00000000000E+00  0.00000000000E+00  0.16842936077E+03  0.16842936077E+03  0.00000000000E+00 0. -1.
         -1   -1    0    0    0  501 -0.00000000000E+00 -0.00000000000E+00 -0.33122977224E+03  0.33122977224E+03  0.00000000000E+00 0.  1.
          6    2    1    2  502    0  0.83120823376E+02 -0.10659184657E+02  0.67639036568E+02  0.20311297632E+03  0.17221252099E+03 0.  0.
         24    2    3    3    0    0 -0.68318164904E+01 -0.39276166501E+02  0.64731425626E+01  0.90535155864E+02  0.81027291089E+02 0.  0.
         -6    2    1    2    0  501 -0.83120823376E+02  0.10659184657E+02 -0.23043944803E+03  0.29654615669E+03  0.16677707978E+03 0.  0.
        -24    2    5    5    0    0 -0.53982112407E+02 -0.58449952524E+02 -0.12395887238E+03  0.16621833805E+03  0.77021220799E+02 0.  0.
          5    1    3    3  502    0  0.89952639866E+02  0.28616981844E+02  0.61165894005E+02  0.11257782045E+03  0.47000000000E+01 0. -1.
        -13    1    4    4    0    0 -0.39583390987E+02 -0.70645847977E+00  0.58096916958E+00  0.39593957251E+02  0.00000000000E+00 0.  1.
         14    1    4    4    0    0  0.32751574497E+02 -0.38569708021E+02  0.58921733930E+01  0.50941198613E+02  0.00000000000E+00 0. -1.
         -5    1    5    5    0  501 -0.29138710969E+02  0.69109137181E+02 -0.10648057566E+03  0.13032781864E+03  0.47000000000E+01 0.  1.
         11    1    6    6    0    0 -0.21236946094E+02 -0.38950665192E+02 -0.92150989156E+01  0.45310928553E+02  0.00000000000E+00 0. -1.
        -12    1    6    6    0    0 -0.32745166313E+02 -0.19499287332E+02 -0.11474377346E+03  0.12090740950E+03  0.00000000000E+00 0.  1.
</event>
<event>
12    1  0.1345781E-002  0.1946233E+03  0.7818608E-02  0.1154356E+00
         -2   -1    0    0    0  501 -0.00000000000E+00  0.00000000000E+00  0.25295083772E+02  0.25295083772E+02  0.00000000000E+00 0.  1.
          2   -1    0    0  502    0  0.00000000000E+00 -0.00000000000E+00 -0.15024534746E+04  0.15024534746E+04  0.00000000000E+00 0. -1.
          6    2    1    2  502    0 -0.87961804157E+02 -0.25356035688E+02 -0.78293308055E+03  0.80677886126E+03  0.17183630239E+03 0.  0.
         24    2    3    3    0    0 -0.12586770889E+03 -0.18829834967E+02 -0.68814956424E+03  0.70438035603E+03  0.80028872075E+02 0.  0.
         -6    2    1    2    0  501  0.87961804157E+02  0.25356035688E+02 -0.69422531031E+03  0.72096969715E+03  0.17166337754E+03 0.  0.
        -24    2    5    5    0    0  0.12880095304E+03  0.18474868366E+02 -0.54168150825E+03  0.56283403358E+03  0.80201538068E+02 0.  0.
          5    1    3    3  502    0  0.37905904735E+02 -0.65262007210E+01 -0.94783516306E+02  0.10239850523E+03  0.47000000000E+01 0. -1.
        -13    1    4    4    0    0 -0.81311952840E+02 -0.24590126023E+02 -0.25220993189E+03  0.26613184273E+03  0.00000000000E+00 0.  1.
         14    1    4    4    0    0 -0.44555756053E+02  0.57602910568E+01 -0.43593963235E+03  0.43824851330E+03  0.00000000000E+00 0. -1.
         -5    1    5    5    0  501 -0.40839148880E+02  0.68811673219E+01 -0.15254380206E+03  0.15813566357E+03  0.47000000000E+01 0.  1.
         13    1    6    6    0    0  0.96247619404E+02 -0.20140741939E+01 -0.48415217338E+03  0.49363041613E+03  0.00000000000E+00 0. -1.
        -14    1    6    6    0    0  0.32553333633E+02  0.20488942560E+02 -0.57529334873E+02  0.69203617454E+02  0.00000000000E+00 0.  1.
</event>
<event>
12    1  0.1345781E-002  0.2542444E+03  0.7818608E-02  0.1110651E+00
         -1   -1    0    0    0  501 -0.00000000000E+00  0.00000000000E+00  0.10088852770E+03  0.10088852770E+03  0.00000000000E+00 0.  1.
          1   -1    0    0  502    0  0.00000000000E+00 -0.00000000000E+00 -0.65294626284E+03  0.65294626284E+03  0.00000000000E+00 0. -1.
          6    2    1    2  502    0 -0.72667943239E+02  0.16814119797E+03 -0.22902906809E+03  0.34519410193E+03  0.18207844888E+03 0.  0.
         24    2    3    3    0    0  0.18383329451E+02  0.99799711211E+01 -0.74037786464E+02  0.10571613777E+03  0.72503526367E+02 0.  0.
         -6    2    1    2    0  501  0.72667943239E+02 -0.16814119797E+03 -0.32302866705E+03  0.40864068861E+03  0.17055087282E+03 0.  0.
        -24    2    5    5    0    0  0.11088699997E+02 -0.20744750213E+02 -0.16031441990E+03  0.18057111099E+03  0.79698864278E+02 0.  0.
          5    1    3    3  502    0 -0.91051272690E+02  0.15816122685E+03 -0.15499128162E+03  0.23947796415E+03  0.47000000000E+01 0. -1.
        -11    1    4    4    0    0  0.25281378778E+02  0.29770775526E+02 -0.12973556514E+02  0.41155319911E+02  0.00000000000E+00 0.  1.
         12    1    4    4    0    0 -0.68980493271E+01 -0.19790804405E+02 -0.61064229950E+02  0.64560817862E+02  0.00000000000E+00 0. -1.
         -5    1    5    5    0  501  0.61579243242E+02 -0.14739644776E+03 -0.16271424716E+03  0.22806957762E+03  0.47000000000E+01 0.  1.
         13    1    6    6    0    0  0.45103732675E+02 -0.16156976520E+02 -0.80314186155E+02  0.93518784687E+02  0.00000000000E+00 0. -1.
        -14    1    6    6    0    0 -0.34015032678E+02 -0.45877736934E+01 -0.80000233740E+02  0.87052326299E+02  0.00000000000E+00 0.  1.
</event>
<event>
12    1  0.1345781E-002  0.1741899E+03  0.7818608E-02  0.1173548E+00
         -2   -1    0    0    0  501 -0.00000000000E+00  0.00000000000E+00  0.40782023661E+02  0.40782023661E+02  0.00000000000E+00 0. -1.
          2   -1    0    0  502    0  0.00000000000E+00 -0.00000000000E+00 -0.97137033780E+03  0.97137033780E+03  0.00000000000E+00 0.  1.
          6    2    1    2  502    0 -0.78117775132E+01 -0.26675905528E+02 -0.70994374666E+03  0.73097863528E+03  0.17186335855E+03 0.  0.
         24    2    3    3    0    0 -0.45437096520E+02 -0.64569398234E+02 -0.57212151946E+03  0.58309815066E+03  0.80291240819E+02 0.  0.
         -6    2    1    2    0  501  0.78117775132E+01  0.26675905528E+02 -0.22064456748E+03  0.28117372618E+03  0.17205235056E+03 0.  0.
        -24    2    5    5    0    0 -0.61480737193E+02  0.19451749701E+02 -0.11307081058E+03  0.15292457727E+03  0.80266222766E+02 0.  0.
          5    1    3    3  502    0  0.37625319007E+02  0.37893492706E+02 -0.13782222720E+03  0.14788048462E+03  0.47000000000E+01 0. -1.
        -11    1    4    4    0    0 -0.24899508618E+02 -0.55597074133E+02 -0.17417217694E+03  0.18451820344E+03  0.00000000000E+00 0.  1.
         12    1    4    4    0    0 -0.20537587901E+02 -0.89723241008E+01 -0.39794934252E+03  0.39857994722E+03  0.00000000000E+00 0. -1.
         -5    1    5    5    0  501  0.69292514706E+02  0.72241558270E+01 -0.10757375690E+03  0.12824914891E+03  0.47000000000E+01 0.  1.
         13    1    6    6    0    0 -0.46997427321E+02  0.38329421431E+02 -0.11398418863E+03  0.12911350812E+03  0.00000000000E+00 0. -1.
        -14    1    6    6    0    0 -0.14483309872E+02 -0.18877671730E+02  0.91337804848E+00  0.23811069154E+02  0.00000000000E+00 0.  1.
</event>
<event>
12    1  0.1345781E-002  0.3123313E+03  0.7818608E-02  0.1079234E+00
         -1   -1    0    0    0  501 -0.00000000000E+00  0.00000000000E+00  0.19670282050E+03  0.19670282050E+03  0.00000000000E+00 0. -1.
          1   -1    0    0  502    0  0.00000000000E+00 -0.00000000000E+00 -0.61327642013E+03  0.61327642013E+03  0.00000000000E+00 0.  1.
          6    2    1    2  502    0  0.92194055386E+02 -0.24338969031E+03 -0.38528495888E+03  0.49579781747E+03  0.17214148561E+03 0.  0.
         24    2    3    3    0    0  0.42233635251E+02 -0.11398206260E+03 -0.29909835414E+03  0.33241912079E+03  0.79164738841E+02 0.  0.
         -6    2    1    2    0  501 -0.92194055386E+02  0.24338969031E+03 -0.31288640750E+02  0.31418142317E+03  0.17318401319E+03 0.  0.
        -24    2    5    5    0    0 -0.10982225617E+03  0.13882133578E+03  0.26951222655E+02  0.19310596768E+03  0.72327416191E+02 0.  0.
          5    1    3    3  502    0  0.49960420135E+02 -0.12940762772E+03 -0.86186604733E+02  0.16337869667E+03  0.47000000000E+01 0. -1.
        -11    1    4    4    0    0  0.31231117444E+02 -0.11965477185E+02 -0.31991383576E+02  0.46281788688E+02  0.00000000000E+00 0.  1.
         12    1    4    4    0    0  0.11002517807E+02 -0.10201658541E+03 -0.26710697057E+03  0.28613733210E+03  0.00000000000E+00 0. -1.
         -5    1    5    5    0  501  0.17628200785E+02  0.10456835453E+03 -0.58239863405E+02  0.12107545549E+03  0.47000000000E+01 0.  1.
         11    1    6    6    0    0 -0.64760940675E+02  0.12972235743E+03  0.16171938154E+02  0.14588831700E+03  0.00000000000E+00 0. -1.
        -12    1    6    6    0    0 -0.45061315497E+02  0.90989783526E+01  0.10779284501E+02  0.47217650680E+02  0.00000000000E+00 0.  1.
</event>
<event>
12    1  0.1345781E-002  0.1999557E+03  0.7818608E-02  0.1149776E+00
         -2   -1    0    0    0  501 -0.00000000000E+00  0.00000000000E+00  0.90346455388E+02  0.90346455388E+02  0.00000000000E+00 0.  1.
          2   -1    0    0  502    0  0.00000000000E+00 -0.00000000000E+00 -0.45311340003E+03  0.45311340003E+03  0.00000000000E+00 0. -1.
          6    2    1    2  502    0  0.22174638130E+02  0.89060382170E+02 -0.21909320940E+03  0.29403396195E+03  0.17329359516E+03 0.  0.
         24    2    3    3    0    0  0.64938626962E+02  0.46554840769E+02 -0.69724575629E+02  0.13288633229E+03  0.80080474470E+02 0.  0.
         -6    2    1    2    0  501 -0.22174638130E+02 -0.89060382170E+02 -0.14367373524E+03  0.24942589347E+03  0.18206501005E+03 0.  0.
        -24    2    5    5    0    0 -0.29200339859E+02 -0.32867168580E+02  0.25904969374E+01  0.92510778351E+02  0.81354918833E+02 0.  0.
          5    1    3    3  502    0 -0.42763988832E+02  0.42505541401E+02 -0.14936863377E+03  0.16114762966E+03  0.47000000000E+01 0. -1.
        -13    1    4    4    0    0  0.50408782227E+02  0.66859753006E+02 -0.67985440709E+02  0.10785773985E+03  0.00000000000E+00 0.  1.
         14    1    4    4    0    0  0.14529844735E+02 -0.20304912237E+02 -0.17391349201E+01  0.25028592434E+02  0.00000000000E+00 0. -1.
         -5    1    5    5    0  501  0.70257017292E+01 -0.56193213589E+02 -0.14626423217E+03  0.15691511511E+03  0.47000000000E+01 0.  1.
         13    1    6    6    0    0 -0.35453389998E+02  0.14769307337E+02 -0.15161475297E+02  0.41290987331E+02  0.00000000000E+00 0. -1.
        -14    1    6    6    0    0  0.62530501392E+01 -0.47636475918E+02  0.17751972234E+02  0.51219791020E+02  0.00000000000E+00 0.  1.
</event>
<event>
12    1  0.1345781E-002  0.4008728E+03  0.7818608E-02  0.1043478E+00
         -2   -1    0    0    0  501 -0.00000000000E+00  0.00000000000E+00  0.17132168515E+03  0.17132168515E+03  0.00000000000E+00 0. -1.
          2   -1    0    0  502    0  0.00000000000E+00 -0.00000000000E+00 -0.14073245571E+04  0.14073245571E+04  0.00000000000E+00 0.  1.
          6    2    1    2  502    0  0.31718687034E+03  0.17591549729E+03 -0.16261572176E+03  0.43299417532E+03  0.17171578259E+03 0.  0.
         24    2    3    3    0    0  0.10112967057E+03  0.10104487604E+03 -0.22334684163E+02  0.16468990213E+03  0.78655250967E+02 0.  0.
         -6    2    1    2    0  501 -0.31718687034E+03 -0.17591549729E+03 -0.10733871502E+04  0.11456520670E+04  0.16972009716E+03 0.  0.
        -24    2    5    5    0    0 -0.16454448182E+03 -0.14923373730E+03 -0.52152015538E+03  0.57242359150E+03  0.79623493979E+02 0.  0.
          5    1    3    3  502    0  0.21605719977E+03  0.74870621253E+02 -0.14028103760E+03  0.26830427319E+03  0.47000000000E+01 0. -1.
        -13    1    4    4    0    0  0.38863666032E+02  0.82726327734E+02 -0.36221927008E+02  0.98316111772E+02  0.00000000000E+00 0.  1.
         14    1    4    4    0    0  0.62266004535E+02  0.18318548303E+02  0.13887242845E+02  0.66373790359E+02  0.00000000000E+00 0. -1.
         -5    1    5    5    0  501 -0.15264238852E+03 -0.26681759995E+02 -0.55186699485E+03  0.57322847547E+03  0.47000000000E+01 0.  1.
         13    1    6    6    0    0 -0.57783609532E+02 -0.16694450225E+02 -0.87038531179E+02  0.10579865835E+03  0.00000000000E+00 0. -1.
        -14    1    6    6    0    0 -0.10676087229E+03 -0.13253928707E+03 -0.43448162420E+03  0.46662493315E+03  0.00000000000E+00 0.  1.
</event>
<event>
12    1  0.1345781E-002  0.1843356E+03  0.7818608E-02  0.1163672E+00
          2   -1    0    0  502    0  0.00000000000E+00  0.00000000000E+00  0.74873596009E+03  0.74873596009E+03  0.00000000000E+00 0.  1.
         -2   -1    0    0    0  501 -0.00000000000E+00 -0.00000000000E+00 -0.47418393927E+02  0.47418393927E+02  0.00000000000E+00 0. -1.
          6    2    1    2  502    0 -0.15246671008E+02 -0.29324152630E+02  0.44975960979E+03  0.49048929933E+03  0.19288255301E+03 0.  0.
         24    2    3    3    0    0 -0.84902125076E+02 -0.32978754512E+02  0.33456158048E+03  0.35573799376E+03  0.79511634236E+02 0.  0.
         -6    2    1    2    0  501  0.15246671008E+02  0.29324152630E+02  0.25155795637E+03  0.30566505469E+03  0.17046217568E+03 0.  0.
        -24    2    5    5    0    0 -0.36199175060E+02 -0.15444610750E+02  0.75185784616E+02  0.11650863734E+03  0.79827589783E+02 0.  0.
          5    1    3    3  502    0  0.69655454068E+02  0.36546018819E+01  0.11519802931E+03  0.13475130557E+03  0.47000000000E+01 0. -1.
        -11    1    4    4    0    0 -0.42834797507E+02 -0.44114751240E+02  0.27606711106E+03  0.28283207202E+03  0.00000000000E+00 0.  1.
         12    1    4    4    0    0 -0.42067327569E+02  0.11135996728E+02  0.58494469424E+02  0.72905921743E+02  0.00000000000E+00 0. -1.
         -5    1    5    5    0  501  0.51445846068E+02  0.44768763380E+02  0.17637217176E+03  0.18915641734E+03  0.47000000000E+01 0.  1.
         13    1    6    6    0    0 -0.39261351960E+02  0.24288143927E+02  0.55093214856E+02  0.71879273900E+02  0.00000000000E+00 0. -1.
        -14    1    6    6    0    0  0.30621769006E+01 -0.39732754678E+02  0.20092569760E+02  0.44629363442E+02  0.00000000000E+00 0.  1.
</event>
<event>
12    1  0.1345781E-002  0.2591452E+03  0.7818608E-02  0.1107658E+00
         -2   -1    0    0    0  501 -0.00000000000E+00  0.00000000000E+00  0.44615789146E+03  0.44615789146E+03  0.00000000000E+00 0.  1.
          2   -1    0    0  502    0  0.00000000000E+00 -0.00000000000E+00 -0.15671427139E+03  0.15671427139E+03  0.00000000000E+00 0. -1.
          6    2    1    2  502    0 -0.13482206357E+03 -0.13971686202E+03  0.84898550584E+02  0.27287383169E+03  0.17191443737E+03 0.  0.
         24    2    3    3    0    0 -0.95070391304E+02 -0.15949373139E+03  0.40054341493E+02  0.20959339949E+03  0.88591270347E+02 0.  0.
         -6    2    1    2    0  501  0.13482206357E+03  0.13971686202E+03  0.20454506948E+03  0.32999833116E+03  0.17135466951E+03 0.  0.
        -24    2    5    5    0    0  0.91083501990E+02  0.54171794009E+02  0.38295281627E+02  0.13792516179E+03  0.79536369411E+02 0.  0.
          5    1    3    3  502    0 -0.39751672267E+02  0.19776869379E+02  0.44844209092E+02  0.63280432200E+02  0.47000000000E+01 0. -1.
        -13    1    4    4    0    0 -0.17781833344E+02 -0.38299190385E+01  0.30529492857E+02  0.35537470521E+02  0.00000000000E+00 0.  1.
         14    1    4    4    0    0 -0.77288557960E+02 -0.15566381236E+03  0.95248486360E+01  0.17405592897E+03  0.00000000000E+00 0. -1.
         -5    1    5    5    0  501  0.43738561581E+02  0.85545068007E+02  0.16624978785E+03  0.19207316937E+03  0.47000000000E+01 0.  1.
         13    1    6    6    0    0 -0.11894335609E+02 -0.38466658940E+01 -0.27578524691E+01  0.12801476802E+02  0.00000000000E+00 0. -1.
        -14    1    6    6    0    0  0.10297783760E+03  0.58018459903E+02  0.41053134096E+02  0.12512368499E+03  0.00000000000E+00 0.  1.
</event>
<event>
12    1  0.1345781E-002  0.1744825E+03  0.7818608E-02  0.1173252E+00
         -2   -1    0    0    0  501 -0.00000000000E+00  0.00000000000E+00  0.13317894452E+03  0.13317894452E+03  0.00000000000E+00 0.  1.
          2   -1    0    0  502    0  0.00000000000E+00 -0.00000000000E+00 -0.23312590984E+03  0.23312590984E+03  0.00000000000E+00 0. -1.
          6    2    1    2  502    0 -0.33638665998E+02  0.44053767892E+02 -0.73169961588E+02  0.18400676172E+03  0.15947523558E+03 0.  0.
         24    2    3    3    0    0 -0.41827168547E+02 -0.27429894547E+02 -0.25766098767E+02  0.97715500399E+02  0.79890650448E+02 0.  0.
         -6    2    1    2    0  501  0.33638665998E+02 -0.44053767892E+02 -0.26777003723E+02  0.18229809264E+03  0.17159047857E+03 0.  0.
        -24    2    5    5    0    0  0.42133606837E+01 -0.41900035263E+02  0.45066069481E+02  0.10449061020E+03  0.84344363400E+02 0.  0.
          5    1    3    3  502    0  0.81885025493E+01  0.71483662439E+02 -0.47403862821E+02  0.86291261319E+02  0.47000000000E+01 0. -1.
        -11    1    4    4    0    0  0.66136216709E+01 -0.12973443901E+02 -0.42134272681E+02  0.44579672190E+02  0.00000000000E+00 0.  1.
         12    1    4    4    0    0 -0.48440790218E+02 -0.14456450646E+02  0.16368173913E+02  0.53135828209E+02  0.00000000000E+00 0. -1.
         -5    1    5    5    0  501  0.29425305314E+02 -0.21537326295E+01 -0.71843073204E+02  0.77807482445E+02  0.47000000000E+01 0.  1.
         13    1    6    6    0    0 -0.28157188017E+02  0.87789968401E+01  0.25417937921E+00  0.29495128915E+02  0.00000000000E+00 0. -1.
        -14    1    6    6    0    0  0.32370548701E+02 -0.50679032103E+02  0.44811890102E+02  0.74995481281E+02  0.00000000000E+00 0.  1.
</event>
<event>
12    1  0.1345781E-002  0.2355839E+03  0.7818608E-02  0.1122770E+00
          2   -1    0    0  502    0  0.00000000000E+00  0.00000000000E+00  0.25507910978E+03  0.25507910978E+03  0.00000000000E+00 0.  1.
         -2   -1    0    0    0  501 -0.00000000000E+00 -0.00000000000E+00 -0.21990143777E+03  0.21990143777E+03  0.00000000000E+00 0. -1.
          6    2    1    2  502    0  0.28288066157E+02 -0.15655000877E+03  0.41974098512E+02  0.23901296470E+03  0.17337027547E+03 0.  0.
         24    2    3    3    0    0 -0.48345366498E+02 -0.10454201398E+03  0.10253919226E+02  0.14100391259E+03  0.80688619746E+02 0.  0.
         -6    2    1    2    0  501 -0.28288066157E+02  0.15655000877E+03 -0.67964264943E+01  0.23596758284E+03  0.17414473522E+03 0.  0.
        -24    2    5    5    0    0 -0.82043418910E+02  0.12269090584E+03 -0.24398691288E+02  0.16987668690E+03  0.80489823286E+02 0.  0.
          5    1    3    3  502    0  0.76633432655E+02 -0.52007994797E+02  0.31720179286E+02  0.98009052119E+02  0.47000000000E+01 0. -1.
        -11    1    4    4    0    0  0.15887241562E+01 -0.86560279357E+02  0.14419928030E+02  0.87767535748E+02  0.00000000000E+00 0.  1.
         12    1    4    4    0    0 -0.49934090654E+02 -0.17981734620E+02 -0.41660088041E+01  0.53236376837E+02  0.00000000000E+00 0. -1.
         -5    1    5    5    0  501  0.53755352754E+02  0.33859102935E+02  0.17602264793E+02  0.66090895947E+02  0.47000000000E+01 0.  1.
         11    1    6    6    0    0 -0.36418242552E+02  0.85627523035E+02 -0.50146651436E+02  0.10570263829E+03  0.00000000000E+00 0. -1.
        -12    1    6    6    0    0 -0.45625176358E+02  0.37063382804E+02  0.25747960148E+02  0.64174048606E+02  0.00000000000E+00 0.  1.
</event>
<event>
12    1  0.1345781E-002  0.1950349E+03  0.7818608E-02  0.1153997E+00
          2   -1    0    0  502    0  0.00000000000E+00  0.00000000000E+00  0.12707786965E+04  0.12707786965E+04  0.00000000000E+00 0. -1.
         -2   -1    0    0    0  501 -0.00000000000E+00 -0.00000000000E+00 -0.31777776948E+02  0.31777776948E+02  0.00000000000E+00 0.  1.
          6    2    1    2  502    0 -0.62409421634E+02  0.61600131328E+02  0.78020463461E+03  0.80452719586E+03  0.17565655388E+03 0.  0.
         24    2    3    3    0    0  0.86604334154E+01  0.82454532282E+02  0.57157207090E+03  0.58308766240E+03  0.80142603005E+02 0.  0.
         -6    2    1    2    0  501  0.62409421634E+02 -0.61600131328E+02  0.45879628491E+03  0.49802927756E+03  0.17277042041E+03 0.  0.
        -24    2    5    5    0    0  0.14312966614E+02 -0.21660323219E+02  0.85978582299E+02  0.11997691791E+03  0.79549441234E+02 0.  0.
          5    1    3    3  502    0 -0.71069855050E+02 -0.20854400954E+02  0.20863256371E+03  0.22143953346E+03  0.47000000000E+01 0. -1.
        -13    1    4    4    0    0 -0.66181976333E+01  0.33543787128E+02  0.60818943702E+02  0.69770553300E+02  0.00000000000E+00 0.  1.
         14    1    4    4    0    0  0.15278631049E+02  0.48910745154E+02  0.51075312719E+03  0.51331710910E+03  0.00000000000E+00 0. -1.
         -5    1    5    5    0  501  0.48096455020E+02 -0.39939808108E+02  0.37281770261E+03  0.37805235965E+03  0.47000000000E+01 0.  1.
         11    1    6    6    0    0  0.34187264838E+02  0.80160083858E+00  0.83082959973E+02  0.89845366486E+02  0.00000000000E+00 0. -1.
        -12    1    6    6    0    0 -0.19874298224E+02 -0.22461924058E+02  0.28956223254E+01  0.30131551420E+02  0.00000000000E+00 0.  1.
</event>
<event>
12    1  0.1345781E-002  0.2039190E+03  0.7818608E-02  0.1146474E+00
         -2   -1    0    0    0  501 -0.00000000000E+00  0.00000000000E+00  0.25757850142E+03  0.25757850142E+03  0.00000000000E+00 0. -1.
          2   -1    0    0  502    0  0.00000000000E+00 -0.00000000000E+00 -0.17842681061E+03  0.17842681061E+03  0.00000000000E+00 0.  1.
          6    2    1    2  502    0 -0.11163398213E+02  0.10746877977E+03 -0.27171035354E+02  0.20835275921E+03  0.17606375840E+03 0.  0.
         24    2    3    3    0    0  0.50861110750E+02  0.53283771716E+02 -0.54705689554E+02  0.12138551255E+03  0.79471487161E+02 0.  0.
         -6    2    1    2    0  501  0.11163398213E+02 -0.10746877977E+03  0.10632272617E+03  0.22765255282E+03  0.16984405382E+03 0.  0.
        -24    2    5    5    0    0  0.43065220553E+01 -0.37155492062E+02  0.12383287260E+03  0.15471648213E+03  0.84873628314E+02 0.  0.
          5    1    3    3  502    0 -0.62024508963E+02  0.54185008058E+02  0.27534654200E+02  0.86967246664E+02  0.47000000000E+01 0. -1.
        -13    1    4    4    0    0  0.10203070521E+02 -0.21002725942E+02 -0.15784675686E+02  0.28184625801E+02  0.00000000000E+00 0.  1.
         14    1    4    4    0    0  0.40658040230E+02  0.74286497658E+02 -0.38921013868E+02  0.93200886745E+02  0.00000000000E+00 0. -1.
         -5    1    5    5    0  501  0.68568761575E+01 -0.70313287712E+02 -0.17510146434E+02  0.72936070690E+02  0.47000000000E+01 0.  1.
         11    1    6    6    0    0  0.56085224746E+00 -0.55267290983E+02  0.12449211852E+03  0.13620967507E+03  0.00000000000E+00 0. -1.
        -12    1    6    6    0    0  0.37456698078E+01  0.18111798921E+02 -0.65924591944E+00  0.18506807063E+02  0.00000000000E+00 0.  1.
</event>
<event>
12    1  0.1345781E-002  0.2045752E+03  0.7818608E-02  0.1145935E+00
          1   -1    0    0  502    0  0.00000000000E+00  0.00000000000E+00  0.50576858993E+03  0.50576858993E+03  0.00000000000E+00 0.  1.
         -1   -1    0    0    0  501 -0.00000000000E+00 -0.00000000000E+00 -0.82753097146E+02  0.82753097146E+02  0.00000000000E+00 0. -1.
          6    2    1    2  502    0  0.57928306044E+02  0.94646414155E+02  0.20920104422E+03  0.29269934801E+03  0.17202964590E+03 0.  0.
         24    2    3    3    0    0 -0.10218639208E+02  0.78983338119E+02  0.18839719003E+03  0.21959511799E+03  0.79910739856E+02 0.  0.
         -6    2    1    2    0  501 -0.57928306044E+02 -0.94646414155E+02  0.21381444857E+03  0.29582233907E+03  0.17169917158E+03 0.  0.
        -24    2    5    5    0    0 -0.70956869369E+01 -0.11572694540E+03  0.19121498424E+03  0.23614680178E+03  0.75888517760E+02 0.  0.
          5    1    3    3  502    0  0.68146945252E+02  0.15663076036E+02  0.20803854189E+02  0.73104230022E+02  0.47000000000E+01 0. -1.
        -11    1    4    4    0    0  0.30929262769E+02  0.49315827153E+02  0.71746239146E+02  0.92391519821E+02  0.00000000000E+00 0.  1.
         12    1    4    4    0    0 -0.41147901976E+02  0.29667510966E+02  0.11665095089E+03  0.12720359817E+03  0.00000000000E+00 0. -1.
         -5    1    5    5    0  501 -0.50832619107E+02  0.21080531245E+02  0.22599464324E+02  0.59675537288E+02  0.47000000000E+01 0.  1.
         13    1    6    6    0    0  0.10585295428E+02  0.39385138158E+01  0.18517500290E+01  0.11445057821E+02  0.00000000000E+00 0. -1.
        -14    1    6    6    0    0 -0.17680982364E+02 -0.11966545922E+03  0.18936323421E+03  0.22470174396E+03  0.00000000000E+00 0.  1.
</event>
<event>
12    1  0.1345781E-002  0.1831129E+03  0.7818608E-02  0.1164824E+00
         -2   -1    0    0    0  501 -0.00000000000E+00  0.00000000000E+00  0.25115482860E+02  0.25115482860E+02  0.00000000000E+00 0. -1.
          2   -1    0    0  502    0  0.00000000000E+00 -0.00000000000E+00 -0.19104335704E+04  0.19104335704E+04  0.00000000000E+00 0.  1.
          6    2    1    2  502    0  0.62628459530E+02  0.13717048248E+02 -0.14747950074E+04  0.14861544092E+04  0.17182587939E+03 0.  0.
         24    2    3    3    0    0  0.44852202511E+01  0.39370477183E+02 -0.11969018901E+04  0.12010484477E+04  0.91504575583E+02 0.  0.
         -6    2    1    2    0  501 -0.62628459530E+02 -0.13717048248E+02 -0.41052308019E+03  0.44939464410E+03  0.17121876479E+03 0.  0.
        -24    2    5    5    0    0 -0.41625705681E+02  0.83790764168E+01 -0.40858991539E+03  0.41848863302E+03  0.79900617745E+02 0.  0.
          5    1    3    3  502    0  0.58143239279E+02 -0.25653428935E+02 -0.27789311725E+03  0.28510596154E+03  0.47000000000E+01 0. -1.
        -11    1    4    4    0    0  0.46970715064E+02  0.21018480789E+02 -0.74774876925E+03  0.74951734238E+03  0.00000000000E+00 0.  1.
         12    1    4    4    0    0 -0.42485494813E+02  0.18351996394E+02 -0.44915312088E+03  0.45153110529E+03  0.00000000000E+00 0. -1.
         -5    1    5    5    0  501 -0.21002753850E+02 -0.22096124665E+02 -0.19331648063E+01  0.30906011076E+02  0.47000000000E+01 0.  1.
         11    1    6    6    0    0 -0.23447507023E+02  0.24602602486E+02 -0.59291414739E+02  0.68341389336E+02  0.00000000000E+00 0. -1.
        -12    1    6    6    0    0 -0.18178198658E+02 -0.16223526069E+02 -0.34929850065E+03  0.35014724368E+03  0.00000000000E+00 0.  1.
</event>
<event>
12    1  0.1345781E-002  0.2385440E+03  0.7818608E-02  0.1120767E+00
          2   -1    0    0  502    0  0.00000000000E+00  0.00000000000E+00  0.16861698728E+04  0.16861698728E+04  0.00000000000E+00 0.  1.
         -2   -1    0    0    0  501 -0.00000000000E+00 -0.00000000000E+00 -0.41876540589E+02  0.41876540589E+02  0.00000000000E+00 0. -1.
          6    2    1    2  502    0 -0.14512522335E+03  0.83963865162E+02  0.44200386074E+03  0.50235913766E+03  0.16995890435E+03 0.  0.
         24    2    3    3    0    0 -0.61798908572E+02  0.47196787402E+02  0.36927128401E+03  0.38570918926E+03  0.79772524395E+02 0.  0.
         -6    2    1    2    0  501  0.14512522335E+03 -0.83963865162E+02  0.12022894714E+04  0.12256872757E+04  0.16940502822E+03 0.  0.
        -24    2    5    5    0    0  0.40517212334E+02 -0.65151212439E+02  0.34891416503E+03  0.36570573203E+03  0.78187357699E+02 0.  0.
          5    1    3    3  502    0 -0.83326314776E+02  0.36767077760E+02  0.72732576737E+02  0.11664994839E+03  0.47000000000E+01 0. -1.
        -13    1    4    4    0    0 -0.63156773561E+02  0.48134681064E+02  0.18367477743E+03  0.20010534584E+03  0.00000000000E+00 0.  1.
         14    1    4    4    0    0  0.13578649894E+01 -0.93789366209E+00  0.18559650658E+03  0.18560384343E+03  0.00000000000E+00 0. -1.
         -5    1    5    5    0  501  0.10460801101E+03 -0.18812652723E+02  0.85337530639E+03  0.85998154365E+03  0.47000000000E+01 0.  1.
         11    1    6    6    0    0  0.32337123277E+02  0.16170671474E+01  0.19591056712E+03  0.19856801041E+03  0.00000000000E+00 0. -1.
        -12    1    6    6    0    0  0.81800890572E+01 -0.66768279586E+02  0.15300359791E+03  0.16713772162E+03  0.00000000000E+00 0.  1.
</event>
<event>
12    1  0.1345781E-002  0.2034773E+03  0.7818608E-02  0.1146838E+00
         -2   -1    0    0    0  501 -0.00000000000E+00  0.00000000000E+00  0.26478842662E+03  0.26478842662E+03  0.00000000000E+00 0. -1.
          2   -1    0    0  502    0  0.00000000000E+00 -0.00000000000E+00 -0.27581515229E+03  0.27581515229E+03  0.00000000000E+00 0.  1.
          6    2    1    2  502    0  0.22139978531E+02  0.10675611978E+03  0.17238532711E+03  0.26504746434E+03  0.16925250247E+03 0.  0.
         24    2    3    3    0    0  0.48186054207E+02  0.70919630311E+01  0.55967975744E+02  0.10952758813E+03  0.80571002810E+02 0.  0.
         -6    2    1    2    0  501 -0.22139978531E+02 -0.10675611978E+03 -0.18341205277E+03  0.27555611456E+03  0.17436783938E+03 0.  0.
        -24    2    5    5    0    0 -0.52939473344E+02 -0.11855562925E+03 -0.18802039061E+03  0.24192333171E+03  0.79480853541E+02 0.  0.
          5    1    3    3  502    0 -0.26046075676E+02  0.99664156748E+02  0.11641735136E+03  0.15551987621E+03  0.47000000000E+01 0. -1.
        -13    1    4    4    0    0  0.56869559857E+02  0.86918955158E+01  0.71433287480E+02  0.91719193445E+02  0.00000000000E+00 0.  1.
         14    1    4    4    0    0 -0.86835056498E+01 -0.15999324847E+01 -0.15465311735E+02  0.17808394689E+02  0.00000000000E+00 0. -1.
         -5    1    5    5    0  501  0.30799494813E+02  0.11799509468E+02  0.46083378312E+01  0.33632782846E+02  0.47000000000E+01 0.  1.
         13    1    6    6    0    0 -0.19965909532E+02  0.72585581096E+00 -0.62661383169E+02  0.65769395244E+02  0.00000000000E+00 0. -1.
        -14    1    6    6    0    0 -0.32973563812E+02 -0.11928148506E+03 -0.12535900744E+03  0.17615393647E+03  0.00000000000E+00 0.  1.
</event>
<event>
12    1  0.1345781E-002  0.1716644E+03  0.7818608E-02  0.1176123E+00
         -2   -1    0    0    0  501 -0.00000000000E+00  0.00000000000E+00  0.18008244974E+03  0.18008244974E+03  0.00000000000E+00 0. -1.
          2   -1    0    0  502    0  0.00000000000E+00 -0.00000000000E+00 -0.24667080249E+03  0.24667080249E+03  0.00000000000E+00 0.  1.
          6    2    1    2  502    0  0.20274607242E+01 -0.82516586345E+01  0.90681764370E+02  0.19283221063E+03  0.16996728686E+03 0.  0.
         24    2    3    3    0    0 -0.14502233269E+02 -0.41696377672E+02  0.11583276873E+03  0.14759458210E+03  0.80112593734E+02 0.  0.
         -6    2    1    2    0  501 -0.20274607242E+01  0.82516586345E+01 -0.15727011712E+03  0.23392104159E+03  0.17295364550E+03 0.  0.
        -24    2    5    5    0    0 -0.18779964521E+02  0.68561010823E+02 -0.82048388544E+02  0.13595031742E+03  0.81836736686E+02 0.  0.
          5    1    3    3  502    0  0.16529693994E+02  0.33444719037E+02 -0.25151004355E+02  0.45237628530E+02  0.47000000000E+01 0. -1.
        -13    1    4    4    0    0 -0.20619729815E+02 -0.36343831838E+02  0.12042400341E+02  0.43486397601E+02  0.00000000000E+00 0.  1.
         14    1    4    4    0    0  0.61174965459E+01 -0.53525458333E+01  0.10379036838E+03  0.10410818450E+03  0.00000000000E+00 0. -1.
         -5    1    5    5    0  501  0.16752503797E+02 -0.60309352188E+02 -0.75221728580E+02  0.97970724175E+02  0.47000000000E+01 0.  1.
         13    1    6    6    0    0 -0.43932006828E+01  0.52212461335E+02 -0.14024070756E+01  0.52415723561E+02  0.00000000000E+00 0. -1.
        -14    1    6    6    0    0 -0.14386763839E+02  0.16348549488E+02 -0.80645981468E+02  0.83534593858E+02  0.00000000000E+00 0.  1.
</event>
<event>
12    1  0.1345781E-002  0.2217031E+03  0.7818608E-02  0.1132620E+00
          2   -1    0    0  502    0  0.00000000000E+00  0.00000000000E+00  0.83552024414E+03  0.83552024414E+03  0.00000000000E+00 0. -1.
         -2   -1    0    0    0  501 -0.00000000000E+00 -0.00000000000E+00 -0.79703661190E+02  0.79703661190E+02  0.00000000000E+00 0.  1.
          6    2    1    2  502    0 -0.13456649572E+03 -0.37768286881E+02  0.61168236479E+03  0.65050774901E+03  0.17166953971E+03 0.  0.
         24    2    3    3    0    0 -0.13515111212E+03 -0.41959180953E+02  0.61950987217E+03  0.64044468580E+03  0.79690136635E+02 0.  0.
         -6    2    1    2    0  501  0.13456649572E+03  0.37768286881E+02  0.14413421816E+03  0.26471615632E+03  0.17252647712E+03 0.  0.
        -24    2    5    5    0    0  0.37305643984E+01  0.38179124975E+02  0.51431207370E+02  0.10429749181E+03  0.82226729306E+02 0.  0.
          5    1    3    3  502    0  0.58461639732E+00  0.41908940722E+01 -0.78275073797E+01  0.10063063213E+02  0.47000000000E+01 0. -1.
        -13    1    4    4    0    0 -0.41375961477E+01  0.41965161195E+01  0.35989365018E+00  0.59042334695E+01  0.00000000000E+00 0.  1.
         14    1    4    4    0    0 -0.13101351597E+03 -0.46155697073E+02  0.61914997852E+03  0.63454045233E+03  0.00000000000E+00 0. -1.
         -5    1    5    5    0  501  0.13083593132E+03 -0.41083809339E+00  0.92703010787E+02  0.16041866450E+03  0.47000000000E+01 0.  1.
         11    1    6    6    0    0  0.20497833603E+02 -0.13192358715E+01 -0.14844953549E+02  0.25343129475E+02  0.00000000000E+00 0. -1.
        -12    1    6    6    0    0 -0.16767269205E+02  0.39498360846E+02  0.66276160919E+02  0.78954362338E+02  0.00000000000E+00 0.  1.
</event>
<event>
12    1  0.1345781E-002  0.1939948E+03  0.7818608E-02  0.1154907E+00
         -1   -1    0    0    0  501 -0.00000000000E+00  0.00000000000E+00  0.66452591965E+02  0.66452591965E+02  0.00000000000E+00 0. -1.
          1   -1    0    0  502    0  0.00000000000E+00 -0.00000000000E+00 -0.64138654643E+03  0.64138654643E+03  0.00000000000E+00 0.  1.
          6    2    1    2  502    0  0.34907077325E+02 -0.82761520283E+02 -0.40793278240E+03  0.45151376455E+03  0.17142797711E+03 0.  0.
         24    2    3    3    0    0 -0.35342523320E+02 -0.86732174104E+01 -0.14997445448E+03  0.17404543851E+03  0.80468372757E+02 0.  0.
         -6    2    1    2    0  501 -0.34907077325E+02  0.82761520283E+02 -0.16700117207E+03  0.25632537385E+03  0.17246835222E+03 0.  0.
        -24    2    5    5    0    0  0.43720304935E+02  0.26009302897E+02 -0.61701631919E+02  0.11310120489E+03  0.79980261716E+02 0.  0.
          5    1    3    3  502    0  0.70249600645E+02 -0.74088302873E+02 -0.25795832792E+03  0.27746832604E+03  0.47000000000E+01 0. -1.
        -11    1    4    4    0    0 -0.44416949118E+02 -0.77684462672E+00 -0.15482729643E+03  0.16107439454E+03  0.00000000000E+00 0.  1.
         12    1    4    4    0    0  0.90744257978E+01 -0.78963727837E+01  0.48528419484E+01  0.12971043970E+02  0.00000000000E+00 0. -1.
         -5    1    5    5    0  501 -0.78627382260E+02  0.56752217386E+02 -0.10529954015E+03  0.14322416896E+03  0.47000000000E+01 0.  1.
         11    1    6    6    0    0 -0.97193072349E+01  0.27411819439E+02 -0.50809747624E+02  0.58544882199E+02  0.00000000000E+00 0. -1.
        -12    1    6    6    0    0  0.53439612170E+02 -0.14025165416E+01 -0.10891884295E+02  0.54556322686E+02  0.00000000000E+00 0.  1.
</event>
<event>
12    1  0.1345781E-002  0.3243424E+03  0.7818608E-02  0.1073668E+00
         -4   -1    0    0    0  501 -0.00000000000E+00  0.00000000000E+00  0.23438677987E+03  0.23438677987E+03  0.00000000000E+00 0. -1.
          4   -1    0    0  502    0  0.00000000000E+00 -0.00000000000E+00 -0.48441071288E+03  0.48441071288E+03  0.00000000000E+00 0.  1.
          6    2    1    2  502    0  0.26932476959E+03  0.54176418915E+02 -0.27421702205E+02  0.32500620417E+03  0.17148226472E+03 0.  0.
         24    2    3    3    0    0  0.50798203622E+02 -0.20343213420E+01 -0.34386348128E+02  0.99209606216E+02  0.77945680274E+02 0.  0.
         -6    2    1    2    0  501 -0.26932476959E+03 -0.54176418915E+02 -0.22260223081E+03  0.39379128857E+03  0.17334621400E+03 0.  0.
        -24    2    5    5    0    0 -0.25497771354E+03 -0.71371491906E+02 -0.14387257394E+03  0.31180374425E+03  0.80092029192E+02 0.  0.
          5    1    3    3  502    0  0.21852656597E+03  0.56210740257E+02  0.69646459234E+01  0.22579659796E+03  0.47000000000E+01 0. -1.
        -13    1    4    4    0    0  0.23362546685E+02 -0.25985429856E+02  0.14849576564E+02  0.37967895340E+02  0.00000000000E+00 0.  1.
         14    1    4    4    0    0  0.27435656937E+02  0.23951108514E+02 -0.49235924692E+02  0.61241710875E+02  0.00000000000E+00 0. -1.
         -5    1    5    5    0  501 -0.14347056055E+02  0.17195072991E+02 -0.78729656865E+02  0.81987544314E+02  0.47000000000E+01 0.  1.
         11    1    6    6    0    0 -0.15981452196E+03 -0.53124225035E+02 -0.47137193492E+02  0.17488504717E+03  0.00000000000E+00 0. -1.
        -12    1    6    6    0    0 -0.95163191584E+02 -0.18247266871E+02 -0.96735380448E+02  0.13691869708E+03  0.00000000000E+00 0.  1.
</event>
<event>
12    1  0.1345781E-002  0.2953421E+03  0.7818608E-02  0.1087593E+00
          3   -1    0    0  502    0  0.00000000000E+00  0.00000000000E+00  0.12883582663E+03  0.12883582663E+03  0.00000000000E+00 0.  1.
         -3   -1    0    0    0  501 -0.00000000000E+00 -0.00000000000E+00 -0.82658756715E+03  0.82658756715E+03  0.00000000000E+00 0. -1.
          6    2    1    2  502    0  0.78382989741E+01  0.23653747366E+03 -0.55467989763E+03  0.62970913852E+03  0.18125229635E+03 0.  0.
         24    2    3    3    0    0 -0.53289231977E+02  0.67180427670E+02 -0.13992588431E+03  0.17753509500E+03  0.67723738472E+02 0.  0.
         -6    2    1    2    0  501 -0.78382989741E+01 -0.23653747366E+03 -0.14307184289E+03  0.32571425525E+03  0.17207210253E+03 0.  0.
        -24    2    5    5    0    0 -0.41921786494E+02 -0.61209358597E+02 -0.52332392713E+02  0.12532121677E+03  0.86386956675E+02 0.  0.
          5    1    3    3  502    0  0.61127530951E+02  0.16935704599E+03 -0.41475401332E+03  0.45217404352E+03  0.47000000000E+01 0. -1.
        -11    1    4    4    0    0 -0.60012671027E+01  0.42008399009E+02 -0.21531243890E+02  0.47584821714E+02  0.00000000000E+00 0.  1.
         12    1    4    4    0    0 -0.47287964874E+02  0.25172028661E+02 -0.11839464042E+03  0.12995027329E+03  0.00000000000E+00 0. -1.
         -5    1    5    5    0  501  0.34083487520E+02 -0.17532811506E+03 -0.90739450177E+02  0.20039303848E+03  0.47000000000E+01 0.  1.
         11    1    6    6    0    0 -0.50253462633E+01 -0.56683138716E+02 -0.64681517831E+02  0.86150630112E+02  0.00000000000E+00 0. -1.
        -12    1    6    6    0    0 -0.36896440231E+02 -0.45262198811E+01  0.12349125118E+02  0.39170586660E+02  0.00000000000E+00 0.  1.
</event>
<event>
12    1  0.1345781E-002  0.1693824E+03  0.7818608E-02  0.1178493E+00
          2   -1    0    0  502    0  0.00000000000E+00  0.00000000000E+00  0.40184832757E+03  0.40184832757E+03  0.00000000000E+00 0. -1.
         -2   -1    0    0    0  501 -0.00000000000E+00 -0.00000000000E+00 -0.73923278416E+02  0.73923278416E+02  0.00000000000E+00 0.  1.
          6    2    1    2  502    0 -0.15542920960E+02  0.15183211091E+02  0.12417209590E+03  0.21336859569E+03  0.17214916769E+03 0.  0.
         24    2    3    3    0    0  0.96550116835E+01 -0.19617151052E+01 -0.49187310544E+01  0.80645515908E+02  0.79890160496E+02 0.  0.
         -6    2    1    2    0  501  0.15542920960E+02 -0.15183211091E+02  0.20375295326E+03  0.26240301030E+03  0.16391449466E+03 0.  0.
        -24    2    5    5    0    0  0.16394264124E+02  0.49097357622E+02  0.15422630635E+03  0.18111528027E+03  0.79609476541E+02 0.  0.
          5    1    3    3  502    0 -0.25197932644E+02  0.17144926196E+02  0.12909082695E+03  0.13272307978E+03  0.47000000000E+01 0. -1.
        -11    1    4    4    0    0 -0.30160648974E+02 -0.15512909875E+02 -0.15478857509E+02  0.37281498751E+02  0.00000000000E+00 0.  1.
         12    1    4    4    0    0  0.39815660657E+02  0.13551194769E+02  0.10560126455E+02  0.43364017157E+02  0.00000000000E+00 0. -1.
         -5    1    5    5    0  501 -0.85134316408E+00 -0.64280568713E+02  0.49526646906E+02  0.81287730027E+02  0.47000000000E+01 0.  1.
         13    1    6    6    0    0 -0.44105341109E+01  0.21360249048E+01  0.11837700964E+03  0.11847840236E+03  0.00000000000E+00 0. -1.
        -14    1    6    6    0    0  0.20804798235E+02  0.46961332717E+02  0.35849296711E+02  0.62636877914E+02  0.00000000000E+00 0.  1.
</event>
<event>
12    1  0.1345781E-002  0.1936377E+03  0.7818608E-02  0.1155221E+00
         -1   -1    0    0    0  501 -0.00000000000E+00  0.00000000000E+00  0.28370343153E+03  0.28370343153E+03  0.00000000000E+00 0.  1.
          1   -1    0    0  502    0  0.00000000000E+00 -0.00000000000E+00 -0.15285814609E+03  0.15285814609E+03  0.00000000000E+00 0. -1.
          6    2    1    2  502    0  0.38006370154E+02 -0.75669497256E+02  0.14620011849E+03  0.24396554523E+03  0.17599532842E+03 0.  0.
         24    2    3    3    0    0  0.86525459844E+02 -0.81398830890E+02  0.12871467469E+03  0.19186220491E+03  0.78302064597E+02 0.  0.
         -6    2    1    2    0  501 -0.38006370154E+02  0.75669497256E+02 -0.15354833049E+02  0.19259603239E+03  0.17229945968E+03 0.  0.
        -24    2    5    5    0    0  0.33565713120E+02  0.77355530469E+02 -0.31332413633E+02  0.11909243456E+03  0.78043274116E+02 0.  0.
          5    1    3    3  502    0 -0.48519089690E+02  0.57293336345E+01  0.17485443807E+02  0.52103340328E+02  0.47000000000E+01 0. -1.
        -11    1    4    4    0    0  0.16491475392E+02 -0.65911042477E+02  0.80965470996E+02  0.10569598750E+03  0.00000000000E+00 0.  1.
         12    1    4    4    0    0  0.70033984451E+02 -0.15487788413E+02  0.47749203691E+02  0.86166217401E+02  0.00000000000E+00 0. -1.
         -5    1    5    5    0  501 -0.71572083274E+02 -0.16860332138E+01  0.15977580585E+02  0.73503597827E+02  0.47000000000E+01 0.  1.
         13    1    6    6    0    0  0.78549075934E+01  0.61573951095E+02 -0.53265569252E+02  0.81794082271E+02  0.00000000000E+00 0. -1.
        -14    1    6    6    0    0  0.25710805527E+02  0.15781579374E+02  0.21933155618E+02  0.37298352293E+02  0.00000000000E+00 0.  1.
</event>
<event>
12    1  0.1345781E-002  0.2343315E+03  0.7818608E-02  0.1123628E+00
         -2   -1    0    0    0  501 -0.00000000000E+00  0.00000000000E+00  0.83052277251E+02  0.83052277251E+02  0.00000000000E+00 0. -1.
          2   -1    0    0  502    0  0.00000000000E+00 -0.00000000000E+00 -0.69577732578E+03  0.69577732578E+03  0.00000000000E+00 0.  1.
          6    2    1    2  502    0 -0.94276355838E+02 -0.13046229921E+03 -0.21996914704E+03  0.32166941985E+03  0.17081085220E+03 0.  0.
         24    2    3    3    0    0 -0.19694366679E+02 -0.24623470610E+02 -0.15105301399E+03  0.17491842619E+03  0.82372686003E+02 0.  0.
         -6    2    1    2    0  501  0.94276355838E+02  0.13046229921E+03 -0.39275590149E+03  0.45716018318E+03  0.16979338075E+03 0.  0.
        -24    2    5    5    0    0  0.38895481837E+02  0.96725866356E+02 -0.36600115161E+03  0.38685303740E+03  0.69495883594E+02 0.  0.
          5    1    3    3  502    0 -0.74581989158E+02 -0.10583882860E+03 -0.68916133044E+02  0.14675099366E+03  0.47000000000E+01 0. -1.
        -13    1    4    4    0    0 -0.43526214843E+02 -0.17851435057E+02 -0.14017746068E+03  0.14786117000E+03  0.00000000000E+00 0.  1.
         14    1    4    4    0    0  0.23831848164E+02 -0.67720355530E+01 -0.10875553319E+02  0.27057256188E+02  0.00000000000E+00 0. -1.
         -5    1    5    5    0  501  0.55380874000E+02  0.33736432856E+02 -0.26754749880E+02  0.70307145782E+02  0.47000000000E+01 0.  1.
         13    1    6    6    0    0  0.38368279266E+02  0.48339194276E+02 -0.10831917516E+03  0.12466694135E+03  0.00000000000E+00 0. -1.
        -14    1    6    6    0    0  0.52720257086E+00  0.48386672080E+02 -0.25768197645E+03  0.26218609605E+03  0.00000000000E+00 0.  1.
</event>
<event>
12    1  0.1345781E-002  0.2482227E+03  0.7818608E-02  0.1114433E+00
          2   -1    0    0  502    0  0.00000000000E+00  0.00000000000E+00  0.10504097428E+04  0.10504097428E+04  0.00000000000E+00 0.  1.
         -2   -1    0    0    0  501 -0.00000000000E+00 -0.00000000000E+00 -0.19406030193E+03  0.19406030193E+03  0.00000000000E+00 0. -1.
          6    2    1    2  502    0 -0.22429433978E+02 -0.17575413047E+03 -0.92192675802E+02  0.26368698900E+03  0.17215906834E+03 0.  0.
         24    2    3    3    0    0  0.13060812438E+02 -0.19207918591E+03 -0.71051306533E+02  0.21902030656E+03  0.76528478651E+02 0.  0.
         -6    2    1    2    0  501  0.22429433978E+02  0.17575413047E+03  0.94854211665E+03  0.98078305572E+03  0.17552965969E+03 0.  0.
        -24    2    5    5    0    0 -0.53986716033E+02  0.11510898884E+03  0.62620894412E+03  0.64397743625E+03  0.80029069030E+02 0.  0.
          5    1    3    3  502    0 -0.35490246416E+02  0.16325055443E+02 -0.21141369270E+02  0.44666682443E+02  0.47000000000E+01 0. -1.
        -13    1    4    4    0    0  0.39227821169E+02 -0.64376154660E+02 -0.13769671836E+02  0.76633642123E+02  0.00000000000E+00 0.  1.
         14    1    4    4    0    0 -0.26167008731E+02 -0.12770303125E+03 -0.57281634696E+02  0.14238666444E+03  0.00000000000E+00 0. -1.
         -5    1    5    5    0  501  0.76416150011E+02  0.60645141624E+02  0.32233317254E+03  0.33680561946E+03  0.47000000000E+01 0.  1.
         13    1    6    6    0    0 -0.20187140585E+02 -0.63585360600E+01  0.53081584652E+02  0.57145483242E+02  0.00000000000E+00 0. -1.
        -14    1    6    6    0    0 -0.33799575448E+02  0.12146752490E+03  0.57312735947E+03  0.58683195301E+03  0.00000000000E+00 0.  1.
</event>
<event>
12    1  0.1345781E-002  0.3721101E+03  0.7818608E-02  0.1053889E+00
         -2   -1    0    0    0  501 -0.00000000000E+00  0.00000000000E+00  0.31265081646E+03  0.31265081646E+03  0.00000000000E+00 0.  1.
          2   -1    0    0  502    0  0.00000000000E+00 -0.00000000000E+00 -0.92719815187E+03  0.92719815187E+03  0.00000000000E+00 0. -1.
          6    2    1    2  502    0 -0.90839827649E+02 -0.31694267096E+03 -0.75523044489E+03  0.84183001265E+03  0.17204712831E+03 0.  0.
         24    2    3    3    0    0 -0.11938987972E+03 -0.27880306579E+03 -0.56708050458E+03  0.64768515696E+03  0.77010849853E+02 0.  0.
         -6    2    1    2    0  501  0.90839827649E+02  0.31694267096E+03  0.14068310948E+03  0.39801895568E+03  0.17298214021E+03 0.  0.
        -24    2    5    5    0    0  0.11116369050E+03  0.29698592212E+03  0.89997076140E+02  0.33968804449E+03  0.82039562600E+02 0.  0.
          5    1    3    3  502    0  0.28550052076E+02 -0.38139605171E+02 -0.18814994030E+03  0.19414485569E+03  0.47000000000E+01 0. -1.
        -13    1    4    4    0    0 -0.31303111709E+02 -0.16849621723E+03 -0.32662252718E+03  0.36885381289E+03  0.00000000000E+00 0.  1.
         14    1    4    4    0    0 -0.88086768015E+02 -0.11030684856E+03 -0.24045797740E+03  0.27883134407E+03  0.00000000000E+00 0. -1.
         -5    1    5    5    0  501 -0.20323862851E+02  0.19956748835E+02  0.50686033335E+02  0.58330911192E+02  0.47000000000E+01 0.  1.
         13    1    6    6    0    0  0.82193379230E+02  0.23441181673E+03  0.10404947227E+03  0.26931569596E+03  0.00000000000E+00 0. -1.
        -14    1    6    6    0    0  0.28970311269E+02  0.62574105394E+02 -0.14052396126E+02  0.70372348531E+02  0.00000000000E+00 0.  1.
</event>
<event>
12    1  0.1345781E-002  0.2035244E+03  0.7818608E-02  0.1146799E+00
         -2   -1    0    0    0  501 -0.00000000000E+00  0.00000000000E+00  0.44907627269E+02  0.44907627269E+02  0.00000000000E+00 0. -1.
          2   -1    0    0  502    0  0.00000000000E+00 -0.00000000000E+00 -0.10348035267E+04  0.10348035267E+04  0.00000000000E+00 0.  1.
          6    2    1    2  502    0 -0.10727331278E+03  0.31105987099E+02 -0.67036540446E+03  0.70024738800E+03  0.16876457812E+03 0.  0.
         24    2    3    3    0    0 -0.50126914552E+02  0.70821102120E+02 -0.53899261099E+03  0.55150633093E+03  0.78216764762E+02 0.  0.
         -6    2    1    2    0  501  0.10727331278E+03 -0.31105987099E+02 -0.31953049501E+03  0.37946376601E+03  0.17151637358E+03 0.  0.
        -24    2    5    5    0    0  0.79058218700E+02  0.42611566436E+02 -0.14826379288E+03  0.19082458002E+03  0.79786718964E+02 0.  0.
          5    1    3    3  502    0 -0.57146398229E+02 -0.39715115021E+02 -0.13137279347E+03  0.14874105706E+03  0.47000000000E+01 0. -1.
        -11    1    4    4    0    0 -0.14933285175E+02  0.69407872490E+02 -0.23528321156E+03  0.24576135866E+03  0.00000000000E+00 0.  1.
         12    1    4    4    0    0 -0.35193629378E+02  0.14132296302E+01 -0.30370939943E+03  0.30574497227E+03  0.00000000000E+00 0. -1.
         -5    1    5    5    0  501  0.28215094081E+02 -0.73717553535E+02 -0.17126670213E+03  0.18863918599E+03  0.47000000000E+01 0.  1.
         13    1    6    6    0    0  0.24745540021E+02  0.15103006220E+02  0.16323617666E+01  0.29036307492E+02  0.00000000000E+00 0. -1.
        -14    1    6    6    0    0  0.54312678679E+02  0.27508560216E+02 -0.14989615464E+03  0.16178827253E+03  0.00000000000E+00 0.  1.
</event>
<event>
12    1  0.1345781E-002  0.2062106E+03  0.7818608E-02  0.1144602E+00
          1   -1    0    0  502    0  0.00000000000E+00  0.00000000000E+00  0.69889975816E+02  0.69889975816E+02  0.00000000000E+00 0. -1.
         -1   -1    0    0    0  501 -0.00000000000E+00 -0.00000000000E+00 -0.61012586623E+03  0.61012586623E+03  0.00000000000E+00 0.  1.
          6    2    1    2  502    0  0.38663202240E+02  0.11614649489E+03 -0.29281049150E+03  0.36139388365E+03  0.17286614395E+03 0.  0.
         24    2    3    3    0    0 -0.41323821952E+02  0.31571901223E+02 -0.12057369809E+03  0.15345545782E+03  0.79411067585E+02 0.  0.
         -6    2    1    2    0  501 -0.38663202240E+02 -0.11614649489E+03 -0.24742539892E+03  0.31862195840E+03  0.15910931105E+03 0.  0.
        -24    2    5    5    0    0 -0.49482717849E+02 -0.31037716275E+02 -0.70960808233E+02  0.12235069744E+03  0.80761238602E+02 0.  0.
          5    1    3    3  502    0  0.79987024192E+02  0.84574593669E+02 -0.17223679341E+03  0.20793842583E+03  0.47000000000E+01 0. -1.
        -11    1    4    4    0    0 -0.23315811741E+02  0.36426254397E+02 -0.14291757323E+02  0.45549461181E+02  0.00000000000E+00 0.  1.
         12    1    4    4    0    0 -0.18008010211E+02 -0.48543531741E+01 -0.10628194077E+03  0.10790599664E+03  0.00000000000E+00 0. -1.
         -5    1    5    5    0  501  0.10819515609E+02 -0.85108778616E+02 -0.17646459068E+03  0.19627126096E+03  0.47000000000E+01 0.  1.
         13    1    6    6    0    0 -0.58725981166E+02 -0.15066626954E+02 -0.81130189080E+02  0.10128105298E+03  0.00000000000E+00 0. -1.
        -14    1    6    6    0    0  0.92432633166E+01 -0.15971089321E+02  0.10169380847E+02  0.21069644460E+02  0.00000000000E+00 0.  1.
</event>
<event>
12    1  0.1345781E-002  0.2042402E+03  0.7818608E-02  0.1146210E+00
          2   -1    0    0  502    0  0.00000000000E+00  0.00000000000E+00  0.17115404172E+03  0.17115404172E+03  0.00000000000E+00 0. -1.
         -2   -1    0    0    0  501 -0.00000000000E+00 -0.00000000000E+00 -0.24469029336E+03  0.24469029336E+03  0.00000000000E+00 0.  1.
          6    2    1    2  502    0 -0.79901625688E+01 -0.11624815951E+03 -0.48325048509E+02  0.20574846121E+03  0.16254119998E+03 0.  0.
         24    2    3    3    0    0  0.14519804453E+02 -0.87484004514E+02 -0.90779320272E+02  0.14954765678E+03  0.79115996436E+02 0.  0.
         -6    2    1    2    0  501  0.79901625688E+01  0.11624815951E+03 -0.25211203128E+02  0.21009587387E+03  0.17299478075E+03 0.  0.
        -24    2    5    5    0    0  0.25025398104E+02  0.14546758927E+03 -0.30369176172E+00  0.16782947531E+03  0.79872088218E+02 0.  0.
          5    1    3    3  502    0 -0.22509967021E+02 -0.28764154994E+02  0.42454271763E+02  0.56200804432E+02  0.47000000000E+01 0. -1.
        -13    1    4    4    0    0 -0.20249382209E+02 -0.18144105244E+02 -0.60408352843E+02  0.66245113994E+02  0.00000000000E+00 0.  1.
         14    1    4    4    0    0  0.34769186661E+02 -0.69339899270E+02 -0.30370967430E+02  0.83302542785E+02  0.00000000000E+00 0. -1.
         -5    1    5    5    0  501 -0.17035235536E+02 -0.29219429758E+02 -0.24907511366E+02  0.42266398564E+02  0.47000000000E+01 0.  1.
         11    1    6    6    0    0 -0.58517816101E+01  0.53313601329E+02  0.35429569226E+02  0.64279373132E+02  0.00000000000E+00 0. -1.
        -12    1    6    6    0    0  0.30877179714E+02  0.92153987937E+02 -0.35733260988E+02  0.10355010218E+03  0.00000000000E+00 0.  1.
</event>
<event>
12    1  0.1345781E-002  0.1835672E+03  0.7818608E-02  0.1164395E+00
         -2   -1    0    0    0  501 -0.00000000000E+00  0.00000000000E+00  0.12022498040E+03  0.12022498040E+03  0.00000000000E+00 0. -1.
          2   -1    0    0  502    0  0.00000000000E+00 -0.00000000000E+00 -0.28887572304E+03  0.28887572304E+03  0.00000000000E+00 0.  1.
          6    2    1    2  502    0 -0.28067147508E+02  0.59677873186E+02 -0.11958383053E+03  0.21904224188E+03  0.17126003003E+03 0.  0.
         24    2    3    3    0    0 -0.52266045438E+02 -0.17697883203E+02 -0.36913839337E+02  0.10315862880E+03  0.78956422063E+02 0.  0.
         -6    2    1    2    0  501  0.28067147508E+02 -0.59677873186E+02 -0.49066912108E+02  0.19005846155E+03  0.17136348394E+03 0.  0.
        -24    2    5    5    0    0  0.84332855047E+02 -0.33990253746E+02 -0.24372010306E+02  0.12329311266E+03  0.79623042859E+02 0.  0.
          5    1    3    3  502    0  0.24198897930E+02  0.77375756390E+02 -0.82669991194E+02  0.11588361309E+03  0.47000000000E+01 0. -1.
        -13    1    4    4    0    0 -0.50466321966E+02 -0.27532720064E+02 -0.56853280373E+02  0.80852927072E+02  0.00000000000E+00 0.  1.
         14    1    4    4    0    0 -0.17997234727E+01  0.98348368609E+01  0.19939441036E+02  0.22305701726E+02  0.00000000000E+00 0. -1.
         -5    1    5    5    0  501 -0.56265707538E+02 -0.25687619440E+02 -0.24694901803E+02  0.66765348889E+02  0.47000000000E+01 0.  1.
         13    1    6    6    0    0  0.26790384533E+02 -0.87797971963E+01  0.29303151589E+02  0.40663057378E+02  0.00000000000E+00 0. -1.
        -14    1    6    6    0    0  0.57542470513E+02 -0.25210456550E+02 -0.53675161895E+02  0.82630055286E+02  0.00000000000E+00 0.  1.
</event>
<event>
12    1  0.1345781E-002  0.2099232E+03  0.7818608E-02  0.1141627E+00
          2   -1    0    0  502    0  0.00000000000E+00  0.00000000000E+00  0.35776064556E+03  0.35776064556E+03  0.00000000000E+00 0.  1.
         -2   -1    0    0    0  501 -0.00000000000E+00 -0.00000000000E+00 -0.18490306070E+03  0.18490306070E+03  0.00000000000E+00 0. -1.
          6    2    1    2  502    0 -0.11981598143E+03  0.12478803424E+01 -0.70238687064E+02  0.22171627974E+03  0.17282132082E+03 0.  0.
         24    2    3    3    0    0 -0.74398986512E+02  0.55919874476E+02 -0.54241128510E+00  0.12205991403E+03  0.78968897973E+02 0.  0.
         -6    2    1    2    0  501  0.11981598143E+03 -0.12478803424E+01  0.24309627192E+03  0.32094742652E+03  0.17191284581E+03 0.  0.
        -24    2    5    5    0    0  0.10970357849E+03 -0.60801034445E+02  0.16335392458E+03  0.22079868306E+03  0.79598447490E+02 0.  0.
          5    1    3    3  502    0 -0.45416994917E+02 -0.54671994133E+02 -0.69696275778E+02  0.99656365713E+02  0.47000000000E+01 0. -1.
        -11    1    4    4    0    0 -0.14955110344E+02  0.10036783607E+02 -0.35058948395E+02  0.39414746138E+02  0.00000000000E+00 0.  1.
         12    1    4    4    0    0 -0.59443876168E+02  0.45883090868E+02  0.34516537110E+02  0.82645167890E+02  0.00000000000E+00 0. -1.
         -5    1    5    5    0  501  0.10112402943E+02  0.59553154102E+02  0.79742347346E+02  0.10014874346E+03  0.47000000000E+01 0.  1.
         13    1    6    6    0    0  0.10036908803E+03 -0.32690716275E+02  0.80326416590E+02  0.13264603260E+03  0.00000000000E+00 0. -1.
        -14    1    6    6    0    0  0.93344904544E+01 -0.28110318170E+02  0.83027507988E+02  0.88152650456E+02  0.00000000000E+00 0.  1.
</event>
<event>
12    1  0.1345781E-002  0.1763753E+03  0.7818608E-02  0.1171358E+00
          1   -1    0    0  502    0  0.00000000000E+00  0.00000000000E+00  0.21694324697E+03  0.21694324697E+03  0.00000000000E+00 0.  1.
         -1   -1    0    0    0  501 -0.00000000000E+00 -0.00000000000E+00 -0.17174119032E+03  0.17174119032E+03  0.00000000000E+00 0. -1.
          6    2    1    2  502    0 -0.27609282591E+02  0.24700101970E+02  0.10155391110E+03  0.20349228373E+03  0.17240517728E+03 0.  0.
         24    2    3    3    0    0 -0.38027299995E+02 -0.41052598802E+02  0.95988300469E+02  0.13652200101E+03  0.79329134118E+02 0.  0.
         -6    2    1    2    0  501  0.27609282591E+02 -0.24700101970E+02 -0.56351854445E+02  0.18519215356E+03  0.17247676574E+03 0.  0.
        -24    2    5    5    0    0 -0.49213944009E+02  0.60908454099E+01 -0.22413408082E+02  0.95616494328E+02  0.78619605970E+02 0.  0.
          5    1    3    3  502    0  0.10418017404E+02  0.65752700771E+02  0.55656106310E+01  0.66970282716E+02  0.47000000000E+01 0. -1.
        -13    1    4    4    0    0 -0.28620687240E+02 -0.85293877426E+01  0.98153795954E+02  0.10259659767E+03  0.00000000000E+00 0.  1.
         14    1    4    4    0    0 -0.94066127546E+01 -0.32523211059E+02 -0.21654954853E+01  0.33925403340E+02  0.00000000000E+00 0. -1.
         -5    1    5    5    0  501  0.76823226600E+02 -0.30790947380E+02 -0.33938446363E+02  0.89575659234E+02  0.47000000000E+01 0.  1.
         13    1    6    6    0    0 -0.49844905030E+02 -0.14343621919E+02 -0.42424866751E+02  0.67008382805E+02  0.00000000000E+00 0. -1.
        -14    1    6    6    0    0  0.63096102144E+00  0.20434467329E+02  0.20011458669E+02  0.28608111523E+02  0.00000000000E+00 0.  1.
</event>
<event>
12    1  0.1345781E-002  0.2233772E+03  0.7818608E-02  0.1131390E+00
         -1   -1    0    0    0  501 -0.00000000000E+00  0.00000000000E+00  0.78462947047E+03  0.78462947047E+03  0.00000000000E+00 0.  1.
          1   -1    0    0  502    0  0.00000000000E+00 -0.00000000000E+00 -0.10492555111E+03  0.10492555111E+03  0.00000000000E+00 0. -1.
          6    2    1    2  502    0  0.12213854269E+03  0.72408675965E+02  0.61923258509E+03  0.65837376763E+03  0.17276048016E+03 0.  0.
         24    2    3    3    0    0  0.97599870451E+02  0.83018893496E+02  0.60836288158E+03  0.62913400694E+03  0.96365614272E+02 0.  0.
         -6    2    1    2    0  501 -0.12213854269E+03 -0.72408675965E+02  0.60471334262E+02  0.23118125395E+03  0.17212539018E+03 0.  0.
        -24    2    5    5    0    0 -0.11529298932E+03 -0.47803709240E+02 -0.17193098805E+02  0.14929034998E+03  0.80089562042E+02 0.  0.
          5    1    3    3  502    0  0.24538672235E+02 -0.10610217531E+02  0.10869703513E+02  0.29239760696E+02  0.47000000000E+01 0. -1.
        -11    1    4    4    0    0  0.12609528739E+01 -0.15614526373E+02  0.23523803711E+02  0.28262568479E+02  0.00000000000E+00 0.  1.
         12    1    4    4    0    0  0.96338917577E+02  0.98633419869E+02  0.58483907787E+03  0.60087143846E+03  0.00000000000E+00 0. -1.
         -5    1    5    5    0  501 -0.68455533633E+01 -0.24604966725E+02  0.77664433067E+02  0.81890903964E+02  0.47000000000E+01 0.  1.
         13    1    6    6    0    0 -0.21660313046E+02  0.21529505583E+02  0.42217164974E+01  0.30830369153E+02  0.00000000000E+00 0. -1.
        -14    1    6    6    0    0 -0.93632676276E+02 -0.69333214823E+02 -0.21414815302E+02  0.11845998083E+03  0.00000000000E+00 0.  1.
</event>
<event>
12    1  0.1345781E-002  0.1745882E+03  0.7818608E-02  0.1173146E+00
          2   -1    0    0  502    0  0.00000000000E+00  0.00000000000E+00  0.21462421570E+04  0.21462421570E+04  0.00000000000E+00 0.  1.
         -2   -1    0    0    0  501 -0.00000000000E+00 -0.00000000000E+00 -0.19001607620E+02  0.19001607620E+02  0.00000000000E+00 0. -1.
          6    2    1    2  502    0  0.32357913758E+02 -0.93638972045E+01  0.51409921751E+03  0.54255219993E+03  0.17008870350E+03 0.  0.
         24    2    3    3    0    0 -0.28841175321E+02 -0.97352496538E+01  0.42957543193E+03  0.43809251041E+03  0.80395320029E+02 0.  0.
         -6    2    1    2    0  501 -0.32357913758E+02  0.93638972045E+01  0.16131413319E+04  0.16226915647E+04  0.17253475113E+03 0.  0.
        -24    2    5    5    0    0 -0.86232069326E+02  0.18198458873E+02  0.73459870162E+03  0.74244176078E+03  0.61784804198E+02 0.  0.
          5    1    3    3  502    0  0.61199089079E+02  0.37135244932E+00  0.84523785579E+02  0.10445968952E+03  0.47000000000E+01 0. -1.
        -11    1    4    4    0    0 -0.18248350899E+02 -0.45298517053E+02  0.24896320025E+03  0.25370777094E+03  0.00000000000E+00 0.  1.
         12    1    4    4    0    0 -0.10592824422E+02  0.35563267399E+02  0.18061223168E+03  0.18438473947E+03  0.00000000000E+00 0. -1.
         -5    1    5    5    0  501  0.53874155568E+02 -0.88345616680E+01  0.87854263027E+03  0.88024980393E+03  0.47000000000E+01 0.  1.
         11    1    6    6    0    0 -0.19130048054E+02 -0.16619743963E+02  0.92509917048E+02  0.95917982569E+02  0.00000000000E+00 0. -1.
        -12    1    6    6    0    0 -0.67102021272E+02  0.34818202835E+02  0.64208878458E+03  0.64652377821E+03  0.00000000000E+00 0.  1.
</event>
<event>
12    1  0.1345781E-002  0.1994404E+03  0.7818608E-02  0.1150212E+00
         -2   -1    0    0    0  501 -0.00000000000E+00  0.00000000000E+00  0.15704315240E+02  0.15704315240E+02  0.00000000000E+00 0.  1.
          2   -1    0    0  502    0  0.00000000000E+00 -0.00000000000E+00 -0.25497322971E+04  0.25497322971E+04  0.00000000000E+00 0. -1.
          6    2    1    2  502    0  0.61149359270E+01 -0.10093691347E+03 -0.11602444955E+04  0.11771972744E+04  0.17146568316E+03 0.  0.
         24    2    3    3    0    0  0.46419208204E+02 -0.11929578927E+03 -0.80941625387E+03  0.82355334637E+03  0.81848726709E+02 0.  0.
         -6    2    1    2    0  501 -0.61149359270E+01  0.10093691347E+03 -0.13737834863E+04  0.13882393379E+04  0.17234192511E+03 0.  0.
        -24    2    5    5    0    0 -0.24697301622E+01  0.12746409166E+03 -0.81519826248E+03  0.82899295127E+03  0.80174259376E+02 0.  0.
          5    1    3    3  502    0 -0.40304272277E+02  0.18358875796E+02 -0.35082824165E+03  0.35364392802E+03  0.47000000000E+01 0. -1.
        -11    1    4    4    0    0  0.14124171924E+02 -0.39186523098E+02 -0.92419784840E+02  0.10137303613E+03  0.00000000000E+00 0.  1.
         12    1    4    4    0    0  0.32295036281E+02 -0.80109266169E+02 -0.71699646903E+03  0.72218031024E+03  0.00000000000E+00 0. -1.
         -5    1    5    5    0  501 -0.36452057648E+01 -0.26527178188E+02 -0.55858522382E+03  0.55924638664E+03  0.47000000000E+01 0.  1.
         13    1    6    6    0    0 -0.21019701462E+02  0.80741528131E+02 -0.67337148392E+03  0.67852058007E+03  0.00000000000E+00 0. -1.
        -14    1    6    6    0    0  0.18549971300E+02  0.46722563527E+02 -0.14182677856E+03  0.15047237120E+03  0.00000000000E+00 0.  1.
</event>
<event>
12    1  0.1345781E-002  0.1768687E+03  0.7818608E-02  0.1170868E+00
          2   -1    0    0  502    0  0.00000000000E+00  0.00000000000E+00  0.10009770446E+04  0.10009770446E+04  0.00000000000E+00 0. -1.
         -2   -1    0    0    0  501 -0.00000000000E+00 -0.00000000000E+00 -0.33964914964E+02  0.33964914964E+02  0.00000000000E+00 0.  1.
          6    2    1    2  502    0  0.39028911474E+02 -0.15179966167E+02  0.33789275553E+03  0.38150111746E+03  0.17209852145E+03 0.  0.
         24    2    3    3    0    0  0.29187399700E+02  0.15943711591E+02  0.71473981665E+02  0.11304890247E+03  0.81027267345E+02 0.  0.
         -6    2    1    2    0  501 -0.39028911474E+02  0.15179966167E+02  0.62911937412E+03  0.65344084211E+03  0.17158105939E+03 0.  0.
        -24    2    5    5    0    0 -0.83034956197E+01 -0.54228311018E+02  0.42012049597E+03  0.43103539886E+03  0.79250401752E+02 0.  0.
          5    1    3    3  502    0  0.98415117742E+01 -0.31123677758E+02  0.26641877386E+03  0.26845221500E+03  0.47000000000E+01 0. -1.
        -13    1    4    4    0    0 -0.27556739085E+02 -0.16136323370E+01  0.16773891839E+02  0.32300791410E+02  0.00000000000E+00 0.  1.
         14    1    4    4    0    0  0.56744138785E+02  0.17557343928E+02  0.54700089826E+02  0.80748111057E+02  0.00000000000E+00 0. -1.
         -5    1    5    5    0  501 -0.30725415855E+02  0.69408277185E+02  0.20899887815E+03  0.22240544325E+03  0.47000000000E+01 0.  1.
         13    1    6    6    0    0 -0.62978142492E+01  0.20241713995E+02  0.11618841596E+03  0.11810646660E+03  0.00000000000E+00 0. -1.
        -14    1    6    6    0    0 -0.20056813705E+01 -0.74470025013E+02  0.30393208001E+03  0.31292893226E+03  0.00000000000E+00 0.  1.
</event>
<event>
12    1  0.1345781E-002  0.1869616E+03  0.7818608E-02  0.1161231E+00
          1   -1    0    0  502    0  0.00000000000E+00  0.00000000000E+00  0.28090889695E+03  0.28090889695E+03  0.00000000000E+00 0. -1.
         -1   -1    0    0    0  501 -0.00000000000E+00 -0.00000000000E+00 -0.15225861668E+03  0.15225861668E+03  0.00000000000E+00 0.  1.
          6    2    1    2  502    0  0.70232529577E+02  0.18185905563E+02 -0.28403789915E+02  0.18860148653E+03  0.17175683412E+03 0.  0.
         24    2    3    3    0    0  0.55492254975E+02 -0.12898206094E+02 -0.80182007982E+02  0.12625911283E+03  0.79160944193E+02 0.  0.
         -6    2    1    2    0  501 -0.70232529577E+02 -0.18185905563E+02  0.15705407019E+03  0.24456602709E+03  0.17286765248E+03 0.  0.
        -24    2    5    5    0    0 -0.28846797144E+02 -0.71283189354E+02  0.13247037057E+03  0.17274298983E+03  0.79864326626E+02 0.  0.
          5    1    3    3  502    0  0.14740274602E+02  0.31084111657E+02  0.51778218067E+02  0.62342373704E+02  0.47000000000E+01 0. -1.
        -13    1    4    4    0    0  0.73952712286E+02 -0.33391609979E+00 -0.52503657091E+02  0.90695915907E+02  0.00000000000E+00 0.  1.
         14    1    4    4    0    0 -0.18460457311E+02 -0.12564289994E+02 -0.27678350891E+02  0.35563196921E+02  0.00000000000E+00 0. -1.
         -5    1    5    5    0  501 -0.41385732433E+02  0.53097283790E+02  0.24583699622E+02  0.71823037265E+02  0.47000000000E+01 0.  1.
         13    1    6    6    0    0  0.24426261332E+02 -0.32173274604E+02  0.28096239881E+02  0.49205289724E+02  0.00000000000E+00 0. -1.
        -14    1    6    6    0    0 -0.53273058476E+02 -0.39109914750E+02  0.10437413069E+03  0.12353770011E+03  0.00000000000E+00 0.  1.
</event>
<event>
12    1  0.1345781E-002  0.2144500E+03  0.7818608E-02  0.1138090E+00
         -1   -1    0    0    0  501 -0.00000000000E+00  0.00000000000E+00  0.14673950864E+03  0.14673950864E+03  0.00000000000E+00 0.  1.
          1   -1    0    0  502    0  0.00000000000E+00 -0.00000000000E+00 -0.36435804343E+03  0.36435804343E+03  0.00000000000E+00 0. -1.
          6    2    1    2  502    0 -0.78593411012E+02 -0.95853112135E+02 -0.14167402404E+02  0.21696725536E+03  0.17750867936E+03 0.  0.
         24    2    3    3    0    0 -0.34389078021E+02 -0.90749899996E+02 -0.70664032931E+02  0.14489767030E+03  0.81140472472E+02 0.  0.
         -6    2    1    2    0  501  0.78593411012E+02  0.95853112135E+02 -0.20345113238E+03  0.29413029671E+03  0.17249789801E+03 0.  0.
        -24    2    5    5    0    0  0.16928227010E+01  0.69545919134E+00 -0.25508875446E+02  0.78134425920E+02  0.73830457639E+02 0.  0.
          5    1    3    3  502    0 -0.44204332991E+02 -0.51032121394E+01  0.56496630527E+02  0.72069585057E+02  0.47000000000E+01 0. -1.
        -11    1    4    4    0    0 -0.14068310443E+01  0.23178193805E+01  0.14349181381E+02  0.14603097841E+02  0.00000000000E+00 0.  1.
         12    1    4    4    0    0 -0.32982246977E+02 -0.93067719376E+02 -0.85013214311E+02  0.13029457246E+03  0.00000000000E+00 0. -1.
         -5    1    5    5    0  501  0.76900588311E+02  0.95157652944E+02 -0.17794225694E+03  0.21599587079E+03  0.47000000000E+01 0.  1.
         13    1    6    6    0    0 -0.46092561163E+01  0.88889921627E+01 -0.50293524070E+02  0.51280580993E+02  0.00000000000E+00 0. -1.
        -14    1    6    6    0    0  0.63020788173E+01 -0.81935329714E+01  0.24784648624E+02  0.26853844927E+02  0.00000000000E+00 0.  1.
</event>
<event>
12    1  0.1345781E-002  0.2131728E+03  0.7818608E-02  0.1139078E+00
          1   -1    0    0  502    0  0.00000000000E+00  0.00000000000E+00  0.59515799382E+03  0.59515799382E+03  0.00000000000E+00 0.  1.
         -1   -1    0    0    0  501 -0.00000000000E+00 -0.00000000000E+00 -0.79083849685E+02  0.79083849685E+02  0.00000000000E+00 0. -1.
          6    2    1    2  502    0 -0.11691827057E+03  0.46654311158E+02  0.32114016757E+03  0.38567577874E+03  0.17253490179E+03 0.  0.
         24    2    3    3    0    0 -0.13122793956E+03  0.65730246562E+02  0.32001259522E+03  0.36134433083E+03  0.81366005725E+02 0.  0.
         -6    2    1    2    0  501  0.11691827057E+03 -0.46654311158E+02  0.19493397656E+03  0.28856606476E+03  0.17153603637E+03 0.  0.
        -24    2    5    5    0    0  0.12445781068E+03 -0.51884390036E+02  0.95707642668E+02  0.18880558297E+03  0.91136484061E+02 0.  0.
          5    1    3    3  502    0  0.14309668988E+02 -0.19075935404E+02  0.11275723499E+01  0.24331447912E+02  0.47000000000E+01 0. -1.
        -13    1    4    4    0    0 -0.15796777521E+02 -0.16684493608E+02  0.72739487421E+02  0.76282000087E+02  0.00000000000E+00 0.  1.
         14    1    4    4    0    0 -0.11543116203E+03  0.82414740170E+02  0.24727310780E+03  0.28506233074E+03  0.00000000000E+00 0. -1.
         -5    1    5    5    0  501 -0.75395401089E+01  0.52300788776E+01  0.99226333889E+02  0.99760481791E+02  0.47000000000E+01 0.  1.
         11    1    6    6    0    0  0.53530810985E+02 -0.65508546406E+02  0.26186705222E+02  0.88558799152E+02  0.00000000000E+00 0. -1.
        -12    1    6    6    0    0  0.70926999691E+02  0.13624156370E+02  0.69520937446E+02  0.10024678382E+03  0.00000000000E+00 0.  1.
</event>
<event>
12    1  0.1345781E-002  0.1905582E+03  0.7818608E-02  0.1157959E+00
         -2   -1    0    0    0  501 -0.00000000000E+00  0.00000000000E+00  0.10601808535E+02  0.10601808535E+02  0.00000000000E+00 0.  1.
          2   -1    0    0  502    0  0.00000000000E+00 -0.00000000000E+00 -0.34335624366E+04  0.34335624366E+04  0.00000000000E+00 0. -1.
          6    2    1    2  502    0 -0.69206309400E+02  0.41296439606E+02 -0.18140821983E+04  0.18242929790E+04  0.17508781131E+03 0.  0.
         24    2    3    3    0    0 -0.50066337213E+02  0.10072924455E+02 -0.45304493307E+03  0.46275496120E+03  0.79273834303E+02 0.  0.
         -6    2    1    2    0  501  0.69206309400E+02 -0.41296439606E+02 -0.16088784297E+04  0.16198712662E+04  0.17028860227E+03 0.  0.
        -24    2    5    5    0    0  0.20638044888E+02 -0.34173341568E+02 -0.14681060634E+04  0.14707117409E+04  0.77870824643E+02 0.  0.
          5    1    3    3  502    0 -0.19139972188E+02  0.31223515152E+02 -0.13610372652E+04  0.13615380178E+04  0.47000000000E+01 0. -1.
        -11    1    4    4    0    0 -0.17616584043E+01  0.38054493601E+02 -0.20450363165E+03  0.20802159331E+03  0.00000000000E+00 0.  1.
         12    1    4    4    0    0 -0.48304678808E+02 -0.27981569146E+02 -0.24854130142E+03  0.25473336790E+03  0.00000000000E+00 0. -1.
         -5    1    5    5    0  501  0.48568264513E+02 -0.71230980384E+01 -0.14077236633E+03  0.14915952523E+03  0.47000000000E+01 0.  1.
         13    1    6    6    0    0  0.44655694698E+02 -0.38517094008E+02 -0.12153714235E+04  0.12168012963E+04  0.00000000000E+00 0. -1.
        -14    1    6    6    0    0 -0.24017649810E+02  0.43437524403E+01 -0.25273463995E+03  0.25391044468E+03  0.00000000000E+00 0.  1.
</event>
<event>
12    1  0.1345781E-002  0.1884744E+03  0.7818608E-02  0.1159845E+00
          2   -1    0    0  502    0  0.00000000000E+00  0.00000000000E+00  0.76340628325E+02  0.76340628325E+02  0.00000000000E+00 0. -1.
         -2   -1    0    0    0  501 -0.00000000000E+00 -0.00000000000E+00 -0.99434038023E+03  0.99434038023E+03  0.00000000000E+00 0.  1.
          6    2    1    2  502    0  0.62651812808E+02 -0.41364948103E+02 -0.67860516079E+02  0.19977423863E+03  0.17224513984E+03 0.  0.
         24    2    3    3    0    0  0.62453843320E+02  0.22851324094E+02 -0.85598014412E+02  0.13298743114E+03  0.77045254317E+02 0.  0.
         -6    2    1    2    0  501 -0.62651812808E+02  0.41364948103E+02 -0.85013923583E+03  0.87090676993E+03  0.17350957621E+03 0.  0.
        -24    2    5    5    0    0 -0.95931869160E+02  0.44638485315E+02 -0.44297988911E+03  0.46234942779E+03  0.79625958893E+02 0.  0.
          5    1    3    3  502    0  0.19796948790E+00 -0.64216272197E+02  0.17737498333E+02  0.66786807484E+02  0.47000000000E+01 0. -1.
        -13    1    4    4    0    0  0.64736370121E+02  0.14539126619E+02 -0.97718265833E+02  0.11811453466E+03  0.00000000000E+00 0.  1.
         14    1    4    4    0    0 -0.22825268012E+01  0.83121974748E+01  0.12120251421E+02  0.14872896489E+02  0.00000000000E+00 0. -1.
         -5    1    5    5    0  501  0.33280056352E+02 -0.32735372123E+01 -0.40715934671E+03  0.40855734214E+03  0.47000000000E+01 0.  1.
         11    1    6    6    0    0 -0.45961654375E+02  0.85629157656E+01 -0.69140826147E+02  0.83464070351E+02  0.00000000000E+00 0. -1.
        -12    1    6    6    0    0 -0.49970214785E+02  0.36075569549E+02 -0.37383906297E+03  0.37888535744E+03  0.00000000000E+00 0.  1.
</event>
<event>
12    1  0.1345781E-002  0.4561707E+03  0.7818608E-02  0.1025898E+00
          1   -1    0    0  502    0  0.00000000000E+00  0.00000000000E+00  0.64739075824E+03  0.64739075824E+03  0.00000000000E+00 0.  1.
         -1   -1    0    0    0  501 -0.00000000000E+00 -0.00000000000E+00 -0.32948852464E+03  0.32948852464E+03  0.00000000000E+00 0. -1.
          6    2    1    2  502    0 -0.15593635916E+02 -0.42247140251E+03  0.82543749932E+02  0.46350081618E+03  0.17115574347E+03 0.  0.
         24    2    3    3    0    0  0.20286866701E+02 -0.14786324752E+03 -0.14552904183E+02  0.16999289550E+03  0.80066850665E+02 0.  0.
         -6    2    1    2    0  501  0.15593635916E+02  0.42247140251E+03  0.23535848367E+03  0.51337846670E+03  0.17157676655E+03 0.  0.
        -24    2    5    5    0    0  0.47171052833E+02  0.39776837910E+03  0.18426285883E+03  0.44826145278E+03  0.80874824647E+02 0.  0.
          5    1    3    3  502    0 -0.35880502617E+02 -0.27460815499E+03  0.97096654115E+02  0.29350792067E+03  0.47000000000E+01 0. -1.
        -11    1    4    4    0    0 -0.18265365146E+02 -0.72609390356E+02  0.21762085464E+02  0.77970093597E+02  0.00000000000E+00 0.  1.
         12    1    4    4    0    0  0.38552231847E+02 -0.75253857159E+02 -0.36314989647E+02  0.92022801907E+02  0.00000000000E+00 0. -1.
         -5    1    5    5    0  501 -0.31577416917E+02  0.24703023404E+02  0.51095624841E+02  0.65117013924E+02  0.47000000000E+01 0.  1.
         13    1    6    6    0    0 -0.35772522270E+01  0.19882270282E+02 -0.74077582723E+01  0.21516883782E+02  0.00000000000E+00 0. -1.
        -14    1    6    6    0    0  0.50748305060E+02  0.37788610882E+03  0.19167061710E+03  0.42674456899E+03  0.00000000000E+00 0.  1.
</event>
<event>
12    1  0.1345781E-002  0.1894608E+03  0.7818608E-02  0.1158949E+00
         -2   -1    0    0    0  501 -0.00000000000E+00  0.00000000000E+00  0.36351108673E+02  0.36351108673E+02  0.00000000000E+00 0. -1.
          2   -1    0    0  502    0  0.00000000000E+00 -0.00000000000E+00 -0.16079136448E+04  0.16079136448E+04  0.00000000000E+00 0.  1.
          6    2    1    2  502    0 -0.52311029491E+02  0.63682942746E+02 -0.13119319141E+04  0.13264735946E+04  0.17769324404E+03 0.  0.
         24    2    3    3    0    0 -0.18620573557E+02  0.98984938642E+02 -0.63039046111E+03  0.64317123118E+03  0.78309356529E+02 0.  0.
         -6    2    1    2    0  501  0.52311029491E+02 -0.63682942746E+02 -0.25963062198E+03  0.31779115881E+03  0.16368017517E+03 0.  0.
        -24    2    5    5    0    0 -0.66903099624E+01 -0.65440786566E+02 -0.87178637383E+02  0.13545623329E+03  0.80131264360E+02 0.  0.
          5    1    3    3  502    0 -0.33690455934E+02 -0.35301995897E+02 -0.68154145300E+03  0.68330236345E+03  0.47000000000E+01 0. -1.
        -11    1    4    4    0    0 -0.20583464391E+02  0.75069468201E+01 -0.28584001989E+03  0.28667847883E+03  0.00000000000E+00 0.  1.
         12    1    4    4    0    0  0.19628908338E+01  0.91477991822E+02 -0.34455044122E+03  0.35649275235E+03  0.00000000000E+00 0. -1.
         -5    1    5    5    0  501  0.59001339454E+02  0.17578438198E+01 -0.17245198460E+03  0.18233492552E+03  0.47000000000E+01 0.  1.
         11    1    6    6    0    0 -0.45785630163E+01  0.75981088565E+01  0.10324464570E+02  0.13612092644E+02  0.00000000000E+00 0. -1.
        -12    1    6    6    0    0 -0.21117469461E+01 -0.73038895422E+02 -0.97503101953E+02  0.12184414065E+03  0.00000000000E+00 0.  1.
</event>
<event>
12    1  0.1345781E-002  0.1987446E+03  0.7818608E-02  0.1150803E+00
          4   -1    0    0  502    0  0.00000000000E+00  0.00000000000E+00  0.11834746854E+04  0.11834746854E+04  0.00000000000E+00 0. -1.
         -4   -1    0    0    0  501 -0.00000000000E+00 -0.00000000000E+00 -0.34262602158E+02  0.34262602158E+02  0.00000000000E+00 0.  1.
          6    2    1    2  502    0  0.94871524800E+02 -0.24693312734E+02  0.47650560875E+03  0.51627176826E+03  0.17282528064E+03 0.  0.
         24    2    3    3    0    0  0.24745695696E+02 -0.24972400803E+01  0.40448375652E+03  0.41322064140E+03  0.80781207783E+02 0.  0.
         -6    2    1    2    0  501 -0.94871524800E+02  0.24693312734E+02  0.67270647450E+03  0.70146551930E+03  0.17294365562E+03 0.  0.
        -24    2    5    5    0    0 -0.20688565882E+02 -0.23064660085E+02  0.20474467596E+03  0.22523629902E+03  0.88605940861E+02 0.  0.
          5    1    3    3  502    0  0.70125829104E+02 -0.22196072654E+02  0.72021852228E+02  0.10305112686E+03  0.47000000000E+01 0. -1.
        -13    1    4    4    0    0  0.35773432321E+02  0.12856814637E+02  0.84243987275E+02  0.92423403609E+02  0.00000000000E+00 0.  1.
         14    1    4    4    0    0 -0.11027736625E+02 -0.15354054717E+02  0.32023976924E+03  0.32079723779E+03  0.00000000000E+00 0. -1.
         -5    1    5    5    0  501 -0.74182958918E+02  0.47757972819E+02  0.46796179854E+03  0.47622922029E+03  0.47000000000E+01 0.  1.
         13    1    6    6    0    0 -0.19071160006E+02  0.14823964456E+02  0.17600142876E+03  0.17765123696E+03  0.00000000000E+00 0. -1.
        -14    1    6    6    0    0 -0.16174058756E+01 -0.37888624541E+02  0.28743247200E+02  0.47585062057E+02  0.00000000000E+00 0.  1.
</event>
<event>
12    1  0.1345781E-002  0.1879194E+03  0.7818608E-02  0.1160351E+00
          2   -1    0    0  502    0  0.00000000000E+00  0.00000000000E+00  0.10301706542E+04  0.10301706542E+04  0.00000000000E+00 0. -1.
         -2   -1    0    0    0  501 -0.00000000000E+00 -0.00000000000E+00 -0.34543279006E+02  0.34543279006E+02  0.00000000000E+00 0.  1.
          6    2    1    2  502    0 -0.49609562905E+02 -0.25975199411E+02  0.43699936758E+03  0.47293025952E+03  0.17192662209E+03 0.  0.
         24    2    3    3    0    0 -0.41263451625E+02  0.39542621422E+02  0.24879328384E+03  0.27341619390E+03  0.97938887350E+02 0.  0.
         -6    2    1    2    0  501  0.49609562905E+02  0.25975199411E+02  0.55862800763E+03  0.59178367370E+03  0.18710116473E+03 0.  0.
        -24    2    5    5    0    0 -0.18427556506E+01  0.10708252887E+02  0.51958282349E+03  0.52524768987E+03  0.76162739027E+02 0.  0.
          5    1    3    3  502    0 -0.83461112804E+01 -0.65517820833E+02  0.18820608375E+03  0.19951406562E+03  0.47000000000E+01 0. -1.
        -11    1    4    4    0    0  0.19692661665E+02  0.21180349500E+02  0.18140760422E+02  0.34139351445E+02  0.00000000000E+00 0.  1.
         12    1    4    4    0    0 -0.60956113290E+02  0.18362271923E+02  0.23065252341E+03  0.23927684245E+03  0.00000000000E+00 0. -1.
         -5    1    5    5    0  501  0.51452318556E+02  0.15266946524E+02  0.39045184134E+02  0.66535983836E+02  0.47000000000E+01 0.  1.
         11    1    6    6    0    0  0.36610982369E+02 -0.18137947554E+00  0.22328520121E+03  0.22626682923E+03  0.00000000000E+00 0. -1.
        -12    1    6    6    0    0 -0.38453738020E+02  0.10889632362E+02  0.29629762228E+03  0.29898086064E+03  0.00000000000E+00 0.  1.
</event>
<event>
12    1  0.1345781E-002  0.2733594E+03  0.7818608E-02  0.1099372E+00
         -2   -1    0    0    0  501 -0.00000000000E+00  0.00000000000E+00  0.91789409477E+03  0.91789409477E+03  0.00000000000E+00 0.  1.
          2   -1    0    0  502    0  0.00000000000E+00 -0.00000000000E+00 -0.14547914115E+03  0.14547914115E+03  0.00000000000E+00 0. -1.
          6    2    1    2  502    0  0.15915868452E+03 -0.13929105086E+03  0.33799635342E+02  0.27598600883E+03  0.17404705690E+03 0.  0.
         24    2    3    3    0    0  0.14091856339E+03 -0.16338908296E+03  0.57469445694E+02  0.23731086058E+03  0.80372093583E+02 0.  0.
         -6    2    1    2    0  501 -0.15915868452E+03  0.13929105086E+03  0.73861531828E+03  0.78738722709E+03  0.17231533096E+03 0.  0.
        -24    2    5    5    0    0 -0.12261918176E+03  0.18559572455E+02  0.42937711815E+03  0.45337887457E+03  0.76208745200E+02 0.  0.
          5    1    3    3  502    0  0.18240121134E+02  0.24098032100E+02 -0.23669810352E+02  0.38675148251E+02  0.47000000000E+01 0. -1.
        -11    1    4    4    0    0  0.43301478827E+02 -0.35210442298E+02  0.51720557874E+02  0.76090797224E+02  0.00000000000E+00 0.  1.
         12    1    4    4    0    0  0.97617084559E+02 -0.12817864066E+03  0.57488878204E+01  0.16122006336E+03  0.00000000000E+00 0. -1.
         -5    1    5    5    0  501 -0.36539502756E+02  0.12073147840E+03  0.30923820012E+03  0.33400835252E+03  0.47000000000E+01 0.  1.
         11    1    6    6    0    0 -0.13612953596E+02  0.23480633885E+02  0.35619446918E+02  0.44781666696E+02  0.00000000000E+00 0. -1.
        -12    1    6    6    0    0 -0.10900622817E+03 -0.49210614303E+01  0.39375767123E+03  0.40859720787E+03  0.00000000000E+00 0.  1.
</event>
<event>
12    1  0.1345781E-002  0.1930682E+03  0.7818608E-02  0.1155723E+00
         -2   -1    0    0    0  501 -0.00000000000E+00  0.00000000000E+00  0.95294959773E+02  0.95294959773E+02  0.00000000000E+00 0.  1.
          2   -1    0    0  502    0  0.00000000000E+00 -0.00000000000E+00 -0.42543279329E+03  0.42543279329E+03  0.00000000000E+00 0. -1.
          6    2    1    2  502    0 -0.74388060398E+02 -0.46107881266E+02 -0.23918179468E+03  0.30755048180E+03  0.17239445381E+03 0.  0.
         24    2    3    3    0    0  0.11113528362E+02 -0.67674365751E+02 -0.12747742737E+03  0.16515809924E+03  0.79519638864E+02 0.  0.
         -6    2    1    2    0  501  0.74388060398E+02  0.46107881266E+02 -0.90956038829E+02  0.21317727126E+03  0.17179065090E+03 0.  0.
        -24    2    5    5    0    0  0.36641718879E+02  0.79139782766E+02 -0.10825210321E+03  0.15991249248E+03  0.79042815133E+02 0.  0.
          5    1    3    3  502    0 -0.85501588760E+02  0.21566484485E+02 -0.11170436731E+03  0.14239238256E+03  0.47000000000E+01 0. -1.
        -13    1    4    4    0    0  0.23011354119E+02  0.99674017506E+01 -0.43205455674E+02  0.49955809632E+02  0.00000000000E+00 0.  1.
         14    1    4    4    0    0 -0.11897825758E+02 -0.77641767501E+02 -0.84271971695E+02  0.11520228961E+03  0.00000000000E+00 0. -1.
         -5    1    5    5    0  501  0.37746341519E+02 -0.33031901500E+02  0.17296064379E+02  0.53264778774E+02  0.47000000000E+01 0.  1.
         11    1    6    6    0    0 -0.23870011181E+02  0.14035054894E+02 -0.35683334492E+02  0.45167029569E+02  0.00000000000E+00 0. -1.
        -12    1    6    6    0    0  0.60511730060E+02  0.65104727872E+02 -0.72568768717E+02  0.11474546291E+03  0.00000000000E+00 0.  1.
</event>
<event>
12    1  0.1345781E-002  0.1800004E+03  0.7818608E-02  0.1167803E+00
         -1   -1    0    0    0  501 -0.00000000000E+00  0.00000000000E+00  0.66820138444E+03  0.66820138444E+03  0.00000000000E+00 0. -1.
          1   -1    0    0  502    0  0.00000000000E+00 -0.00000000000E+00 -0.50208533902E+02  0.50208533902E+02  0.00000000000E+00 0.  1.
          6    2    1    2  502    0  0.45744782921E+02  0.28040470253E+02  0.24259085710E+03  0.30210474724E+03  0.17186652153E+03 0.  0.
         24    2    3    3    0    0  0.92672811372E+00  0.78288365535E+02  0.13530612740E+03  0.17535455102E+03  0.79445222938E+02 0.  0.
         -6    2    1    2    0  501 -0.45744782921E+02 -0.28040470253E+02  0.37540199344E+03  0.41630517110E+03  0.17176869816E+03 0.  0.
        -24    2    5    5    0    0 -0.39757683895E+02 -0.42451066173E+02  0.38536583694E+03  0.39720336996E+03  0.76687172179E+02 0.  0.
          5    1    3    3  502    0  0.44818054807E+02 -0.50247895282E+02  0.10728472969E+03  0.12675019622E+03  0.47000000000E+01 0. -1.
        -11    1    4    4    0    0  0.17005569517E+02  0.15551675585E+01 -0.20497287772E+01  0.17199108372E+02  0.00000000000E+00 0.  1.
         12    1    4    4    0    0 -0.16078841403E+02  0.76733197976E+02  0.13735585618E+03  0.15815544265E+03  0.00000000000E+00 0. -1.
         -5    1    5    5    0  501 -0.59870990264E+01  0.14410595920E+02 -0.99638434998E+01  0.19101801140E+02  0.47000000000E+01 0.  1.
         11    1    6    6    0    0 -0.41583041780E+02  0.10449680958E+02  0.19150529727E+03  0.19624633520E+03  0.00000000000E+00 0. -1.
        -12    1    6    6    0    0  0.18253578851E+01 -0.52900747131E+02  0.19386053967E+03  0.20095703476E+03  0.00000000000E+00 0.  1.
</event>
<event>
12    1  0.1345781E-002  0.2177753E+03  0.7818608E-02  0.1135553E+00
         -2   -1    0    0    0  501 -0.00000000000E+00  0.00000000000E+00  0.24310681666E+03  0.24310681666E+03  0.00000000000E+00 0. -1.
          2   -1    0    0  502    0  0.00000000000E+00 -0.00000000000E+00 -0.19564955588E+03  0.19564955588E+03  0.00000000000E+00 0.  1.
          6    2    1    2  502    0  0.70894976696E+02  0.11420421826E+03  0.35542074208E+02  0.22075990851E+03  0.17147302113E+03 0.  0.
         24    2    3    3    0    0 -0.30459056705E+02  0.50715295520E+02  0.23214008849E+02  0.10043719829E+03  0.77774965504E+02 0.  0.
         -6    2    1    2    0  501 -0.70894976696E+02 -0.11420421826E+03  0.11915186564E+02  0.21799646403E+03  0.17120684995E+03 0.  0.
        -24    2    5    5    0    0 -0.96027375567E+02 -0.83675371508E+02  0.54546966585E+02  0.15965945498E+03  0.79328086735E+02 0.  0.
          5    1    3    3  502    0  0.10135403340E+03  0.63488922744E+02  0.12328065359E+02  0.12032271021E+03  0.47000000000E+01 0. -1.
        -13    1    4    4    0    0  0.13654887442E+02  0.33860347118E+02 -0.15214296037E+02  0.39553177646E+02  0.00000000000E+00 0.  1.
         14    1    4    4    0    0 -0.44113944147E+02  0.16854948403E+02  0.38428304886E+02  0.60884020648E+02  0.00000000000E+00 0. -1.
         -5    1    5    5    0  501  0.25132398871E+02 -0.30528846756E+02 -0.42631780021E+02  0.58337009051E+02  0.47000000000E+01 0.  1.
         13    1    6    6    0    0 -0.68869183092E+02 -0.74634357050E+02  0.40749424745E+01  0.10163590305E+03  0.00000000000E+00 0. -1.
        -14    1    6    6    0    0 -0.27158192476E+02 -0.90410144586E+01  0.50472024111E+02  0.58023551932E+02  0.00000000000E+00 0.  1.
</event>
<event>
12    1  0.1345781E-002  0.1838009E+03  0.7818608E-02  0.1164174E+00
          1   -1    0    0  502    0  0.00000000000E+00  0.00000000000E+00  0.11705746461E+03  0.11705746461E+03  0.00000000000E+00 0. -1.
         -1   -1    0    0    0  501 -0.00000000000E+00 -0.00000000000E+00 -0.30532069883E+03  0.30532069883E+03  0.00000000000E+00 0.  1.
          6    2    1    2  502    0  0.42423193349E+02  0.47097832558E+02 -0.14378311287E+03  0.23373754626E+03  0.17303677013E+03 0.  0.
         24    2    3    3    0    0  0.52360937166E+02  0.81406761338E+02 -0.54442159075E+02  0.13740604896E+03  0.80918138101E+02 0.  0.
         -6    2    1    2    0  501 -0.42423193349E+02 -0.47097832558E+02 -0.44480121343E+02  0.18864061719E+03  0.17201415085E+03 0.  0.
        -24    2    5    5    0    0 -0.89713052648E+02 -0.25577531206E+02 -0.57810586364E+02  0.13479597529E+03  0.78263970905E+02 0.  0.
          5    1    3    3  502    0 -0.99377438163E+01 -0.34308928780E+02 -0.89340953797E+02  0.96331497298E+02  0.47000000000E+01 0. -1.
        -11    1    4    4    0    0  0.48388649239E+01  0.76285583801E+02 -0.21664818899E+02  0.79449790985E+02  0.00000000000E+00 0.  1.
         12    1    4    4    0    0  0.47522072242E+02  0.51211775365E+01 -0.32777340175E+02  0.57956257975E+02  0.00000000000E+00 0. -1.
         -5    1    5    5    0  501  0.47289859299E+02 -0.21520301352E+02  0.13330465021E+02  0.53844641892E+02  0.47000000000E+01 0.  1.
         13    1    6    6    0    0  0.43242199785E+01 -0.26585309376E+02 -0.19484817587E+02  0.33243580876E+02  0.00000000000E+00 0. -1.
        -14    1    6    6    0    0 -0.94037272627E+02  0.10077781696E+01 -0.38325768777E+02  0.10155239442E+03  0.00000000000E+00 0.  1.
</event>
<event>
12    1  0.1345781E-002  0.1992151E+03  0.7818608E-02  0.1150403E+00
         -2   -1    0    0    0  501 -0.00000000000E+00  0.00000000000E+00  0.17095007233E+03  0.17095007233E+03  0.00000000000E+00 0.  1.
          2   -1    0    0  502    0  0.00000000000E+00 -0.00000000000E+00 -0.25009823725E+03  0.25009823725E+03  0.00000000000E+00 0. -1.
          6    2    1    2  502    0 -0.67683508819E+02 -0.59673362636E+02  0.17677110182E+02  0.19116341408E+03  0.16759774188E+03 0.  0.
         24    2    3    3    0    0 -0.82386887179E+02 -0.68909689664E+02  0.59896893996E+02  0.14527115746E+03  0.77329986229E+02 0.  0.
         -6    2    1    2    0  501  0.67683508819E+02  0.59673362636E+02 -0.96825275102E+02  0.22988489550E+03  0.18796266572E+03 0.  0.
        -24    2    5    5    0    0  0.34532171934E+02 -0.22193631781E+02 -0.10907238127E+03  0.14059157256E+03  0.78639543032E+02 0.  0.
          5    1    3    3  502    0  0.14703378360E+02  0.92363270279E+01 -0.42219783815E+02  0.45892256618E+02  0.47000000000E+01 0. -1.
        -11    1    4    4    0    0  0.11866096011E+02  0.43357157889E+01  0.89710686681E+01  0.15494603545E+02  0.00000000000E+00 0.  1.
         12    1    4    4    0    0 -0.94252983191E+02 -0.73245405452E+02  0.50925825328E+02  0.12977655391E+03  0.00000000000E+00 0. -1.
         -5    1    5    5    0  501  0.33151336886E+02  0.81866994416E+02  0.12247106169E+02  0.89293322939E+02  0.47000000000E+01 0.  1.
         11    1    6    6    0    0 -0.24053747175E+02  0.42158576570E+01 -0.28562111930E+02  0.37578590272E+02  0.00000000000E+00 0. -1.
        -12    1    6    6    0    0  0.58585919109E+02 -0.26409489438E+02 -0.80510269341E+02  0.10301298229E+03  0.00000000000E+00 0.  1.
</event>
<event>
12    1  0.1345781E-002  0.2281350E+03  0.7818608E-02  0.1127959E+00
         -2   -1    0    0    0  501 -0.00000000000E+00  0.00000000000E+00  0.36400523743E+02  0.36400523743E+02  0.00000000000E+00 0. -1.
          2   -1    0    0  502    0  0.00000000000E+00 -0.00000000000E+00 -0.14348983882E+04  0.14348983882E+04  0.00000000000E+00 0.  1.
          6    2    1    2  502    0  0.18573384162E+02 -0.14838306088E+03 -0.74268037581E+03  0.77689098844E+03  0.17211323004E+03 0.  0.
         24    2    3    3    0    0 -0.32764409760E+02 -0.22544357780E+02 -0.24824839657E+03  0.26409861293E+03  0.80864431862E+02 0.  0.
         -6    2    1    2    0  501 -0.18573384162E+02  0.14838306088E+03 -0.65581748869E+03  0.69440792354E+03  0.17246240882E+03 0.  0.
        -24    2    5    5    0    0  0.50976177072E+02  0.43274939218E+02 -0.29407042454E+03  0.31130495158E+03  0.77214424151E+02 0.  0.
          5    1    3    3  502    0  0.51337793922E+02 -0.12583870310E+03 -0.49443197924E+03  0.51279237551E+03  0.47000000000E+01 0. -1.
        -11    1    4    4    0    0 -0.19190309063E+02 -0.44389549249E+02 -0.22253992419E+03  0.22773387518E+03  0.00000000000E+00 0.  1.
         12    1    4    4    0    0 -0.13574100697E+02  0.21845191469E+02 -0.25708472372E+02  0.36364737752E+02  0.00000000000E+00 0. -1.
         -5    1    5    5    0  501 -0.69549561234E+02  0.10510812166E+03 -0.36174706415E+03  0.38310297196E+03  0.47000000000E+01 0.  1.
         11    1    6    6    0    0  0.60691973491E+02  0.52496105472E+02 -0.28226552018E+03  0.29345047388E+03  0.00000000000E+00 0. -1.
        -12    1    6    6    0    0 -0.97157964185E+01 -0.92211662541E+01 -0.11804904356E+02  0.17854477701E+02  0.00000000000E+00 0.  1.
</event>
<event>
12    1  0.1345781E-002  0.1968842E+03  0.7818608E-02  0.1152395E+00
          3   -1    0    0  502    0  0.00000000000E+00  0.00000000000E+00  0.28308411645E+04  0.28308411645E+04  0.00000000000E+00 0.  1.
         -3   -1    0    0    0  501 -0.00000000000E+00 -0.00000000000E+00 -0.13936686952E+02  0.13936686952E+02  0.00000000000E+00 0. -1.
          6    2    1    2  502    0 -0.10193682755E+01  0.96377882292E+02  0.15983555383E+04  0.16104693628E+04  0.17199246051E+03 0.  0.
         24    2    3    3    0    0  0.44844673200E+02  0.86195887685E+02  0.70554960153E+03  0.71641583308E+03  0.77528252276E+02 0.  0.
         -6    2    1    2    0  501  0.10193682755E+01 -0.96377882292E+02  0.12185489392E+04  0.12343084886E+04  0.17136566882E+03 0.  0.
        -24    2    5    5    0    0  0.62144029681E+02 -0.73989088479E+02  0.86395481562E+03  0.87375812484E+03  0.87744353901E+02 0.  0.
          5    1    3    3  502    0 -0.45864041475E+02  0.10181994607E+02  0.89280593677E+03  0.89405352974E+03  0.47000000000E+01 0. -1.
        -13    1    4    4    0    0  0.42669186814E+02  0.43656195862E+02  0.59201277134E+03  0.59515178264E+03  0.00000000000E+00 0.  1.
         14    1    4    4    0    0  0.21754863860E+01  0.42539691823E+02  0.11353683018E+03  0.12126405044E+03  0.00000000000E+00 0. -1.
         -5    1    5    5    0  501 -0.61124661405E+02 -0.22388793813E+02  0.35459412363E+03  0.36055036379E+03  0.47000000000E+01 0.  1.
         13    1    6    6    0    0  0.74083213874E+02 -0.30142808744E+02  0.65840045185E+03  0.66324057965E+03  0.00000000000E+00 0. -1.
        -14    1    6    6    0    0 -0.11939184194E+02 -0.43846279735E+02  0.20555436377E+03  0.21051754519E+03  0.00000000000E+00 0.  1.
</event>
<event>
12    1  0.1345781E-002  0.1804321E+03  0.7818608E-02  0.1167386E+00
          2   -1    0    0  502    0  0.00000000000E+00  0.00000000000E+00  0.52334388471E+02  0.52334388471E+02  0.00000000000E+00 0. -1.
         -2   -1    0    0    0  501 -0.00000000000E+00 -0.00000000000E+00 -0.62620169057E+03  0.62620169057E+03  0.00000000000E+00 0.  1.
          6    2    1    2  502    0  0.42690022729E+02  0.17395994851E+02 -0.26234380718E+03  0.31940230893E+03  0.17626259702E+03 0.  0.
         24    2    3    3    0    0  0.17894308762E+02  0.18938234474E+02 -0.27779637375E+03  0.28976993225E+03  0.78210775212E+02 0.  0.
         -6    2    1    2    0  501 -0.42690022729E+02 -0.17395994851E+02 -0.31152349492E+03  0.35913377011E+03  0.17264158904E+03 0.  0.
        -24    2    5    5    0    0 -0.41926386419E+02 -0.23349046728E+02 -0.62554293420E+02  0.11004789082E+03  0.76775639278E+02 0.  0.
          5    1    3    3  502    0  0.24795713967E+02 -0.15422396230E+01  0.15452566569E+02  0.29632376681E+02  0.47000000000E+01 0. -1.
        -11    1    4    4    0    0  0.19821553022E+02  0.44693556340E+02 -0.11535851675E+03  0.12529164110E+03  0.00000000000E+00 0.  1.
         12    1    4    4    0    0 -0.19272442608E+01 -0.25755321866E+02 -0.16243785699E+03  0.16447829115E+03  0.00000000000E+00 0. -1.
         -5    1    5    5    0  501 -0.76363630975E+00  0.59530518774E+01 -0.24896920150E+03  0.24908587929E+03  0.47000000000E+01 0.  1.
         11    1    6    6    0    0  0.52133598023E+01  0.22571999187E+02 -0.78168335177E+01  0.24449481671E+02  0.00000000000E+00 0. -1.
        -12    1    6    6    0    0 -0.47139746221E+02 -0.45921045915E+02 -0.54737459903E+02  0.85598409146E+02  0.00000000000E+00 0.  1.
</event>
<event>
12    1  0.1345781E-002  0.2889204E+03  0.7818608E-02  0.1090914E+00
         -2   -1    0    0    0  501 -0.00000000000E+00  0.00000000000E+00  0.33575244063E+03  0.33575244063E+03  0.00000000000E+00 0. -1.
          2   -1    0    0  502    0  0.00000000000E+00 -0.00000000000E+00 -0.48189474368E+03  0.48189474368E+03  0.00000000000E+00 0.  1.
          6    2    1    2  502    0 -0.18233393284E+03  0.14311335157E+03  0.21130710292E+03  0.35833474883E+03  0.17328013738E+03 0.  0.
         24    2    3    3    0    0 -0.11056231361E+02  0.47425867926E+02  0.71115508404E+02  0.11715448694E+03  0.79349260075E+02 0.  0.
         -6    2    1    2    0  501  0.18233393284E+03 -0.14311335157E+03 -0.35744940597E+03  0.45931243548E+03  0.17167044327E+03 0.  0.
        -24    2    5    5    0    0  0.20481877342E+03 -0.12105076627E+03 -0.28278103195E+03  0.37813496443E+03  0.80105688555E+02 0.  0.
          5    1    3    3  502    0 -0.17127770148E+03  0.95687483648E+02  0.14019159452E+03  0.24118026189E+03  0.47000000000E+01 0. -1.
        -11    1    4    4    0    0 -0.29137275016E+01  0.59065497388E+02  0.17475341427E+02  0.61665309110E+02  0.00000000000E+00 0.  1.
         12    1    4    4    0    0 -0.81425038598E+01 -0.11639629462E+02  0.53640166977E+02  0.55489177831E+02  0.00000000000E+00 0. -1.
         -5    1    5    5    0  501 -0.22484840575E+02 -0.22062585308E+02 -0.74668374028E+02  0.81177471051E+02  0.47000000000E+01 0.  1.
         11    1    6    6    0    0  0.28940700279E+02  0.10846417421E+02 -0.29094995610E+02  0.42446762810E+02  0.00000000000E+00 0. -1.
        -12    1    6    6    0    0  0.17587807314E+03 -0.13189718369E+03 -0.25368603634E+03  0.33568820162E+03  0.00000000000E+00 0.  1.
</event>
<event>
12    1  0.1345781E-002  0.2157984E+03  0.7818608E-02  0.1137055E+00
          1   -1    0    0  502    0  0.00000000000E+00  0.00000000000E+00  0.21909077433E+03  0.21909077433E+03  0.00000000000E+00 0. -1.
         -1   -1    0    0    0  501 -0.00000000000E+00 -0.00000000000E+00 -0.21672181273E+03  0.21672181273E+03  0.00000000000E+00 0.  1.
          6    2    1    2  502    0  0.21600563272E+02  0.12588260721E+03 -0.29028694498E+02  0.21766912905E+03  0.17385099800E+03 0.  0.
         24    2    3    3    0    0 -0.19836780935E+01  0.35871766049E+02 -0.72077497138E+02  0.11503649596E+03  0.82143236059E+02 0.  0.
         -6    2    1    2    0  501 -0.21600563272E+02 -0.12588260721E+03  0.31397656101E+02  0.21814345801E+03  0.17403373332E+03 0.  0.
        -24    2    5    5    0    0 -0.40897665561E+02 -0.14843439634E+03  0.52154827597E+02  0.18162070458E+03  0.80997316162E+02 0.  0.
          5    1    3    3  502    0  0.23584241366E+02  0.90010841157E+02  0.43048802639E+02  0.10263263309E+03  0.47000000000E+01 0. -1.
        -13    1    4    4    0    0 -0.33299948899E+02  0.45466601080E+02 -0.51584153244E+02  0.76400414111E+02  0.00000000000E+00 0.  1.
         14    1    4    4    0    0  0.31316270806E+02 -0.95948350309E+01 -0.20493343894E+02  0.38636081846E+02  0.00000000000E+00 0. -1.
         -5    1    5    5    0  501  0.19297102289E+02  0.22551789131E+02 -0.20757171496E+02  0.36522753432E+02  0.47000000000E+01 0.  1.
         11    1    6    6    0    0  0.18621600052E+02 -0.84257357237E+02  0.29687858077E+02  0.91254781542E+02  0.00000000000E+00 0. -1.
        -12    1    6    6    0    0 -0.59519265613E+02 -0.64177039101E+02  0.22466969519E+02  0.90365923036E+02  0.00000000000E+00 0.  1.
</event>
<event>
12    1  0.1345781E-002  0.1845220E+03  0.7818608E-02  0.1163497E+00
         -2   -1    0    0    0  501 -0.00000000000E+00  0.00000000000E+00  0.11619462517E+03  0.11619462517E+03  0.00000000000E+00 0.  1.
          2   -1    0    0  502    0  0.00000000000E+00 -0.00000000000E+00 -0.44083133206E+03  0.44083133206E+03  0.00000000000E+00 0. -1.
          6    2    1    2  502    0  0.66883807597E+02  0.51994464701E+01 -0.32318018727E+03  0.37180612323E+03  0.17115455549E+03 0.  0.
         24    2    3    3    0    0 -0.24331177052E+02  0.19141622435E+02 -0.20072516975E+03  0.21840508343E+03  0.80322965655E+02 0.  0.
         -6    2    1    2    0  501 -0.66883807597E+02 -0.51994464701E+01 -0.14565196225E+01  0.18521983400E+03  0.17263773485E+03 0.  0.
        -24    2    5    5    0    0 -0.63067343726E+02  0.36706887062E+02 -0.52844588802E+02  0.11863507718E+03  0.77180603582E+02 0.  0.
          5    1    3    3  502    0  0.91214984649E+02 -0.13942175965E+02 -0.12245501752E+03  0.15340103980E+03  0.47000000000E+01 0. -1.
        -11    1    4    4    0    0 -0.46991356130E+02 -0.62100552354E+01 -0.80050419517E+02  0.93031295820E+02  0.00000000000E+00 0.  1.
         12    1    4    4    0    0  0.22660179079E+02  0.25351677670E+02 -0.12067475023E+03  0.12537378761E+03  0.00000000000E+00 0. -1.
         -5    1    5    5    0  501 -0.38164638718E+01 -0.41906333532E+02  0.51388069179E+02  0.66584756819E+02  0.47000000000E+01 0.  1.
         11    1    6    6    0    0 -0.30182490876E+02 -0.22018427893E+02 -0.28766714487E+02  0.47152070842E+02  0.00000000000E+00 0. -1.
        -12    1    6    6    0    0 -0.32884852850E+02  0.58725314955E+02 -0.24077874315E+02  0.71483006337E+02  0.00000000000E+00 0.  1.
</event>
<event>
12    1  0.1345781E-002  0.2267035E+03  0.7818608E-02  0.1128982E+00
         -2   -1    0    0    0  501 -0.00000000000E+00  0.00000000000E+00  0.80437170887E+03  0.80437170887E+03  0.00000000000E+00 0.  1.
          2   -1    0    0  502    0  0.00000000000E+00 -0.00000000000E+00 -0.18485158100E+03  0.18485158100E+03  0.00000000000E+00 0. -1.
          6    2    1    2  502    0 -0.88843996257E+00 -0.14739372932E+03 -0.90270524734E+02  0.24415288310E+03  0.17244176386E+03 0.  0.
         24    2    3    3    0    0 -0.37850768796E+02 -0.15613395369E+02 -0.45971373557E+02  0.10021965218E+03  0.79083201013E+02 0.  0.
         -6    2    1    2    0  501  0.88843996257E+00  0.14739372932E+03  0.70979065260E+03  0.74507040677E+03  0.17205068952E+03 0.  0.
        -24    2    5    5    0    0 -0.34416018514E+02  0.13982086699E+03  0.39502420371E+03  0.42820488265E+03  0.81123133755E+02 0.  0.
          5    1    3    3  502    0  0.36962328833E+02 -0.13178033395E+03 -0.44299151178E+02  0.14393323092E+03  0.47000000000E+01 0. -1.
        -13    1    4    4    0    0 -0.15146385048E+01 -0.29868582162E+02  0.10391568067E+02  0.31660875179E+02  0.00000000000E+00 0.  1.
         14    1    4    4    0    0 -0.36336130291E+02  0.14255186793E+02 -0.56362941624E+02  0.68558776999E+02  0.00000000000E+00 0. -1.
         -5    1    5    5    0  501  0.35304458476E+02  0.75728623253E+01  0.31476644889E+03  0.31686552412E+03  0.47000000000E+01 0.  1.
         13    1    6    6    0    0 -0.56445651599E+02  0.67363682754E+02  0.24203465777E+03  0.25749709299E+03  0.00000000000E+00 0. -1.
        -14    1    6    6    0    0  0.22029633085E+02  0.72457184239E+02  0.15298954594E+03  0.17070778965E+03  0.00000000000E+00 0.  1.
</event>
<event>
12    1  0.1345781E-002  0.2190473E+03  0.7818608E-02  0.1134595E+00
          1   -1    0    0  502    0  0.00000000000E+00  0.00000000000E+00  0.45337120336E+03  0.45337120336E+03  0.00000000000E+00 0.  1.
         -1   -1    0    0    0  501 -0.00000000000E+00 -0.00000000000E+00 -0.20831435579E+03  0.20831435579E+03  0.00000000000E+00 0. -1.
          6    2    1    2  502    0 -0.12215505000E+03 -0.59338112103E+02  0.35464405668E+03  0.41695752235E+03  0.17215777856E+03 0.  0.
         24    2    3    3    0    0 -0.15838765418E+02  0.22985611205E+02  0.14287563212E+03  0.16606251756E+03  0.79900617476E+02 0.  0.
         -6    2    1    2    0  501  0.12215505000E+03  0.59338112103E+02 -0.10958720911E+03  0.24472803680E+03  0.17157968355E+03 0.  0.
        -24    2    5    5    0    0 -0.66866804546E+01  0.35883958689E+02 -0.41221393032E+02  0.96923220819E+02  0.79765514502E+02 0.  0.
          5    1    3    3  502    0 -0.10631628458E+03 -0.82323723309E+02  0.21176842457E+03  0.25089500479E+03  0.47000000000E+01 0. -1.
        -13    1    4    4    0    0 -0.46108117901E+02  0.52808785456E+01  0.10292746778E+03  0.11290664213E+03  0.00000000000E+00 0.  1.
         14    1    4    4    0    0  0.30269352483E+02  0.17704732660E+02  0.39948164337E+02  0.53155875425E+02  0.00000000000E+00 0. -1.
         -5    1    5    5    0  501  0.12884173046E+03  0.23454153414E+02 -0.68365816079E+02  0.14780481598E+03  0.47000000000E+01 0.  1.
         13    1    6    6    0    0  0.22915154186E+02 -0.78020909081E+01 -0.36693146400E+02  0.43958661338E+02  0.00000000000E+00 0. -1.
        -14    1    6    6    0    0 -0.29601834640E+02  0.43686049597E+02 -0.45282466319E+01  0.52964559481E+02  0.00000000000E+00 0.  1.
</event>
<event>
12    1  0.1345781E-002  0.2505823E+03  0.7818608E-02  0.1112937E+00
          2   -1    0    0  502    0  0.00000000000E+00  0.00000000000E+00  0.85992035074E+03  0.85992035074E+03  0.00000000000E+00 0. -1.
         -2   -1    0    0    0  501 -0.00000000000E+00 -0.00000000000E+00 -0.74590959817E+02  0.74590959817E+02  0.00000000000E+00 0.  1.
          6    2    1    2  502    0 -0.16708319806E+03  0.74217297978E+02  0.32445698097E+03  0.40979587061E+03  0.17098339297E+03 0.  0.
         24    2    3    3    0    0 -0.10726931077E+03  0.83004769743E+02  0.12394713822E+03  0.20031745212E+03  0.79797817742E+02 0.  0.
         -6    2    1    2    0  501  0.16708319806E+03 -0.74217297978E+02  0.46087240994E+03  0.52471543994E+03  0.17174956266E+03 0.  0.
        -24    2    5    5    0    0  0.13054498456E+03 -0.19706178728E+02  0.18402573708E+03  0.24015846244E+03  0.79876709381E+02 0.  0.
          5    1    3    3  502    0 -0.59813887292E+02 -0.87874717648E+01  0.20050984275E+03  0.20947841849E+03  0.47000000000E+01 0. -1.
        -13    1    4    4    0    0 -0.47337809925E+02  0.70926731612E+00  0.11675916747E+02  0.48761648254E+02  0.00000000000E+00 0.  1.
         14    1    4    4    0    0 -0.59931500846E+02  0.82295502427E+02  0.11227122147E+03  0.15155580386E+03  0.00000000000E+00 0. -1.
         -5    1    5    5    0  501  0.36538213503E+02 -0.54511119250E+02  0.27684667287E+03  0.28455697750E+03  0.47000000000E+01 0.  1.
         13    1    6    6    0    0 -0.93898275237E+01 -0.10474694750E+02  0.16578988496E+02  0.21742836765E+02  0.00000000000E+00 0. -1.
        -14    1    6    6    0    0  0.13993481208E+03 -0.92314839787E+01  0.16744674858E+03  0.21841562568E+03  0.00000000000E+00 0.  1.
</event>
<event>
12    1  0.1345781E-002  0.1902247E+03  0.7818608E-02  0.1158259E+00
          2   -1    0    0  502    0  0.00000000000E+00  0.00000000000E+00  0.38518756906E+03  0.38518756906E+03  0.00000000000E+00 0. -1.
         -2   -1    0    0    0  501 -0.00000000000E+00 -0.00000000000E+00 -0.11165786349E+03  0.11165786349E+03  0.00000000000E+00 0.  1.
          6    2    1    2  502    0  0.51505868041E+01 -0.77281483650E+02  0.38242862659E+02  0.19472182183E+03  0.17451393953E+03 0.  0.
         24    2    3    3    0    0 -0.12048106547E+02 -0.43280928345E+02  0.83345532009E+02  0.13549198478E+03  0.96918546232E+02 0.  0.
         -6    2    1    2    0  501 -0.51505868041E+01  0.77281483650E+02  0.23528684291E+03  0.30212361072E+03  0.17297347035E+03 0.  0.
        -24    2    5    5    0    0 -0.60779623605E+02  0.71762854048E+02  0.20842198589E+03  0.23992348571E+03  0.72660064175E+02 0.  0.
          5    1    3    3  502    0  0.17198693351E+02 -0.34000555306E+02 -0.45102669350E+02  0.59229837046E+02  0.47000000000E+01 0. -1.
        -13    1    4    4    0    0 -0.43634351610E+02 -0.46922377779E+02  0.81459938082E+02  0.10364066619E+03  0.00000000000E+00 0.  1.
         14    1    4    4    0    0  0.31586245063E+02  0.36414494347E+01  0.18855939275E+01  0.31851318585E+02  0.00000000000E+00 0. -1.
         -5    1    5    5    0  501  0.55629036801E+02  0.55186296029E+01  0.26864857019E+02  0.62200125006E+02  0.47000000000E+01 0.  1.
         11    1    6    6    0    0 -0.39795107425E+02  0.81013599306E+02  0.13032549780E+03  0.15852945854E+03  0.00000000000E+00 0. -1.
        -12    1    6    6    0    0 -0.20984516181E+02 -0.92507452589E+01  0.78096488090E+02  0.81394027171E+02  0.00000000000E+00 0.  1.
</event>
<event>
12    1  0.1345781E-002  0.2171638E+03  0.7818608E-02  0.1136015E+00
          2   -1    0    0  502    0  0.00000000000E+00  0.00000000000E+00  0.15574031521E+04  0.15574031521E+04  0.00000000000E+00 0. -1.
         -2   -1    0    0    0  501 -0.00000000000E+00 -0.00000000000E+00 -0.32512380152E+02  0.32512380152E+02  0.00000000000E+00 0.  1.
          6    2    1    2  502    0 -0.13100788645E+03  0.16952600735E+02  0.55479376385E+03  0.59584855603E+03  0.17259468223E+03 0.  0.
         24    2    3    3    0    0 -0.34522092908E+02  0.46099142365E+02  0.14747412045E+03  0.17621727604E+03  0.77375747803E+02 0.  0.
         -6    2    1    2    0  501  0.13100788645E+03 -0.16952600735E+02  0.97009700813E+03  0.99406697626E+03  0.17213509551E+03 0.  0.
        -24    2    5    5    0    0  0.60229976385E+02 -0.73545520477E+02  0.68059965142E+03  0.69068095043E+03  0.69193179895E+02 0.  0.
          5    1    3    3  502    0 -0.96485793544E+02 -0.29146541630E+02  0.40731964341E+03  0.41963127999E+03  0.47000000000E+01 0. -1.
        -11    1    4    4    0    0 -0.55700625490E+02  0.49749614020E+02  0.10865772053E+03  0.13184871636E+03  0.00000000000E+00 0.  1.
         12    1    4    4    0    0  0.21178532582E+02 -0.36504716551E+01  0.38816399912E+02  0.44368559676E+02  0.00000000000E+00 0. -1.
         -5    1    5    5    0  501  0.70777910067E+02  0.56592919742E+02  0.28949735672E+03  0.30338602582E+03  0.47000000000E+01 0.  1.
         13    1    6    6    0    0  0.32605180226E+02  0.61264693638E+01  0.20350902124E+03  0.20619542461E+03  0.00000000000E+00 0. -1.
        -14    1    6    6    0    0  0.27624796159E+02 -0.79671989841E+02  0.47709063017E+03  0.48448552582E+03  0.00000000000E+00 0.  1.
</event>
<event>
12    1  0.1345781E-002  0.2589540E+03  0.7818608E-02  0.1107773E+00
         -1   -1    0    0    0  501 -0.00000000000E+00  0.00000000000E+00  0.61994281938E+03  0.61994281938E+03  0.00000000000E+00 0.  1.
          1   -1    0    0  502    0  0.00000000000E+00 -0.00000000000E+00 -0.14267815731E+03  0.14267815731E+03  0.00000000000E+00 0. -1.
          6    2    1    2  502    0 -0.34951983065E+02  0.18982727024E+03  0.42647940378E+03  0.49917403695E+03  0.17330321309E+03 0.  0.
         24    2    3    3    0    0  0.35904712112E+02  0.12624169285E+03  0.18901946973E+03  0.24329690397E+03  0.78986772174E+02 0.  0.
         -6    2    1    2    0  501  0.34951983065E+02 -0.18982727024E+03  0.50785258285E+02  0.26344693974E+03  0.17195672116E+03 0.  0.
        -24    2    5    5    0    0 -0.32927933536E+02 -0.15557760203E+03  0.58108964647E+02  0.18691949678E+03  0.79206107384E+02 0.  0.
          5    1    3    3  502    0 -0.70856695177E+02  0.63585577398E+02  0.23745993405E+03  0.25587713299E+03  0.47000000000E+01 0. -1.
        -13    1    4    4    0    0  0.23025972783E+02  0.11984468833E+03  0.19302701688E+03  0.22836894270E+03  0.00000000000E+00 0.  1.
         14    1    4    4    0    0  0.12878739329E+02  0.63970045181E+01 -0.40075471501E+01  0.14927961270E+02  0.00000000000E+00 0. -1.
         -5    1    5    5    0  501  0.67879916601E+02 -0.34249668218E+02 -0.73237063618E+01  0.76527442958E+02  0.47000000000E+01 0.  1.
         11    1    6    6    0    0 -0.20932513243E+02 -0.22044914509E+02 -0.15337146882E+02  0.34049617337E+02  0.00000000000E+00 0. -1.
        -12    1    6    6    0    0 -0.11995420294E+02 -0.13353268752E+03  0.73446111529E+02  0.15286987945E+03  0.00000000000E+00 0.  1.
</event>
<event>
12    1  0.1345781E-002  0.2095442E+03  0.7818608E-02  0.1141927E+00
          1   -1    0    0  502    0  0.00000000000E+00  0.00000000000E+00  0.58236093951E+03  0.58236093951E+03  0.00000000000E+00 0.  1.
         -1   -1    0    0    0  501 -0.00000000000E+00 -0.00000000000E+00 -0.17765351134E+03  0.17765351134E+03  0.00000000000E+00 0. -1.
          6    2    1    2  502    0  0.10782929651E+03  0.52389034963E+02 -0.85566006879E+02  0.22720080210E+03  0.17299391542E+03 0.  0.
         24    2    3    3    0    0  0.59720162956E+02 -0.12657367736E+02  0.92102848590E+01  0.10250052660E+03  0.81821890620E+02 0.  0.
         -6    2    1    2    0  501 -0.10782929651E+03 -0.52389034963E+02  0.49027343504E+03  0.53281364875E+03  0.17073539472E+03 0.  0.
        -24    2    5    5    0    0 -0.96884395083E+02 -0.68949217892E+02  0.22270477883E+03  0.26446852337E+03  0.78775635071E+02 0.  0.
          5    1    3    3  502    0  0.48109133552E+02  0.65046402699E+02 -0.94776291738E+02  0.12470027550E+03  0.47000000000E+01 0. -1.
        -13    1    4    4    0    0  0.70145183152E+02 -0.16867891329E+02 -0.16877879733E+02  0.74092747969E+02  0.00000000000E+00 0.  1.
         14    1    4    4    0    0 -0.10425020196E+02  0.42105235924E+01  0.26088164591E+02  0.28407778631E+02  0.00000000000E+00 0. -1.
         -5    1    5    5    0  501 -0.10944901425E+02  0.16560182929E+02  0.26756865621E+03  0.26834512537E+03  0.47000000000E+01 0.  1.
         11    1    6    6    0    0 -0.64583298472E+02 -0.82092022164E+02  0.18915259970E+03  0.21607593230E+03  0.00000000000E+00 0. -1.
        -12    1    6    6    0    0 -0.32301096611E+02  0.13142804272E+02  0.33552179131E+02  0.48392591073E+02  0.00000000000E+00 0.  1.
</event>
<event>
12    1  0.1345781E-002  0.2672296E+03  0.7818608E-02  0.1102876E+00
          2   -1    0    0  502    0  0.00000000000E+00  0.00000000000E+00  0.15980065754E+04  0.15980065754E+04  0.00000000000E+00 0.  1.
         -2   -1    0    0    0  501 -0.00000000000E+00 -0.00000000000E+00 -0.46025824077E+02  0.46025824077E+02  0.00000000000E+00 0. -1.
          6    2    1    2  502    0  0.16127927674E+03 -0.12051842930E+03  0.64249930197E+03  0.69674647332E+03  0.17920546350E+03 0.  0.
         24    2    3    3    0    0  0.72290998865E+02 -0.43827763689E+02  0.14791605683E+03  0.18838139961E+03  0.80383645513E+02 0.  0.
         -6    2    1    2    0  501 -0.16127927674E+03  0.12051842930E+03  0.90948144938E+03  0.94728592618E+03  0.17221620791E+03 0.  0.
        -24    2    5    5    0    0 -0.84420237899E+02  0.10129455692E+03  0.35690635938E+03  0.38904029099E+03  0.81134670879E+02 0.  0.
          5    1    3    3  502    0  0.88988277880E+02 -0.76690665611E+02  0.49458324514E+03  0.50836507371E+03  0.47000000000E+01 0. -1.
        -11    1    4    4    0    0 -0.95677127995E+01  0.12857978599E+02  0.30308066610E+02  0.34284801931E+02  0.00000000000E+00 0.  1.
         12    1    4    4    0    0  0.81858711665E+02 -0.56685742287E+02  0.11760799022E+03  0.15409659768E+03  0.00000000000E+00 0. -1.
         -5    1    5    5    0  501 -0.76859038846E+02  0.19223872379E+02  0.55257509000E+03  0.55824563519E+03  0.47000000000E+01 0.  1.
         11    1    6    6    0    0 -0.30373294485E+02  0.79230594378E+02  0.13391870819E+03  0.15853783305E+03  0.00000000000E+00 0. -1.
        -12    1    6    6    0    0 -0.54046943414E+02  0.22063962544E+02  0.22298765119E+03  0.23050245794E+03  0.00000000000E+00 0.  1.
</event>
<event>
12    1  0.1345781E-002  0.3098069E+03  0.7818608E-02  0.1080438E+00
         -1   -1    0    0    0  501 -0.00000000000E+00  0.00000000000E+00  0.10104585678E+03  0.10104585678E+03  0.00000000000E+00 0. -1.
          1   -1    0    0  502    0  0.00000000000E+00 -0.00000000000E+00 -0.95501096121E+03  0.95501096121E+03  0.00000000000E+00 0.  1.
          6    2    1    2  502    0 -0.21080070430E+03 -0.14786394334E+03 -0.38849663952E+03  0.49701771574E+03  0.17261601364E+03 0.  0.
         24    2    3    3    0    0 -0.30444485386E+02 -0.69769883629E+02 -0.17179690060E+03  0.20442941332E+03  0.80514015066E+02 0.  0.
         -6    2    1    2    0  501  0.21080070430E+03  0.14786394334E+03 -0.46546846491E+03  0.55903910225E+03  0.17193935948E+03 0.  0.
        -24    2    5    5    0    0  0.21631023626E+03  0.96754564122E+02 -0.42702246718E+03  0.49467522785E+03  0.78764392836E+02 0.  0.
          5    1    3    3  502    0 -0.18035621892E+03 -0.78094059707E+02 -0.21669973893E+03  0.29258830242E+03  0.47000000000E+01 0. -1.
        -11    1    4    4    0    0 -0.17026245104E+02 -0.29455236207E+02 -0.15508323796E+03  0.15877126522E+03  0.00000000000E+00 0.  1.
         12    1    4    4    0    0 -0.13418240282E+02 -0.40314647421E+02 -0.16713662634E+02  0.45658148097E+02  0.00000000000E+00 0. -1.
         -5    1    5    5    0  501 -0.55095319586E+01  0.51109379213E+02 -0.38445997727E+02  0.64363874396E+02  0.47000000000E+01 0.  1.
         13    1    6    6    0    0 -0.43885277744E+01  0.16219504185E+01 -0.11389910799E-01  0.46786781163E+01  0.00000000000E+00 0. -1.
        -14    1    6    6    0    0  0.22069876404E+03  0.95132613704E+02 -0.42701107727E+03  0.48999654973E+03  0.00000000000E+00 0.  1.
</event>
<event>
12    1  0.1345781E-002  0.1766288E+03  0.7818608E-02  0.1171106E+00
         -1   -1    0    0    0  501 -0.00000000000E+00  0.00000000000E+00  0.40546580139E+02  0.40546580139E+02  0.00000000000E+00 0. -1.
          1   -1    0    0  502    0  0.00000000000E+00 -0.00000000000E+00 -0.99330748585E+03  0.99330748585E+03  0.00000000000E+00 0.  1.
          6    2    1    2  502    0 -0.34625323822E+02  0.27144208746E+02 -0.23869378862E+03  0.29911221685E+03  0.17480752966E+03 0.  0.
         24    2    3    3    0    0 -0.87746187751E+01 -0.85291795401E+00 -0.24721643885E+03  0.25978253821E+03  0.79330184166E+02 0.  0.
         -6    2    1    2    0  501  0.34625323822E+02 -0.27144208746E+02 -0.71406711709E+03  0.73474184914E+03  0.16738582987E+03 0.  0.
        -24    2    5    5    0    0  0.66068799184E+02  0.28019322053E+02 -0.46101853804E+03  0.47380626200E+03  0.82487046625E+02 0.  0.
          5    1    3    3  502    0 -0.25850705047E+02  0.27997126700E+02  0.85226502306E+01  0.39329678639E+02  0.47000000000E+01 0. -1.
        -11    1    4    4    0    0 -0.22571323967E+02 -0.34269634051E+02 -0.97908772908E+02  0.10616025761E+03  0.00000000000E+00 0.  1.
         12    1    4    4    0    0  0.13796705192E+02  0.33416716097E+02 -0.14930766594E+03  0.15362228060E+03  0.00000000000E+00 0. -1.
         -5    1    5    5    0  501 -0.31443475362E+02 -0.55163530799E+02 -0.25304857906E+03  0.26093558714E+03  0.47000000000E+01 0.  1.
         11    1    6    6    0    0  0.38193087469E+02  0.52815511838E+02 -0.20578129157E+03  0.21585673532E+03  0.00000000000E+00 0. -1.
        -12    1    6    6    0    0  0.27875711715E+02 -0.24796189785E+02 -0.25523724647E+03  0.25794952668E+03  0.00000000000E+00 0.  1.
</event>
<event>
12    1  0.1345781E-002  0.1798144E+03  0.7818608E-02  0.1167983E+00
         -2   -1    0    0    0  501 -0.00000000000E+00  0.00000000000E+00  0.15158859502E+02  0.15158859502E+02  0.00000000000E+00 0. -1.
          2   -1    0    0  502    0  0.00000000000E+00 -0.00000000000E+00 -0.21506047884E+04  0.21506047884E+04  0.00000000000E+00 0.  1.
          6    2    1    2  502    0  0.43210458875E+02  0.21944925804E+02 -0.11745938678E+04  0.11885170386E+04  0.17479494641E+03 0.  0.
         24    2    3    3    0    0  0.94426620791E+01  0.67786052539E+02 -0.33996906032E+03  0.35193928834E+03  0.59984897410E+02 0.  0.
         -6    2    1    2    0  501 -0.43210458875E+02 -0.21944925804E+02 -0.96085206108E+03  0.97724660926E+03  0.17153870849E+03 0.  0.
        -24    2    5    5    0    0  0.11252507630E+02 -0.23467164629E+02 -0.23446221970E+03  0.24880112496E+03  0.79070478528E+02 0.  0.
          5    1    3    3  502    0  0.33767796796E+02 -0.45841126735E+02 -0.83462480746E+03  0.83657775026E+03  0.47000000000E+01 0. -1.
        -11    1    4    4    0    0 -0.12936350839E+02  0.10857649272E+01 -0.12674537338E+03  0.12740846806E+03  0.00000000000E+00 0.  1.
         12    1    4    4    0    0  0.22379012918E+02  0.66700287612E+02 -0.21322368694E+03  0.22453082029E+03  0.00000000000E+00 0. -1.
         -5    1    5    5    0  501 -0.54462966505E+02  0.15222388252E+01 -0.72638984138E+03  0.72844548430E+03  0.47000000000E+01 0.  1.
         13    1    6    6    0    0  0.29197928496E+02  0.21692263749E+01 -0.20047469225E+03  0.20260139882E+03  0.00000000000E+00 0. -1.
        -14    1    6    6    0    0 -0.17945420866E+02 -0.25636391004E+02 -0.33987527447E+02  0.46199726144E+02  0.00000000000E+00 0.  1.
</event>
<event>
12    1  0.1345781E-002  0.2135174E+03  0.7818608E-02  0.1138811E+00
          2   -1    0    0  502    0  0.00000000000E+00  0.00000000000E+00  0.89715889645E+03  0.89715889645E+03  0.00000000000E+00 0.  1.
         -2   -1    0    0    0  501 -0.00000000000E+00 -0.00000000000E+00 -0.80363584148E+02  0.80363584148E+02  0.00000000000E+00 0. -1.
          6    2    1    2  502    0 -0.13036840130E+03 -0.38012109709E+01  0.11332922058E+03  0.24267504109E+03  0.17040332763E+03 0.  0.
         24    2    3    3    0    0 -0.12471104247E+03 -0.42810750538E+02  0.40607083670E+02  0.15982367367E+03  0.80678788706E+02 0.  0.
         -6    2    1    2    0  501  0.13036840130E+03  0.38012109709E+01  0.70346609172E+03  0.73484743951E+03  0.16770762620E+03 0.  0.
        -24    2    5    5    0    0  0.10418648011E+03  0.41315638139E+02  0.64832493722E+03  0.66304589243E+03  0.82114716429E+02 0.  0.
          5    1    3    3  502    0 -0.56573588352E+01  0.39009539567E+02  0.72722136912E+02  0.82851367419E+02  0.47000000000E+01 0. -1.
        -13    1    4    4    0    0 -0.27431684406E+01 -0.30130399488E+02  0.17777497662E+02  0.35091385973E+02  0.00000000000E+00 0.  1.
         14    1    4    4    0    0 -0.12196787403E+03 -0.12680351050E+02  0.22829586008E+02  0.12473228770E+03  0.00000000000E+00 0. -1.
         -5    1    5    5    0  501  0.26181921189E+02 -0.37514427168E+02  0.55141154505E+02  0.71801547080E+02  0.47000000000E+01 0.  1.
         13    1    6    6    0    0  0.86403895871E+01  0.84477392950E+01  0.73238956896E+01  0.14130112508E+02  0.00000000000E+00 0. -1.
        -14    1    6    6    0    0  0.95546090527E+02  0.32867898844E+02  0.64100104153E+03  0.64891577992E+03  0.00000000000E+00 0.  1.
</event>
<event>
12    1  0.1345781E-002  0.1986161E+03  0.7818608E-02  0.1150912E+00
         -2   -1    0    0    0  501 -0.00000000000E+00  0.00000000000E+00  0.21436164120E+02  0.21436164120E+02  0.00000000000E+00 0. -1.
          2   -1    0    0  502    0  0.00000000000E+00 -0.00000000000E+00 -0.20779568160E+04  0.20779568160E+04  0.00000000000E+00 0.  1.
          6    2    1    2  502    0 -0.86630065977E+02 -0.58319078560E+02 -0.13833322941E+04  0.13975197732E+04  0.16895975065E+03 0.  0.
         24    2    3    3    0    0 -0.33640556985E+02 -0.66092914418E+02 -0.12338932167E+04  0.12387040043E+04  0.79969867630E+02 0.  0.
         -6    2    1    2    0  501  0.86630065977E+02  0.58319078560E+02 -0.67318835777E+03  0.70187320691E+03  0.16893060789E+03 0.  0.
        -24    2    5    5    0    0  0.32748610421E+02 -0.30039987065E+02 -0.37694545645E+03  0.38803808728E+03  0.80689576350E+02 0.  0.
          5    1    3    3  502    0 -0.52989508993E+02  0.77738358583E+01 -0.14943907741E+03  0.15881576888E+03  0.47000000000E+01 0. -1.
        -13    1    4    4    0    0 -0.24733745584E+01 -0.50566014259E+02 -0.30616000266E+03  0.31031755768E+03  0.00000000000E+00 0.  1.
         14    1    4    4    0    0 -0.31167182426E+02 -0.15526900159E+02 -0.92773321403E+03  0.92838644664E+03  0.00000000000E+00 0. -1.
         -5    1    5    5    0  501  0.53881455556E+02  0.88359065625E+02 -0.29624290132E+03  0.31383511963E+03  0.47000000000E+01 0. -1.
         11    1    6    6    0    0 -0.10957931105E+02 -0.22146152563E+02 -0.28350197739E+03  0.28457670234E+03  0.00000000000E+00 0. -1.
        -12    1    6    6    0    0  0.43706541526E+02 -0.78938345020E+01 -0.93443479062E+02  0.10346138494E+03  0.00000000000E+00 0.  1.
</event>
<event>
12    1  0.1345781E-002  0.2223809E+03  0.7818608E-02  0.1132120E+00
         -2   -1    0    0    0  501 -0.00000000000E+00  0.00000000000E+00  0.19832823427E+02  0.19832823427E+02  0.00000000000E+00 0. -1.
          2   -1    0    0  502    0  0.00000000000E+00 -0.00000000000E+00 -0.26036941507E+04  0.26036941507E+04  0.00000000000E+00 0.  1.
          6    2    1    2  502    0 -0.71594587366E+01 -0.14390337307E+03 -0.15485647140E+04  0.15641251098E+04  0.16635878978E+03 0.  0.
         24    2    3    3    0    0 -0.21470258800E+02 -0.69859835520E+02 -0.43966043920E+03  0.45264950270E+03  0.79049995962E+02 0.  0.
         -6    2    1    2    0  501  0.71594587366E+01  0.14390337307E+03 -0.10352966133E+04  0.10594018644E+04  0.17243489821E+03 0.  0.
        -24    2    5    5    0    0 -0.17123172816E+02  0.13810067532E+03 -0.10130026088E+04  0.10256020104E+04  0.79499676834E+02 0.  0.
          5    1    3    3  502    0  0.14310800063E+02 -0.74043537548E+02 -0.11089042748E+04  0.11114756071E+04  0.47000000000E+01 0. -1.
        -11    1    4    4    0    0  0.11606765194E+02 -0.42459357029E+02 -0.35498075989E+03  0.35769939039E+03  0.00000000000E+00 0.  1.
         12    1    4    4    0    0 -0.33077023994E+02 -0.27400478491E+02 -0.84679679313E+02  0.94950112303E+02  0.00000000000E+00 0. -1.
         -5    1    5    5    0  501  0.24282631553E+02  0.58026977438E+01 -0.22294004494E+02  0.33799854033E+02  0.47000000000E+01 0.  1.
         11    1    6    6    0    0 -0.19052527652E+02  0.53299170151E+02 -0.19033382079E+03  0.19857180989E+03  0.00000000000E+00 0. -1.
        -12    1    6    6    0    0  0.19293548358E+01  0.84801505174E+02 -0.82266878804E+03  0.82703020048E+03  0.00000000000E+00 0.  1.
</event>
<event>
12    1  0.1345781E-002  0.1756478E+03  0.7818608E-02  0.1172083E+00
          2   -1    0    0  502    0  0.00000000000E+00  0.00000000000E+00  0.23719645228E+02  0.23719645228E+02  0.00000000000E+00 0. -1.
         -2   -1    0    0    0  501 -0.00000000000E+00 -0.00000000000E+00 -0.13012893343E+04  0.13012893343E+04  0.00000000000E+00 0.  1.
          6    2    1    2  502    0  0.16428286511E+02 -0.31188569024E+02 -0.62209354380E+03  0.64619760464E+03  0.17125522351E+03 0.  0.
         24    2    3    3    0    0 -0.27276728542E+02 -0.44968950671E+02 -0.56480014083E+03  0.57268127120E+03  0.78729999761E+02 0.  0.
         -6    2    1    2    0  501 -0.16428286511E+02  0.31188569024E+02 -0.65547614528E+03  0.67881137489E+03  0.17289676171E+03 0.  0.
        -24    2    5    5    0    0  0.49925720279E+02 -0.11458585189E+02 -0.29805052261E+03  0.31275564181E+03  0.79737699580E+02 0.  0.
          5    1    3    3  502    0  0.43705015052E+02  0.13780381646E+02 -0.57293402965E+02  0.73516333440E+02  0.47000000000E+01 0. -1.
        -11    1    4    4    0    0  0.18774713488E+02  0.93285873094E+00 -0.27657575120E+03  0.27721382765E+03  0.00000000000E+00 0.  1.
         12    1    4    4    0    0 -0.46051442030E+02 -0.45901809401E+02 -0.28822438963E+03  0.29546744355E+03  0.00000000000E+00 0. -1.
         -5    1    5    5    0  501 -0.66354006790E+02  0.42647154213E+02 -0.35742562267E+03  0.36605573308E+03  0.47000000000E+01 0.  1.
         11    1    6    6    0    0 -0.77640971123E+01  0.18350678016E+02 -0.24380455158E+02  0.31487063714E+02  0.00000000000E+00 0. -1.
        -12    1    6    6    0    0  0.57689817392E+02 -0.29809263205E+02 -0.27367006745E+03  0.28126857809E+03  0.00000000000E+00 0.  1.
</event>
<event>
12    1  0.1345781E-002  0.2174837E+03  0.7818608E-02  0.1135773E+00
          2   -1    0    0  502    0  0.00000000000E+00  0.00000000000E+00  0.15251953184E+04  0.15251953184E+04  0.00000000000E+00 0. -1.
         -2   -1    0    0    0  501 -0.00000000000E+00 -0.00000000000E+00 -0.31176216693E+02  0.31176216693E+02  0.00000000000E+00 0.  1.
          6    2    1    2  502    0  0.13247638317E+03 -0.44898918517E+01  0.68933598267E+03  0.72272558524E+03  0.17198262507E+03 0.  0.
         24    2    3    3    0    0  0.14899901124E+03 -0.54564356729E+01  0.41932674058E+03  0.45216872936E+03  0.79944771002E+02 0.  0.
         -6    2    1    2    0  501 -0.13247638317E+03  0.44898918517E+01  0.80468311899E+03  0.83364594981E+03  0.17285975940E+03 0.  0.
        -24    2    5    5    0    0 -0.10426987225E+03 -0.48604360301E+02  0.38032608294E+03  0.40502538227E+03  0.78505036924E+02 0.  0.
          5    1    3    3  502    0 -0.16522628067E+02  0.96654382123E+00  0.27000924210E+03  0.27055685588E+03  0.47000000000E+01 0. -1.
        -11    1    4    4    0    0  0.10355182937E+03 -0.19124203805E+01  0.17278420473E+03  0.20144731351E+03  0.00000000000E+00 0.  1.
         12    1    4    4    0    0  0.45447181870E+02 -0.35440152925E+01  0.24654253585E+03  0.25072141585E+03  0.00000000000E+00 0. -1.
         -5    1    5    5    0  501 -0.28206510923E+02  0.53094252153E+02  0.42435703605E+03  0.42862056753E+03  0.47000000000E+01 0.  1.
         11    1    6    6    0    0 -0.37226516135E+02 -0.38304503196E+02  0.27215125428E+03  0.27734338585E+03  0.00000000000E+00 0. -1.
        -12    1    6    6    0    0 -0.67043356111E+02 -0.10299857106E+02  0.10817482866E+03  0.12768199643E+03  0.00000000000E+00 0.  1.
</event>
<event>
12    1  0.1345781E-002  0.1935243E+03  0.7818608E-02  0.1155321E+00
          2   -1    0    0  502    0  0.00000000000E+00  0.00000000000E+00  0.48758289265E+03  0.48758289265E+03  0.00000000000E+00 0. -1.
         -2   -1    0    0    0  501 -0.00000000000E+00 -0.00000000000E+00 -0.77112770488E+02  0.77112770488E+02  0.00000000000E+00 0.  1.
          6    2    1    2  502    0  0.33373002567E+02 -0.82037117969E+02  0.18757473730E+03  0.26951525526E+03  0.17207656645E+03 0.  0.
         24    2    3    3    0    0  0.70539151384E+02 -0.53535398430E+02  0.18751502892E+03  0.22244335069E+03  0.80481969625E+02 0.  0.
         -6    2    1    2    0  501 -0.33373002567E+02  0.82037117969E+02  0.22289538485E+03  0.29518040787E+03  0.17206183358E+03 0.  0.
        -24    2    5    5    0    0  0.17276493221E+02  0.96022003005E+02  0.97710071843E+02  0.15933343136E+03  0.79505860983E+02 0.  0.
          5    1    3    3  502    0 -0.37166148818E+02 -0.28501719539E+02  0.59708385038E-01  0.47071904569E+02  0.47000000000E+01 0. -1.
        -11    1    4    4    0    0  0.50981790288E+02 -0.74886784376E+02  0.14617698499E+03  0.17197349900E+03  0.00000000000E+00 0.  1.
         12    1    4    4    0    0  0.19557361096E+02  0.21351385946E+02  0.41338043925E+02  0.50469851698E+02  0.00000000000E+00 0. -1.
         -5    1    5    5    0  501 -0.50649495788E+02 -0.13984885036E+02  0.12518531301E+03  0.13584697651E+03  0.47000000000E+01 0.  1.
         11    1    6    6    0    0  0.28979335168E+02  0.10444345985E+03  0.96044057180E+02  0.14481953974E+03  0.00000000000E+00 0. -1.
        -12    1    6    6    0    0 -0.11702841946E+02 -0.84214568447E+01  0.16660146625E+01  0.14513891617E+02  0.00000000000E+00 0.  1.
</event>
<event>
12    1  0.1345781E-002  0.1758322E+03  0.7818608E-02  0.1171899E+00
          2   -1    0    0  502    0  0.00000000000E+00  0.00000000000E+00  0.19451395392E+04  0.19451395392E+04  0.00000000000E+00 0. -1.
         -2   -1    0    0    0  501 -0.00000000000E+00 -0.00000000000E+00 -0.18114256993E+02  0.18114256993E+02  0.00000000000E+00 0.  1.
          6    2    1    2  502    0  0.81596712769E+01  0.38097262890E+02  0.13058062628E+04  0.13175543991E+04  0.17117715037E+03 0.  0.
         24    2    3    3    0    0  0.21592414810E+02  0.51639777832E+02  0.40922543481E+03  0.42075837462E+03  0.80244964241E+02 0.  0.
         -6    2    1    2    0  501 -0.81596712769E+01 -0.38097262890E+02  0.62121901940E+03  0.64569939714E+03  0.17174591618E+03 0.  0.
        -24    2    5    5    0    0 -0.37526031026E+02 -0.83367508782E+02  0.38395487389E+03  0.40233106931E+03  0.78042293786E+02 0.  0.
          5    1    3    3  502    0 -0.13432743533E+02 -0.13542514942E+02  0.89658082803E+03  0.89679602446E+03  0.47000000000E+01 0. -1.
        -13    1    4    4    0    0  0.21959113709E+02  0.57241374192E+02  0.41045763639E+03  0.41501114306E+03  0.00000000000E+00 0.  1.
         14    1    4    4    0    0 -0.36669889866E+00 -0.56015963603E+01 -0.12322015796E+01  0.57472315595E+01  0.00000000000E+00 0. -1.
         -5    1    5    5    0  501  0.29366359749E+02  0.45270245892E+02  0.23726414550E+03  0.24336832783E+03  0.47000000000E+01 0.  1.
         11    1    6    6    0    0 -0.39333183421E+02 -0.51647121600E+01  0.16875643790E+03  0.17335659463E+03  0.00000000000E+00 0. -1.
        -12    1    6    6    0    0  0.18071523957E+01 -0.78202796622E+02  0.21519843599E+03  0.22897447467E+03  0.00000000000E+00 0.  1.
</event>
<event>
12    1  0.1345781E-002  0.3037629E+03  0.7818608E-02  0.1083375E+00
         -3   -1    0    0    0  501 -0.00000000000E+00  0.00000000000E+00  0.14102177731E+03  0.14102177731E+03  0.00000000000E+00 0.  1.
          3   -1    0    0  502    0  0.00000000000E+00 -0.00000000000E+00 -0.85575833489E+03  0.85575833489E+03  0.00000000000E+00 0. -1.
          6    2    1    2  502    0 -0.28636640267E+00 -0.25025370078E+03 -0.59949033263E+03  0.67221366289E+03  0.17278759475E+03 0.  0.
         24    2    3    3    0    0 -0.24426530987E+02 -0.62658013069E+02 -0.29954136980E+03  0.31757813182E+03  0.81290562618E+02 0.  0.
         -6    2    1    2    0  501  0.28636640267E+00  0.25025370078E+03 -0.11524622495E+03  0.32456644932E+03  0.17156541288E+03 0.  0.
        -24    2    5    5    0    0 -0.97393225057E+01  0.26660624750E+03 -0.12262420559E+03  0.30348458933E+03  0.76762325093E+02 0.  0.
          5    1    3    3  502    0  0.24140164584E+02 -0.18759568771E+03 -0.29994896283E+03  0.35463553107E+03  0.47000000000E+01 0. -1.
        -11    1    4    4    0    0 -0.24802859128E+02 -0.53041220974E+01 -0.20242740332E+02  0.32451256806E+02  0.00000000000E+00 0.  1.
         12    1    4    4    0    0  0.37632814082E+00 -0.57353890971E+02 -0.27929862947E+03  0.28512687501E+03  0.00000000000E+00 0. -1.
         -5    1    5    5    0  501  0.10025688908E+02 -0.16352546719E+02  0.73779806424E+01  0.21081859990E+02  0.47000000000E+01 0.  1.
         13    1    6    6    0    0 -0.17678957753E+01  0.39180827431E+02 -0.52158598429E+02  0.65259344800E+02  0.00000000000E+00 0. -1.
        -14    1    6    6    0    0 -0.79714267304E+01  0.22742542007E+03 -0.70465607165E+02  0.23822524453E+03  0.00000000000E+00 0.  1.
</event>
<event>
12    1  0.1345781E-002  0.2124050E+03  0.7818608E-02  0.1139676E+00
          2   -1    0    0  502    0  0.00000000000E+00  0.00000000000E+00  0.78999293856E+03  0.78999293856E+03  0.00000000000E+00 0. -1.
         -2   -1    0    0    0  501 -0.00000000000E+00 -0.00000000000E+00 -0.81830542820E+02  0.81830542820E+02  0.00000000000E+00 0.  1.
          6    2    1    2  502    0 -0.59507312067E+02  0.11699503963E+03  0.59655287907E+03  0.63409227866E+03  0.17020200012E+03 0.  0.
         24    2    3    3    0    0  0.10962597773E+02  0.11073072551E+03  0.46311625137E+03  0.48298743613E+03  0.80116971077E+02 0.  0.
         -6    2    1    2    0  501  0.59507312067E+02 -0.11699503963E+03  0.11160951667E+03  0.23773120272E+03  0.16380012530E+03 0.  0.
        -24    2    5    5    0    0  0.93643141352E+02 -0.11608363745E+03  0.70370141375E+02  0.18398307187E+03  0.81568162491E+02 0.  0.
          5    1    3    3  502    0 -0.70469909840E+02  0.62643141141E+01  0.13343662770E+03  0.15110484253E+03  0.47000000000E+01 0. -1.
        -13    1    4    4    0    0 -0.99476243069E+01  0.82782399362E+02  0.41643277358E+03  0.42469769929E+03  0.00000000000E+00 0.  1.
         14    1    4    4    0    0  0.20910222079E+02  0.27948326152E+02  0.46683477793E+02  0.58289736841E+02  0.00000000000E+00 0. -1.
         -5    1    5    5    0  501 -0.34135829285E+02 -0.91140217865E+00  0.41239375292E+02  0.53748130846E+02  0.47000000000E+01 0.  1.
         13    1    6    6    0    0  0.17463487261E+02  0.10777305150E+02  0.17093959882E+02  0.26708185226E+02  0.00000000000E+00 0. -1.
        -14    1    6    6    0    0  0.76179654091E+02 -0.12686094260E+03  0.53276181493E+02  0.15727488664E+03  0.00000000000E+00 0.  1.
</event>
<event>
12    1  0.1345781E-002  0.1840468E+03  0.7818608E-02  0.1163943E+00
         -2   -1    0    0    0  501 -0.00000000000E+00  0.00000000000E+00  0.88082352726E+02  0.88082352726E+02  0.00000000000E+00 0.  1.
          2   -1    0    0  502    0  0.00000000000E+00 -0.00000000000E+00 -0.41590827794E+03  0.41590827794E+03  0.00000000000E+00 0. -1.
          6    2    1    2  502    0  0.16603663911E+02 -0.65511645574E+02 -0.93737180861E+02  0.20544734708E+03  0.16986611194E+03 0.  0.
         24    2    3    3    0    0  0.50161067874E+01 -0.67522434825E+01 -0.11730828140E+03  0.14091343665E+03  0.77618358816E+02 0.  0.
         -6    2    1    2    0  501 -0.16603663911E+02  0.65511645574E+02 -0.23408874436E+03  0.29854328359E+03  0.17251983823E+03 0.  0.
        -24    2    5    5    0    0 -0.60508349445E+02 -0.14042134383E+01 -0.12274528738E+03  0.16133975225E+03  0.85445174917E+02 0.  0.
          5    1    3    3  502    0  0.11587557124E+02 -0.58759402091E+02  0.23571100538E+02  0.64533910425E+02  0.47000000000E+01 0. -1.
        -13    1    4    4    0    0  0.39052604639E+02  0.34324875452E+01 -0.40926269957E+02  0.56673163600E+02  0.00000000000E+00 0.  1.
         14    1    4    4    0    0 -0.34036497852E+02 -0.10184731028E+02 -0.76382011441E+02  0.84240273052E+02  0.00000000000E+00 0. -1.
         -5    1    5    5    0  501  0.43904685534E+02  0.66915859012E+02 -0.11134345698E+03  0.13720353134E+03  0.47000000000E+01 0.  1.
         13    1    6    6    0    0  0.32128595834E+01 -0.22830914691E+01 -0.89266895501E+02  0.89353867324E+02  0.00000000000E+00 0. -1.
        -14    1    6    6    0    0 -0.63721209028E+02  0.87887803072E+00 -0.33478391874E+02  0.71985884930E+02  0.00000000000E+00 0.  1.
</event>
<event>
12    1  0.1345781E-002  0.3260688E+03  0.7818608E-02  0.1072890E+00
         -2   -1    0    0    0  501 -0.00000000000E+00  0.00000000000E+00  0.10732018701E+03  0.10732018701E+03  0.00000000000E+00 0.  1.
          2   -1    0    0  502    0  0.00000000000E+00 -0.00000000000E+00 -0.99781756929E+03  0.99781756929E+03  0.00000000000E+00 0. -1.
          6    2    1    2  502    0  0.16298950869E+03  0.22435186875E+03 -0.49244447012E+03  0.59081255147E+03  0.17221664804E+03 0.  0.
         24    2    3    3    0    0  0.13566873105E+03  0.21466506712E+03 -0.32247317802E+03  0.41832316293E+03  0.80735509418E+02 0.  0.
         -6    2    1    2    0  501 -0.16298950869E+03 -0.22435186875E+03 -0.39805291215E+03  0.51432520483E+03  0.17083604566E+03 0.  0.
        -24    2    5    5    0    0 -0.17807356731E+03 -0.22484331383E+03 -0.39892911227E+03  0.49849396768E+03  0.84184844527E+02 0.  0.
          5    1    3    3  502    0  0.27320777632E+02  0.96868016337E+01 -0.16997129211E+03  0.17248938854E+03  0.47000000000E+01 0. -1.
        -11    1    4    4    0    0  0.72933708994E+02  0.64544586891E+02 -0.16675123134E+03  0.19310956154E+03  0.00000000000E+00 0.  1.
         12    1    4    4    0    0  0.62735022059E+02  0.15012048023E+03 -0.15572194667E+03  0.22521360139E+03  0.00000000000E+00 0. -1.
         -5    1    5    5    0  501  0.15084058629E+02  0.49144507772E+00  0.87620012052E+00  0.15831237148E+02  0.47000000000E+01 0.  1.
         13    1    6    6    0    0 -0.81687517137E+02 -0.46164452704E+02 -0.15436598136E+03  0.18064568456E+03  0.00000000000E+00 0. -1.
        -14    1    6    6    0    0 -0.96386050177E+02 -0.17867886112E+03 -0.24456313092E+03  0.31784828312E+03  0.00000000000E+00 0.  1.
</event>
<event>
12    1  0.1345781E-002  0.2180707E+03  0.7818608E-02  0.1135330E+00
          2   -1    0    0  502    0  0.00000000000E+00  0.00000000000E+00  0.28779697004E+03  0.28779697004E+03  0.00000000000E+00 0. -1.
         -2   -1    0    0    0  501 -0.00000000000E+00 -0.00000000000E+00 -0.34853295442E+03  0.34853295442E+03  0.00000000000E+00 0.  1.
          6    2    1    2  502    0 -0.49620777152E+02 -0.12415748993E+03  0.20030060016E+03  0.29677025245E+03  0.17342130344E+03 0.  0.
         24    2    3    3    0    0  0.96671996582E+01 -0.55871422677E+02  0.23425742574E+02  0.98062284771E+02  0.76500821291E+02 0.  0.
         -6    2    1    2    0  501  0.49620777152E+02  0.12415748993E+03 -0.26103658454E+03  0.33955967201E+03  0.17112383982E+03 0.  0.
        -24    2    5    5    0    0 -0.17149464975E+02  0.11642991226E+03 -0.10279382419E+03  0.16756885279E+03  0.60520422306E+02 0.  0.
          5    1    3    3  502    0 -0.59287976810E+02 -0.68286067252E+02  0.17687485758E+03  0.19870796768E+03  0.47000000000E+01 0. -1.
        -11    1    4    4    0    0 -0.15918220318E+02 -0.19378599941E+02 -0.22769182144E+02  0.33872636881E+02  0.00000000000E+00 0.  1.
         12    1    4    4    0    0  0.25585419976E+02 -0.36492822736E+02  0.46194924718E+02  0.64189647890E+02  0.00000000000E+00 0. -1.
         -5    1    5    5    0  501  0.66770242127E+02  0.77275776661E+01 -0.15824276035E+03  0.17199081921E+03  0.47000000000E+01 0.  1.
         11    1    6    6    0    0  0.13586249366E+02  0.18635099979E+01 -0.10227107471E+02  0.17107091178E+02  0.00000000000E+00 0. -1.
        -12    1    6    6    0    0 -0.30735714341E+02  0.11456640226E+03 -0.92566716721E+02  0.15046176162E+03  0.00000000000E+00 0.  1.
</event>
<event>
12    1  0.1345781E-002  0.2023014E+03  0.7818608E-02  0.1147812E+00
         -2   -1    0    0    0  501 -0.00000000000E+00  0.00000000000E+00  0.30886278294E+03  0.30886278294E+03  0.00000000000E+00 0. -1.
          2   -1    0    0  502    0  0.00000000000E+00 -0.00000000000E+00 -0.15080405526E+03  0.15080405526E+03  0.00000000000E+00 0.  1.
          6    2    1    2  502    0 -0.61023338801E+02 -0.86037097493E+02  0.15917987165E+03  0.25762415670E+03  0.17293277465E+03 0.  0.
         24    2    3    3    0    0 -0.61634886314E+02 -0.65029941026E+02  0.18686271179E+03  0.22255131462E+03  0.81139769189E+02 0.  0.
         -6    2    1    2    0  501  0.61023338801E+02  0.86037097493E+02 -0.11211439803E+01  0.20204268150E+03  0.17231876904E+03 0.  0.
        -24    2    5    5    0    0  0.91468661004E+02  0.85039121772E+02  0.24695618509E+02  0.16183685077E+03  0.99915586950E+02 0.  0.
          5    1    3    3  502    0  0.61154751295E+00 -0.21007156467E+02 -0.27682840132E+02  0.35072842071E+02  0.47000000000E+01 0. -1.
        -13    1    4    4    0    0 -0.52425399268E+02 -0.78567987545E+02  0.11484995170E+03  0.14870058023E+03  0.00000000000E+00 0.  1.
         14    1    4    4    0    0 -0.92094870458E+01  0.13538046519E+02  0.72012760090E+02  0.73850734397E+02  0.00000000000E+00 0. -1.
         -5    1    5    5    0  501 -0.30445322204E+02  0.99797572051E+00 -0.25816762490E+02  0.40205830735E+02  0.47000000000E+01 0.  1.
         13    1    6    6    0    0 -0.72228211755E+01  0.54096085890E+02 -0.33326127108E+01  0.54677801362E+02  0.00000000000E+00 0. -1.
        -14    1    6    6    0    0  0.98691482180E+02  0.30943035882E+02  0.28028231220E+02  0.10715904941E+03  0.00000000000E+00 0.  1.
</event>
<event>
12    1  0.1345781E-002  0.1861247E+03  0.7818608E-02  0.1162004E+00
          1   -1    0    0  502    0  0.00000000000E+00  0.00000000000E+00  0.13249372211E+04  0.13249372211E+04  0.00000000000E+00 0. -1.
         -1   -1    0    0    0  501 -0.00000000000E+00 -0.00000000000E+00 -0.32229385878E+02  0.32229385878E+02  0.00000000000E+00 0.  1.
          6    2    1    2  502    0 -0.52057032731E+02  0.43531112294E+02  0.94381210207E+03  0.96217396198E+03  0.17433461133E+03 0.  0.
         24    2    3    3    0    0 -0.73743334691E+02  0.41609135373E+02  0.33078107808E+03  0.34873845921E+03  0.70943581510E+02 0.  0.
         -6    2    1    2    0  501  0.52057032731E+02 -0.43531112294E+02  0.34889573311E+03  0.39499264495E+03  0.17229644393E+03 0.  0.
        -24    2    5    5    0    0 -0.46406074770E-01 -0.76082747506E+02  0.28830770632E+03  0.30857866298E+03  0.79440991320E+02 0.  0.
          5    1    3    3  502    0  0.21686301960E+02  0.19219769206E+01  0.61303102399E+03  0.61343550277E+03  0.47000000000E+01 0. -1.
        -13    1    4    4    0    0 -0.48530128200E+02  0.24820217412E+02  0.84200423628E+02  0.10030417676E+03  0.00000000000E+00 0.  1.
         14    1    4    4    0    0 -0.25213206492E+02  0.16788917961E+02  0.24658065446E+03  0.24843428246E+03  0.00000000000E+00 0. -1.
         -5    1    5    5    0  501  0.52103438806E+02  0.32551635213E+02  0.60588026795E+02  0.86413981978E+02  0.47000000000E+01 0.  1.
         11    1    6    6    0    0  0.17204839281E+02 -0.14572963971E+02  0.19002880937E+03  0.19136176777E+03  0.00000000000E+00 0. -1.
        -12    1    6    6    0    0 -0.17251245356E+02 -0.61509783536E+02  0.98278896944E+02  0.11721689520E+03  0.00000000000E+00 0.  1.
</event>
<event>
12    1  0.1345781E-002  0.1840557E+03  0.7818608E-02  0.1163935E+00
         -3   -1    0    0    0  501 -0.00000000000E+00  0.00000000000E+00  0.41052293295E+02  0.41052293295E+02  0.00000000000E+00 0.  1.
          3   -1    0    0  502    0  0.00000000000E+00 -0.00000000000E+00 -0.10201844650E+04  0.10201844650E+04  0.00000000000E+00 0. -1.
          6    2    1    2  502    0  0.33970399448E+02  0.56300364118E+02 -0.25596606509E+03  0.31482748673E+03  0.17109646661E+03 0.  0.
         24    2    3    3    0    0  0.71896624214E+02  0.77891550442E+02 -0.14387671501E+03  0.19445020377E+03  0.76643032437E+02 0.  0.
         -6    2    1    2    0  501 -0.33970399448E+02 -0.56300364118E+02 -0.72316610666E+03  0.74640927161E+03  0.17272482126E+03 0.  0.
        -24    2    5    5    0    0  0.29788060592E+02 -0.35045601796E+01 -0.20839820755E+03  0.22500672261E+03  0.79363731114E+02 0.  0.
          5    1    3    3  502    0 -0.37926224765E+02 -0.21591186324E+02 -0.11208935008E+03  0.12037728296E+03  0.47000000000E+01 0. -1.
        -11    1    4    4    0    0  0.48810217099E+02  0.40923988044E+02 -0.13597621915E+03  0.15015572671E+03  0.00000000000E+00 0.  1.
         12    1    4    4    0    0  0.23086407115E+02  0.36967562398E+02 -0.79004958616E+01  0.44294477059E+02  0.00000000000E+00 0. -1.
         -5    1    5    5    0  501 -0.63758460041E+02 -0.52795803938E+02 -0.51476789912E+03  0.52140254900E+03  0.47000000000E+01 0.  1.
         11    1    6    6    0    0  0.19373629036E+02 -0.25941633627E+02 -0.19337273505E+03  0.19606458252E+03  0.00000000000E+00 0. -1.
        -12    1    6    6    0    0  0.10414431557E+02  0.22437073447E+02 -0.15025472496E+02  0.28942140095E+02  0.00000000000E+00 0.  1.
</event>
<event>
12    1  0.1345781E-002  0.1778313E+03  0.7818608E-02  0.1169919E+00
         -1   -1    0    0    0  501 -0.00000000000E+00  0.00000000000E+00  0.14889139133E+04  0.14889139133E+04  0.00000000000E+00 0. -1.
          1   -1    0    0  502    0  0.00000000000E+00 -0.00000000000E+00 -0.24855627078E+02  0.24855627078E+02  0.00000000000E+00 0.  1.
          6    2    1    2  502    0 -0.36310571820E+02  0.28742968724E+02  0.10227718635E+04  0.10382174998E+04  0.17230402243E+03 0.  0.
         24    2    3    3    0    0 -0.51876135981E+02  0.69402385974E+02  0.49440688213E+03  0.50804100222E+03  0.78483566260E+02 0.  0.
         -6    2    1    2    0  501  0.36310571820E+02 -0.28742968724E+02  0.44128642273E+03  0.47555204063E+03  0.17108892597E+03 0.  0.
        -24    2    5    5    0    0 -0.33778047574E+02  0.17066007870E+02  0.30562863520E+03  0.31606535711E+03  0.71107258323E+02 0.  0.
          5    1    3    3  502    0  0.15565564162E+02 -0.40659417250E+02  0.52836498140E+03  0.53017649756E+03  0.47000000000E+01 0. -1.
        -13    1    4    4    0    0 -0.71738639588E+01  0.71782038128E+02  0.30335373668E+03  0.31181342960E+03  0.00000000000E+00 0.  1.
         14    1    4    4    0    0 -0.44702272023E+02 -0.23796521543E+01  0.19105314545E+03  0.19622757262E+03  0.00000000000E+00 0. -1.
         -5    1    5    5    0  501  0.70088619394E+02 -0.45808976594E+02  0.13565778752E+03  0.15948668352E+03  0.47000000000E+01 0.  1.
         11    1    6    6    0    0  0.21234128458E+01  0.23440948381E+02  0.30473961961E+02  0.38505185374E+02  0.00000000000E+00 0. -1.
        -12    1    6    6    0    0 -0.35901460420E+02 -0.63749405105E+01  0.27515467324E+03  0.27756017173E+03  0.00000000000E+00 0.  1.
</event>
<event>
12    1  0.1345781E-002  0.1792466E+03  0.7818608E-02  0.1168534E+00
         -2   -1    0    0    0  501 -0.00000000000E+00  0.00000000000E+00  0.26170042349E+02  0.26170042349E+02  0.00000000000E+00 0. -1.
          2   -1    0    0  502    0  0.00000000000E+00 -0.00000000000E+00 -0.13118243435E+04  0.13118243435E+04  0.00000000000E+00 0.  1.
          6    2    1    2  502    0  0.81876226500E+01 -0.57951747888E+02 -0.80724658152E+03  0.82659425899E+03  0.16788562584E+03 0.  0.
         24    2    3    3    0    0  0.48763735383E+02 -0.62920763026E+02 -0.72773524068E+03  0.73706630046E+03  0.85622581339E+02 0.  0.
         -6    2    1    2    0  501 -0.81876226500E+01  0.57951747888E+02 -0.47840771963E+03  0.51140012686E+03  0.17096988421E+03 0.  0.
        -24    2    5    5    0    0  0.21543212761E+02  0.35431093211E+02 -0.11380499615E+03  0.14486453728E+03  0.79464989968E+02 0.  0.
          5    1    3    3  502    0 -0.40576112733E+02  0.49690151373E+01 -0.79511340844E+02  0.89527958531E+02  0.47000000000E+01 0. -1.
        -11    1    4    4    0    0 -0.16371525620E+02 -0.93768421179E+01 -0.32763983164E+03  0.32818258835E+03  0.00000000000E+00 0.  1.
         12    1    4    4    0    0  0.65135261003E+02 -0.53543920908E+02 -0.40009540904E+03  0.40888371211E+03  0.00000000000E+00 0. -1.
         -5    1    5    5    0  501 -0.29730835411E+02  0.22520654677E+02 -0.36460272348E+03  0.36653558958E+03  0.47000000000E+01 0.  1.
         13    1    6    6    0    0  0.37250861597E+02  0.53407224103E+02 -0.75186098331E+02  0.99463096967E+02  0.00000000000E+00 0. -1.
        -14    1    6    6    0    0 -0.15707648835E+02 -0.17976130892E+02 -0.38618897817E+02  0.45401440311E+02  0.00000000000E+00 0.  1.
</event>
<event>
12    1  0.1345781E-002  0.1888035E+03  0.7818608E-02  0.1159545E+00
         -2   -1    0    0    0  501 -0.00000000000E+00  0.00000000000E+00  0.35535618579E+03  0.35535618579E+03  0.00000000000E+00 0. -1.
          2   -1    0    0  502    0  0.00000000000E+00 -0.00000000000E+00 -0.16531577586E+03  0.16531577586E+03  0.00000000000E+00 0.  1.
          6    2    1    2  502    0 -0.66392223505E+02  0.38106203469E+02 -0.68185993415E+02  0.20086275925E+03  0.17273247601E+03 0.  0.
         24    2    3    3    0    0 -0.33487987900E+02  0.87439334876E+02 -0.69984592286E+02  0.14134997463E+03  0.79466279347E+02 0.  0.
         -6    2    1    2    0  501  0.66392223505E+02 -0.38106203469E+02  0.25822640334E+03  0.31980920240E+03  0.17244431123E+03 0.  0.
        -24    2    5    5    0    0  0.90849503322E+02 -0.56655075913E+02  0.12773629716E+03  0.18567502698E+03  0.81824349380E+02 0.  0.
          5    1    3    3  502    0 -0.32904235605E+02 -0.49333131407E+02  0.17985988706E+01  0.59512784619E+02  0.47000000000E+01 0. -1.
        -11    1    4    4    0    0  0.12302696777E+02  0.25581373764E+02 -0.56479815776E+02  0.63211807613E+02  0.00000000000E+00 0.  1.
         12    1    4    4    0    0 -0.45790684677E+02  0.61857961112E+02 -0.13504776511E+02  0.78138167017E+02  0.00000000000E+00 0. -1.
         -5    1    5    5    0  501 -0.24457279817E+02  0.18548872444E+02  0.13049010618E+03  0.13413417542E+03  0.47000000000E+01 0.  1.
         11    1    6    6    0    0  0.73563083604E+01 -0.32434984345E+02  0.79677654348E+02  0.86340442926E+02  0.00000000000E+00 0. -1.
        -12    1    6    6    0    0  0.83493194962E+02 -0.24220091568E+02  0.48058642813E+02  0.99334584056E+02  0.00000000000E+00 0.  1.
</event>
<event>
12    1  0.1345781E-002  0.2144082E+03  0.7818608E-02  0.1138122E+00
         -2   -1    0    0    0  501 -0.00000000000E+00  0.00000000000E+00  0.35056669629E+02  0.35056669629E+02  0.00000000000E+00 0. -1.
          2   -1    0    0  502    0  0.00000000000E+00 -0.00000000000E+00 -0.17024044603E+04  0.17024044603E+04  0.00000000000E+00 0.  1.
          6    2    1    2  502    0 -0.33124226103E+02 -0.12500259229E+03 -0.42239180946E+03  0.47446053583E+03  0.17313317684E+03 0.  0.
         24    2    3    3    0    0 -0.77050415840E+02 -0.62460334247E+02 -0.17983823680E+03  0.22010769076E+03  0.79167822877E+02 0.  0.
         -6    2    1    2    0  501  0.33124226103E+02  0.12500259229E+03 -0.12449559812E+04  0.12630005941E+04  0.16891489903E+03 0.  0.
        -24    2    5    5    0    0 -0.10560314500E+02  0.13057546576E+02 -0.70895010228E+03  0.71366970603E+03  0.80200885342E+02 0.  0.
          5    1    3    3  502    0  0.43926189737E+02 -0.62542258046E+02 -0.24255357266E+03  0.25435284507E+03  0.47000000000E+01 0. -1.
        -11    1    4    4    0    0 -0.32806897380E+02  0.13206995093E+02 -0.78642927292E+02  0.86228923501E+02  0.00000000000E+00 0.  1.
         12    1    4    4    0    0 -0.44243518459E+02 -0.75667329340E+02 -0.10119530951E+03  0.13387876726E+03  0.00000000000E+00 0. -1.
         -5    1    5    5    0  501  0.43684540603E+02  0.11194504572E+03 -0.53600587897E+03  0.54933088811E+03  0.47000000000E+01 0.  1.
         13    1    6    6    0    0 -0.36257746522E+02 -0.61443853595E+01 -0.17841027350E+03  0.18216092706E+03  0.00000000000E+00 0. -1.
        -14    1    6    6    0    0  0.25697432022E+02  0.19201931936E+02 -0.53053982878E+03  0.53150877897E+03  0.00000000000E+00 0.  1.
</event>
<event>
12    1  0.1345781E-002  0.2298631E+03  0.7818608E-02  0.1126736E+00
          1   -1    0    0  502    0  0.00000000000E+00  0.00000000000E+00  0.50792613775E+03  0.50792613775E+03  0.00000000000E+00 0.  1.
         -1   -1    0    0    0  501 -0.00000000000E+00 -0.00000000000E+00 -0.13014762606E+03  0.13014762606E+03  0.00000000000E+00 0. -1.
          6    2    1    2  502    0 -0.54543347045E+02  0.14351692373E+03  0.33228075911E+03  0.40444048979E+03  0.17201605391E+03 0.  0.
         24    2    3    3    0    0 -0.51581366075E+02  0.11547535472E+02  0.16323300505E+03  0.18990861355E+03  0.81401994220E+02 0.  0.
         -6    2    1    2    0  501  0.54543347045E+02 -0.14351692373E+03  0.45497752578E+02  0.23363327401E+03  0.17012459296E+03 0.  0.
        -24    2    5    5    0    0 -0.23118221927E+01 -0.12368326219E+03  0.77072568954E+02  0.16547945219E+03  0.78360540744E+02 0.  0.
          5    1    3    3  502    0 -0.29619809691E+01  0.13196938826E+03  0.16904775406E+03  0.21453187624E+03  0.47000000000E+01 0. -1.
        -13    1    4    4    0    0 -0.16674390943E+01 -0.21135134082E+02  0.10288752819E+03  0.10504912043E+03  0.00000000000E+00 0.  1.
         14    1    4    4    0    0 -0.49913926981E+02  0.32682669554E+02  0.60345476853E+02  0.84859493119E+02  0.00000000000E+00 0. -1.
         -5    1    5    5    0  501  0.56855169237E+02 -0.19833661546E+02 -0.31574816376E+02  0.68153821819E+02  0.47000000000E+01 0.  1.
         11    1    6    6    0    0 -0.35058091653E+02 -0.54118108206E+02  0.13885498516E+02  0.65959430677E+02  0.00000000000E+00 0. -1.
        -12    1    6    6    0    0  0.32746269461E+02 -0.69565153982E+02  0.63187070437E+02  0.99520021516E+02  0.00000000000E+00 0.  1.
</event>
<event>
12    1  0.1345781E-002  0.2080528E+03  0.7818608E-02  0.1143117E+00
          1   -1    0    0  502    0  0.00000000000E+00  0.00000000000E+00  0.17704764214E+04  0.17704764214E+04  0.00000000000E+00 0.  1.
         -1   -1    0    0    0  501 -0.00000000000E+00 -0.00000000000E+00 -0.25507544628E+02  0.25507544628E+02  0.00000000000E+00 0. -1.
          6    2    1    2  502    0  0.66593696284E+02 -0.95098743227E+02  0.69677311571E+03  0.72768004932E+03  0.17477696658E+03 0.  0.
         24    2    3    3    0    0  0.79522687232E+02 -0.21452087990E+01  0.32063906589E+03  0.33998631478E+03  0.80329471259E+02 0.  0.
         -6    2    1    2    0  501 -0.66593696284E+02  0.95098743227E+02  0.10481957611E+04  0.10683039167E+04  0.17052980270E+03 0.  0.
        -24    2    5    5    0    0  0.57310367965E+01  0.59699439057E+02  0.29479012461E+03  0.31059281029E+03  0.77264535418E+02 0.  0.
          5    1    3    3  502    0 -0.12928990949E+02 -0.92953534428E+02  0.37613404982E+03  0.38769373454E+03  0.47000000000E+01 0. -1.
        -13    1    4    4    0    0  0.79869767426E+02  0.77882203835E+01  0.32012876914E+03  0.33003373306E+03  0.00000000000E+00 0.  1.
         14    1    4    4    0    0 -0.34708019426E+00 -0.99334291825E+01  0.51029674858E+00  0.99525817131E+01  0.00000000000E+00 0. -1.
         -5    1    5    5    0  501 -0.72324733080E+02  0.35399304170E+02  0.75340563649E+03  0.75771110646E+03  0.47000000000E+01 0.  1.
         11    1    6    6    0    0 -0.70160423639E+01  0.70180422895E+02  0.16077114227E+03  0.17556160399E+03  0.00000000000E+00 0. -1.
        -12    1    6    6    0    0  0.12747079160E+02 -0.10480983839E+02  0.13401898234E+03  0.13503120631E+03  0.00000000000E+00 0.  1.
</event>
<event>
12    1  0.1345781E-002  0.2084531E+03  0.7818608E-02  0.1142797E+00
         -2   -1    0    0    0  501 -0.00000000000E+00  0.00000000000E+00  0.43673042743E+02  0.43673042743E+02  0.00000000000E+00 0.  1.
          2   -1    0    0  502    0  0.00000000000E+00 -0.00000000000E+00 -0.99519548493E+03  0.99519548493E+03  0.00000000000E+00 0. -1.
          6    2    1    2  502    0  0.46794825125E+02  0.11220704552E+03 -0.48672471602E+03  0.53036538952E+03  0.17206487292E+03 0.  0.
         24    2    3    3    0    0  0.45972365266E+02 -0.15200310971E+01 -0.15801297004E+03  0.18250331004E+03  0.78889737047E+02 0.  0.
         -6    2    1    2    0  501 -0.46794825125E+02 -0.11220704552E+03 -0.46479772617E+03  0.50850313815E+03  0.16660833874E+03 0.  0.
        -24    2    5    5    0    0 -0.77424528357E+02 -0.56851022811E+02 -0.39480720514E+03  0.41404028300E+03  0.79561487723E+02 0.  0.
          5    1    3    3  502    0  0.82245985987E+00  0.11372707662E+03 -0.32871174598E+03  0.34786207949E+03  0.47000000000E+01 0. -1.
        -11    1    4    4    0    0  0.29723189537E+02  0.20661198133E+02 -0.19165320311E+02  0.40959279867E+02  0.00000000000E+00 0.  1.
         12    1    4    4    0    0  0.16249175728E+02 -0.22181229230E+02 -0.13884764973E+03  0.14154403017E+03  0.00000000000E+00 0. -1.
         -5    1    5    5    0  501  0.30629703232E+02 -0.55356022711E+02 -0.69990521029E+02  0.94462855157E+02  0.47000000000E+01 0.  1.
         13    1    6    6    0    0 -0.21284975721E+02 -0.41333182135E+02 -0.29369554750E+03  0.29735257988E+03  0.00000000000E+00 0. -1.
        -14    1    6    6    0    0 -0.56139552636E+02 -0.15517840677E+02 -0.10111165764E+03  0.11668770312E+03  0.00000000000E+00 0.  1.
</event>
<event>
12    1  0.1345781E-002  0.1926439E+03  0.7818608E-02  0.1156098E+00
          1   -1    0    0  502    0  0.00000000000E+00  0.00000000000E+00  0.31453856943E+03  0.31453856943E+03  0.00000000000E+00 0.  1.
         -1   -1    0    0    0  501 -0.00000000000E+00 -0.00000000000E+00 -0.34012553486E+03  0.34012553486E+03  0.00000000000E+00 0. -1.
          6    2    1    2  502    0  0.48490947965E+02 -0.63987012713E+02 -0.27736854077E+03  0.33959549772E+03  0.17873467720E+03 0.  0.
         24    2    3    3    0    0  0.28398809434E+02 -0.21015096014E+02 -0.37397043367E+02  0.94935142900E+02  0.79787316456E+02 0.  0.
         -6    2    1    2    0  501 -0.48490947965E+02  0.63987012713E+02  0.25178157534E+03  0.31506860657E+03  0.17154753082E+03 0.  0.
        -24    2    5    5    0    0 -0.43708466473E+02  0.11983527788E+02  0.47960597980E+02  0.10461121091E+03  0.81174204706E+02 0.  0.
          5    1    3    3  502    0  0.20092138531E+02 -0.42971916700E+02 -0.23997149740E+03  0.24466035482E+03  0.47000000000E+01 0. -1.
        -13    1    4    4    0    0  0.73802255329E+01 -0.50380572262E+02 -0.25244562569E+02  0.56832717071E+02  0.00000000000E+00 0.  1.
         14    1    4    4    0    0  0.21018583901E+02  0.29365476249E+02 -0.12152480798E+02  0.38102425829E+02  0.00000000000E+00 0. -1.
         -5    1    5    5    0  501 -0.47824814920E+01  0.52003484925E+02  0.20382097736E+03  0.21045739566E+03  0.47000000000E+01 0.  1.
         11    1    6    6    0    0  0.21323986468E+02  0.39028547396E+01  0.29348802118E+02  0.36486940949E+02  0.00000000000E+00 0. -1.
        -12    1    6    6    0    0 -0.65032452941E+02  0.80806730488E+01  0.18611795862E+02  0.68124269961E+02  0.00000000000E+00 0.  1.
</event>
<event>
12    1  0.1345781E-002  0.1820396E+03  0.7818608E-02  0.1165844E+00
          1   -1    0    0  502    0  0.00000000000E+00  0.00000000000E+00  0.13837545429E+04  0.13837545429E+04  0.00000000000E+00 0. -1.
         -1   -1    0    0    0  501 -0.00000000000E+00 -0.00000000000E+00 -0.83908813817E+02  0.83908813817E+02  0.00000000000E+00 0.  1.
          6    2    1    2  502    0  0.30452127387E+02 -0.47190714097E+02  0.12710859394E+04  0.12841716711E+04  0.17402045789E+03 0.  0.
         24    2    3    3    0    0 -0.10118787664E+02 -0.86124013327E+02  0.10241200016E+04  0.10308417175E+04  0.79329271118E+02 0.  0.
         -6    2    1    2    0  501 -0.30452127387E+02  0.47190714097E+02  0.28759789655E+02  0.18349168566E+03  0.17230141511E+03 0.  0.
        -24    2    5    5    0    0 -0.76665730008E+02  0.36772731217E+01 -0.88573116327E+01  0.10955757363E+03  0.77674020595E+02 0.  0.
          5    1    3    3  502    0  0.40570915051E+02  0.38933299230E+02  0.24696593784E+03  0.25332995360E+03  0.47000000000E+01 0. -1.
        -13    1    4    4    0    0 -0.33561581148E+02 -0.61628631658E+01  0.28070269298E+03  0.28276909742E+03  0.00000000000E+00 0.  1.
         14    1    4    4    0    0  0.23442793484E+02 -0.79961150161E+02  0.74341730863E+03  0.74807262005E+03  0.00000000000E+00 0. -1.
         -5    1    5    5    0  501  0.46213602621E+02  0.43513440975E+02  0.37617101288E+02  0.73934112032E+02  0.47000000000E+01 0.  1.
         13    1    6    6    0    0 -0.79278163582E+02  0.24999490998E+02  0.61490121716E+01  0.83353536949E+02  0.00000000000E+00 0. -1.
        -14    1    6    6    0    0  0.26124335747E+01 -0.21322217876E+02 -0.15006323804E+02  0.26204036683E+02  0.00000000000E+00 0.  1.
</event>
<event>
12    1  0.1345781E-002  0.2177446E+03  0.7818608E-02  0.1135576E+00
         -1   -1    0    0    0  501 -0.00000000000E+00  0.00000000000E+00  0.18139978954E+03  0.18139978954E+03  0.00000000000E+00 0. -1.
          1   -1    0    0  502    0  0.00000000000E+00 -0.00000000000E+00 -0.33509503928E+03  0.33509503928E+03  0.00000000000E+00 0.  1.
          6    2    1    2  502    0  0.70772045772E+02 -0.11375204897E+03  0.44448860363E+02  0.22163951801E+03  0.17088055375E+03 0.  0.
         24    2    3    3    0    0  0.45975182305E+02 -0.13602945071E+02  0.67714643648E+02  0.11577113689E+03  0.80739864191E+02 0.  0.
         -6    2    1    2    0  501 -0.70772045772E+02  0.11375204897E+03 -0.19814411010E+03  0.29485531081E+03  0.17242492522E+03 0.  0.
        -24    2    5    5    0    0  0.16418846860E+02  0.24611026755E+02 -0.12188592613E+03  0.14861655322E+03  0.79720886419E+02 0.  0.
          5    1    3    3  502    0  0.24796863467E+02 -0.10014910390E+03 -0.23265783286E+02  0.10586838112E+03  0.47000000000E+01 0. -1.
        -13    1    4    4    0    0  0.69926977363E+00  0.10534361378E+02  0.63409912571E+02  0.64282802989E+02  0.00000000000E+00 0.  1.
         14    1    4    4    0    0  0.45275912532E+02 -0.24137306449E+02  0.43047310771E+01  0.51488333900E+02  0.00000000000E+00 0. -1.
         -5    1    5    5    0  501 -0.87190892632E+02  0.89141022213E+02 -0.76258183974E+02  0.14623875759E+03  0.47000000000E+01 0.  1.
         13    1    6    6    0    0  0.39146734749E+02  0.99788804311E+01 -0.23830246705E+02  0.46903363997E+02  0.00000000000E+00 0. -1.
        -14    1    6    6    0    0 -0.22727887889E+02  0.14632146324E+02 -0.98055679424E+02  0.10171318922E+03  0.00000000000E+00 0.  1.
</event>
<event>
12    1  0.1345781E-002  0.2532930E+03  0.7818608E-02  0.1111241E+00
          1   -1    0    0  502    0  0.00000000000E+00  0.00000000000E+00  0.83801986684E+03  0.83801986684E+03  0.00000000000E+00 0. -1.
         -1   -1    0    0    0  501 -0.00000000000E+00 -0.00000000000E+00 -0.94228001298E+02  0.94228001298E+02  0.00000000000E+00 0.  1.
          6    2    1    2  502    0 -0.13227671015E+03  0.13289439587E+03  0.57334828531E+03  0.62667202012E+03  0.16979845709E+03 0.  0.
         24    2    3    3    0    0 -0.35536151050E+02  0.12857230999E+03  0.34462264630E+03  0.37824713381E+03  0.80699869628E+02 0.  0.
         -6    2    1    2    0  501  0.13227671015E+03 -0.13289439587E+03  0.17044358023E+03  0.30557584802E+03  0.17078505892E+03 0.  0.
        -24    2    5    5    0    0  0.12178761636E+03 -0.67328459688E+02  0.17664168546E+03  0.23872213022E+03  0.80128805240E+02 0.  0.
          5    1    3    3  502    0 -0.96740559095E+02  0.43220858745E+01  0.22872563901E+03  0.24842488632E+03  0.47000000000E+01 0. -1.
        -11    1    4    4    0    0 -0.43409269936E+02  0.24626656587E+02  0.86428500316E+02  0.99803419770E+02  0.00000000000E+00 0.  1.
         12    1    4    4    0    0  0.78731188852E+01  0.10394565341E+03  0.25819414599E+03  0.27844371404E+03  0.00000000000E+00 0. -1.
         -5    1    5    5    0  501  0.10489093788E+02 -0.65565936181E+02 -0.61981052324E+01  0.66853717804E+02  0.47000000000E+01 0.  1.
         13    1    6    6    0    0  0.54707827350E+02 -0.58504852353E+02  0.14121720516E+03  0.16235166508E+03  0.00000000000E+00 0. -1.
        -14    1    6    6    0    0  0.67079789008E+02 -0.88236073354E+01  0.35424480303E+02  0.76370465132E+02  0.00000000000E+00 0.  1.
</event>
<event>
12    1  0.1345781E-002  0.2154986E+03  0.7818608E-02  0.1137284E+00
          1   -1    0    0  502    0  0.00000000000E+00  0.00000000000E+00  0.50154633740E+03  0.50154633740E+03  0.00000000000E+00 0.  1.
         -1   -1    0    0    0  501 -0.00000000000E+00 -0.00000000000E+00 -0.97572700930E+02  0.97572700930E+02  0.00000000000E+00 0. -1.
          6    2    1    2  502    0  0.11767755506E+02 -0.12937267721E+03  0.13378989370E+03  0.25314874714E+03  0.17119808072E+03 0.  0.
         24    2    3    3    0    0 -0.38802004232E+02 -0.13198103893E+03  0.12735647100E+03  0.20188879124E+03  0.74932123668E+02 0.  0.
         -6    2    1    2    0  501 -0.11767755506E+02  0.12937267721E+03  0.27018374277E+03  0.34597029119E+03  0.17268589361E+03 0.  0.
        -24    2    5    5    0    0 -0.55961256487E+02  0.11968154591E+03  0.25485845163E+03  0.29797093595E+03  0.79865597381E+02 0.  0.
          5    1    3    3  502    0  0.50569759738E+02  0.26083617142E+01  0.64334227065E+01  0.51259955896E+02  0.47000000000E+01 0. -1.
        -11    1    4    4    0    0 -0.13800496937E+02 -0.86579047320E+02  0.12135603204E+03  0.14971196232E+03  0.00000000000E+00 0.  1.
         12    1    4    4    0    0 -0.25001507295E+02 -0.45401991606E+02  0.60004389595E+01  0.52176828924E+02  0.00000000000E+00 0. -1.
         -5    1    5    5    0  501  0.44193500981E+02  0.96911312974E+01  0.15325291140E+02  0.47999355239E+02  0.47000000000E+01 0.  1.
         13    1    6    6    0    0 -0.97847062255E+01  0.76375513863E+02  0.75792327066E+02  0.10804367837E+03  0.00000000000E+00 0. -1.
        -14    1    6    6    0    0 -0.46176550262E+02  0.43306032052E+02  0.17906612457E+03  0.18992725758E+03  0.00000000000E+00 0.  1.
</event>
<event>
12    1  0.1345781E-002  0.1883384E+03  0.7818608E-02  0.1159969E+00
         -2   -1    0    0    0  501 -0.00000000000E+00  0.00000000000E+00  0.13614951306E+02  0.13614951306E+02  0.00000000000E+00 0. -1.
          2   -1    0    0  502    0  0.00000000000E+00 -0.00000000000E+00 -0.26161989729E+04  0.26161989729E+04  0.00000000000E+00 0.  1.
          6    2    1    2  502    0 -0.75786002496E+02  0.14332833783E+02 -0.13861044128E+04  0.13988418636E+04  0.17182598153E+03 0.  0.
         24    2    3    3    0    0  0.23615705403E+01 -0.38333469900E+02 -0.48428140617E+03  0.49209624989E+03  0.78455126481E+02 0.  0.
         -6    2    1    2    0  501  0.75786002496E+02 -0.14332833783E+02 -0.12164796088E+04  0.12309720606E+04  0.17181567750E+03 0.  0.
        -24    2    5    5    0    0  0.45981548457E+02 -0.72828069553E+02 -0.62575562785E+03  0.63659262811E+03  0.79131775325E+02 0.  0.
          5    1    3    3  502    0 -0.78147573036E+02  0.52666303683E+02 -0.90182300665E+03  0.90674561374E+03  0.47000000000E+01 0. -1.
        -11    1    4    4    0    0 -0.89787808696E+01 -0.54847326396E+02 -0.21487947608E+03  0.22195052818E+03  0.00000000000E+00 0.  1.
         12    1    4    4    0    0  0.11340351410E+02  0.16513856495E+02 -0.26940193009E+03  0.27014572172E+03  0.00000000000E+00 0. -1.
         -5    1    5    5    0  501  0.29804454039E+02  0.58495235770E+02 -0.59072398096E+03  0.59437943249E+03  0.47000000000E+01 0.  1.
         11    1    6    6    0    0  0.30998194986E+02 -0.74287697008E+02 -0.30374000763E+03  0.31422530493E+03  0.00000000000E+00 0. -1.
        -12    1    6    6    0    0  0.14983353472E+02  0.14596274551E+01 -0.32201562022E+03  0.32236732319E+03  0.00000000000E+00 0.  1.
</event>
<event>
12    1  0.1345781E-002  0.1881326E+03  0.7818608E-02  0.1160156E+00
          2   -1    0    0  502    0  0.00000000000E+00  0.00000000000E+00  0.17207232393E+04  0.17207232393E+04  0.00000000000E+00 0. -1.
         -2   -1    0    0    0  501 -0.00000000000E+00 -0.00000000000E+00 -0.24150612838E+02  0.24150612838E+02  0.00000000000E+00 0.  1.
          6    2    1    2  502    0 -0.47480822052E+02 -0.55634622115E+02  0.11803103754E+04  0.11950503088E+04  0.17222955263E+03 0.  0.
         24    2    3    3    0    0 -0.21585842671E+02 -0.92180994265E+02  0.58798901703E+03  0.60101927528E+03  0.80807182907E+02 0.  0.
         -6    2    1    2    0  501  0.47480822052E+02  0.55634622115E+02  0.51626225110E+03  0.54982354331E+03  0.17444075564E+03 0.  0.
        -24    2    5    5    0    0  0.68741204053E+02  0.81511255680E+02  0.26857328288E+03  0.29983650567E+03  0.80005524323E+02 0.  0.
          5    1    3    3  502    0 -0.25894979381E+02  0.36546372150E+02  0.59232135832E+03  0.59403103353E+03  0.47000000000E+01 0. -1.
        -13    1    4    4    0    0 -0.11497702039E+01  0.86709715238E+01  0.76264257169E+01  0.11604744198E+02  0.00000000000E+00 0.  1.
         14    1    4    4    0    0 -0.20436072467E+02 -0.10085196579E+03  0.58036259131E+03  0.58941453109E+03  0.00000000000E+00 0. -1.
         -5    1    5    5    0  501 -0.21260382001E+02 -0.25876633564E+02  0.24768896822E+03  0.24998703764E+03  0.47000000000E+01 0.  1.
         11    1    6    6    0    0 -0.14925447575E+02  0.69617853048E+00  0.50686302204E+02  0.52842737259E+02  0.00000000000E+00 0. -1.
        -12    1    6    6    0    0  0.83666651627E+02  0.80815077149E+02  0.21788698067E+03  0.24699376842E+03  0.00000000000E+00 0.  1.
</event>
<event>
12    1  0.1345781E-002  0.2406937E+03  0.7818608E-02  0.1119332E+00
         -4   -1    0    0    0  501 -0.00000000000E+00  0.00000000000E+00  0.35688430116E+03  0.35688430116E+03  0.00000000000E+00 0. -1.
          4   -1    0    0  502    0  0.00000000000E+00 -0.00000000000E+00 -0.16257102444E+03  0.16257102444E+03  0.00000000000E+00 0.  1.
          6    2    1    2  502    0 -0.53463153867E+02  0.14837579006E+03  0.10514548207E+03  0.27028136267E+03  0.19267267245E+03 0.  0.
         24    2    3    3    0    0 -0.62328380799E+02  0.16170447963E+03  0.30742175693E+02  0.19403053832E+03  0.81667635258E+02 0.  0.
         -6    2    1    2    0  501  0.53463153867E+02 -0.14837579006E+03  0.89167794648E+02  0.24917396293E+03  0.17106456179E+03 0.  0.
        -24    2    5    5    0    0  0.94795567238E+02 -0.74255304792E+02  0.76948380308E+02  0.16330418467E+03  0.79038937496E+02 0.  0.
          5    1    3    3  502    0  0.88652269321E+01 -0.13328689564E+02  0.74403306382E+02  0.76250824354E+02  0.47000000000E+01 0. -1.
        -13    1    4    4    0    0  0.11318104614E+02  0.71957845279E+00 -0.65752350413E+01  0.13109195287E+02  0.00000000000E+00 0.  1.
         14    1    4    4    0    0 -0.73646485414E+02  0.16098490117E+03  0.37317410734E+02  0.18092134303E+03  0.00000000000E+00 0. -1.
         -5    1    5    5    0  501 -0.41332413371E+02 -0.74120485270E+02  0.12219414340E+02  0.85869778260E+02  0.47000000000E+01 0.  1.
         11    1    6    6    0    0  0.50425711181E+00  0.13497312187E+02  0.49451301679E+00  0.13515777988E+02  0.00000000000E+00 0. -1.
        -12    1    6    6    0    0  0.94291310126E+02 -0.87752616979E+02  0.76453867291E+02  0.14978840668E+03  0.00000000000E+00 0.  1.
</event>
<event>
12    1  0.1345781E-002  0.2082241E+03  0.7818608E-02  0.1142980E+00
         -2   -1    0    0    0  501 -0.00000000000E+00  0.00000000000E+00  0.33642404023E+02  0.33642404023E+02  0.00000000000E+00 0. -1.
          2   -1    0    0  502    0  0.00000000000E+00 -0.00000000000E+00 -0.17365693885E+04  0.17365693885E+04  0.00000000000E+00 0.  1.
          6    2    1    2  502    0  0.64530497805E+02  0.97443681174E+02 -0.12993786135E+04  0.13158765813E+04  0.17171761690E+03 0.  0.
         24    2    3    3    0    0 -0.10630497574E+01  0.10393168971E+03 -0.64937719494E+03  0.66252480637E+03  0.80283569545E+02 0.  0.
         -6    2    1    2    0  501 -0.64530497805E+02 -0.97443681174E+02 -0.40354837100E+03  0.45433521120E+03  0.17294432704E+03 0.  0.
        -24    2    5    5    0    0 -0.47012817605E+02 -0.17399998877E+02 -0.33234558727E+03  0.34568077454E+03  0.80800021852E+02 0.  0.
          5    1    3    3  502    0  0.65593547563E+02 -0.64880085322E+01 -0.65000141856E+03  0.65335177498E+03  0.47000000000E+01 0. -1.
        -13    1    4    4    0    0 -0.29677856112E+01 -0.12383122147E+02 -0.11067891664E+03  0.11140903039E+03  0.00000000000E+00 0.  1.
         14    1    4    4    0    0  0.19047358538E+01  0.11631481185E+03 -0.53869827831E+03  0.55111577597E+03  0.00000000000E+00 0. -1.
         -5    1    5    5    0  501 -0.17517680200E+02 -0.80043682297E+02 -0.71202783730E+02  0.10865443666E+03  0.47000000000E+01 0.  1.
         13    1    6    6    0    0 -0.19798404223E+02  0.27748602659E+01 -0.11523951199E+02  0.23075487221E+02  0.00000000000E+00 0. -1.
        -14    1    6    6    0    0 -0.27214413383E+02 -0.20174859143E+02 -0.32082163607E+03  0.32260528732E+03  0.00000000000E+00 0.  1.
</event>
<event>
12    1  0.1345781E-002  0.1800792E+03  0.7818608E-02  0.1167726E+00
         -2   -1    0    0    0  501 -0.00000000000E+00  0.00000000000E+00  0.77223738197E+02  0.77223738197E+02  0.00000000000E+00 0. -1.
          2   -1    0    0  502    0  0.00000000000E+00 -0.00000000000E+00 -0.42228399582E+03  0.42228399582E+03  0.00000000000E+00 0.  1.
          6    2    1    2  502    0 -0.25677148232E+02  0.45170584300E+02 -0.19167243641E+03  0.26336188790E+03  0.17297821681E+03 0.  0.
         24    2    3    3    0    0  0.46430568839E+02  0.39459748012E+02 -0.15026034666E+03  0.17988022710E+03  0.77883598321E+02 0.  0.
         -6    2    1    2    0  501  0.25677148232E+02 -0.45170584300E+02 -0.15338782121E+03  0.23614584612E+03  0.17186430495E+03 0.  0.
        -24    2    5    5    0    0  0.13591580352E+02 -0.59410960999E+02 -0.17489849763E+03  0.20727287469E+03  0.93049270637E+02 0.  0.
          5    1    3    3  502    0 -0.72107717071E+02  0.57108362886E+01 -0.41412089756E+02  0.83481660802E+02  0.47000000000E+01 0. -1.
        -11    1    4    4    0    0 -0.17263542924E+02  0.10720806512E+02 -0.72689457567E+02  0.75476637763E+02  0.00000000000E+00 0.  1.
         12    1    4    4    0    0  0.63694111763E+02  0.28738941499E+02 -0.77570889088E+02  0.10440358933E+03  0.00000000000E+00 0. -1.
         -5    1    5    5    0  501  0.12085567880E+02  0.14240376699E+02  0.21510676413E+02  0.28872971431E+02  0.47000000000E+01 0.  1.
         13    1    6    6    0    0  0.42018029936E+02 -0.14906854443E+02 -0.31860126274E+02  0.54797780934E+02  0.00000000000E+00 0. -1.
        -14    1    6    6    0    0 -0.28426449584E+02 -0.44504106556E+02 -0.14303837135E+03  0.15247509375E+03  0.00000000000E+00 0.  1.
</event>
<event>
12    1  0.1345781E-002  0.1801893E+03  0.7818608E-02  0.1167620E+00
          1   -1    0    0  502    0  0.00000000000E+00  0.00000000000E+00  0.14253002156E+03  0.14253002156E+03  0.00000000000E+00 0.  1.
         -1   -1    0    0    0  501 -0.00000000000E+00 -0.00000000000E+00 -0.23646619328E+03  0.23646619328E+03  0.00000000000E+00 0. -1.
          6    2    1    2  502    0 -0.42136399089E+02 -0.40098314203E+02 -0.10392547863E+02  0.17921849100E+03  0.16919784732E+03 0.  0.
         24    2    3    3    0    0 -0.22369659831E+02 -0.11257956802E+02  0.58335525831E+02  0.10196482889E+03  0.79791287023E+02 0.  0.
         -6    2    1    2    0  501  0.42136399089E+02  0.40098314203E+02 -0.83543623857E+02  0.19977772384E+03  0.17189604686E+03 0.  0.
        -24    2    5    5    0    0  0.13151590339E+02  0.30401421765E+02 -0.12304093565E+03  0.14961522290E+03  0.78411939802E+02 0.  0.
          5    1    3    3  502    0 -0.19766739258E+02 -0.28840357401E+02 -0.68728073693E+02  0.77253662111E+02  0.47000000000E+01 0. -1.
        -11    1    4    4    0    0 -0.13866565325E+02  0.12508221325E+02  0.71218190831E+02  0.73625864612E+02  0.00000000000E+00 0.  1.
         12    1    4    4    0    0 -0.85030945064E+01 -0.23766178127E+02 -0.12882665001E+02  0.28338964280E+02  0.00000000000E+00 0. -1.
         -5    1    5    5    0  501  0.28984808751E+02  0.96968924383E+01  0.39497311796E+02  0.50162500938E+02  0.47000000000E+01 0.  1.
         13    1    6    6    0    0 -0.85357196008E+01 -0.22202619662E+02 -0.60791093628E+02  0.65279184228E+02  0.00000000000E+00 0. -1.
        -14    1    6    6    0    0  0.21687309940E+02  0.52604041427E+02 -0.62249842025E+02  0.84336038673E+02  0.00000000000E+00 0.  1.
</event>
<event>
12    1  0.1345781E-002  0.1900775E+03  0.7818608E-02  0.1158391E+00
         -2   -1    0    0    0  501 -0.00000000000E+00  0.00000000000E+00  0.21156463976E+02  0.21156463976E+02  0.00000000000E+00 0. -1.
          2   -1    0    0  502    0  0.00000000000E+00 -0.00000000000E+00 -0.25425097087E+04  0.25425097087E+04  0.00000000000E+00 0.  1.
          6    2    1    2  502    0  0.76858650101E+02  0.25662969098E+02 -0.19948998844E+04  0.20039291703E+04  0.17187417129E+03 0.  0.
         24    2    3    3    0    0  0.66749352526E+02  0.13152684810E+02 -0.19753718509E+04  0.19781971047E+04  0.80878713869E+02 0.  0.
         -6    2    1    2    0  501 -0.76858650101E+02 -0.25662969098E+02 -0.52645336033E+03  0.55973700238E+03  0.17200735783E+03 0.  0.
        -24    2    5    5    0    0 -0.39777791297E+02 -0.48218381808E+02 -0.14569158783E+03  0.17648075112E+03  0.77537937328E+02 0.  0.
          5    1    3    3  502    0  0.10109297575E+02  0.12510284288E+02 -0.19528033501E+02  0.25732065654E+02  0.47000000000E+01 0. -1.
        -13    1    4    4    0    0 -0.15571112024E+02  0.15091538686E+02 -0.28672942956E+03  0.28754822177E+03  0.00000000000E+00 0.  1.
         14    1    4    4    0    0  0.82320464550E+02 -0.19388538763E+01 -0.16886424213E+04  0.16906488829E+04  0.00000000000E+00 0. -1.
         -5    1    5    5    0  501 -0.37080858805E+02  0.22555412710E+02 -0.38076177250E+03  0.38325625126E+03  0.47000000000E+01 0.  1.
         11    1    6    6    0    0 -0.45897579802E+02 -0.54904516960E+02 -0.15018584829E+03  0.16636370650E+03  0.00000000000E+00 0. -1.
        -12    1    6    6    0    0  0.61197885048E+01  0.66861351524E+01  0.44942604603E+01  0.10117044613E+02  0.00000000000E+00 0.  1.
</event>
<event>
12    1  0.1345781E-002  0.2027096E+03  0.7818608E-02  0.1147473E+00
          2   -1    0    0  502    0  0.00000000000E+00  0.00000000000E+00  0.18064877389E+03  0.18064877389E+03  0.00000000000E+00 0.  1.
         -2   -1    0    0    0  501 -0.00000000000E+00 -0.00000000000E+00 -0.60253377094E+03  0.60253377094E+03  0.00000000000E+00 0. -1.
          6    2    1    2  502    0  0.62740159735E+02 -0.88985153973E+02  0.97938481604E+02  0.22530323303E+03  0.17121599039E+03 0.  0.
         24    2    3    3    0    0  0.10030045439E+03 -0.36992458260E+02  0.88431579146E+02  0.16029179299E+03  0.80278836503E+02 0.  0.
         -6    2    1    2    0  501 -0.62740159735E+02  0.88985153973E+02 -0.51982347865E+03  0.55787931181E+03  0.17075770059E+03 0.  0.
        -24    2    5    5    0    0 -0.10378313550E+03  0.33404883854E+02 -0.28655392765E+03  0.31454730464E+03  0.70285332216E+02 0.  0.
          5    1    3    3  502    0 -0.37560294656E+02 -0.51992695713E+02  0.95069024575E+01  0.65011440043E+02  0.47000000000E+01 0. -1.
        -11    1    4    4    0    0  0.36925483513E+02 -0.56121165846E+02  0.50018298265E+02  0.83755040147E+02  0.00000000000E+00 0.  1.
         12    1    4    4    0    0  0.63374970877E+02  0.19128707587E+02  0.38413280882E+02  0.76536752843E+02  0.00000000000E+00 0. -1.
         -5    1    5    5    0  501  0.41042975766E+02  0.55580270119E+02 -0.23326955100E+03  0.24333200716E+03  0.47000000000E+01 0.  1.
         13    1    6    6    0    0 -0.37626337010E+02  0.28930887530E+02 -0.19977071856E+03  0.20533162806E+03  0.00000000000E+00 0. -1.
        -14    1    6    6    0    0 -0.66156798491E+02  0.44739963242E+01 -0.86783209094E+02  0.10921567658E+03  0.00000000000E+00 0.  1.
</event>
<event>
12    1  0.1345781E-002  0.1775940E+03  0.7818608E-02  0.1170152E+00
          2   -1    0    0  502    0  0.00000000000E+00  0.00000000000E+00  0.16172883451E+04  0.16172883451E+04  0.00000000000E+00 0. -1.
         -2   -1    0    0    0  501 -0.00000000000E+00 -0.00000000000E+00 -0.19625826284E+02  0.19625826284E+02  0.00000000000E+00 0.  1.
          6    2    1    2  502    0 -0.36242913280E+02  0.24433703538E+02  0.73324732297E+03  0.75442357988E+03  0.17202542428E+03 0.  0.
         24    2    3    3    0    0 -0.69520749921E+02 -0.14290808749E+02  0.29832115289E+03  0.31648538140E+03  0.78295111565E+02 0.  0.
         -6    2    1    2    0  501  0.36242913280E+02 -0.24433703538E+02  0.86441519583E+03  0.88249059149E+03  0.17223663564E+03 0.  0.
        -24    2    5    5    0    0 -0.33580360095E+02 -0.42212340985E+02  0.63102205842E+03  0.63818378429E+03  0.78614133613E+02 0.  0.
          5    1    3    3  502    0  0.33277836640E+02  0.38724512288E+02  0.43492617008E+03  0.43793819847E+03  0.47000000000E+01 0. -1.
        -13    1    4    4    0    0 -0.29936146697E+02 -0.44420916911E+02  0.18768386772E+03  0.19517844384E+03  0.00000000000E+00 0.  1.
         14    1    4    4    0    0 -0.39584603224E+02  0.30130108162E+02  0.11063728517E+03  0.12130693756E+03  0.00000000000E+00 0. -1.
         -5    1    5    5    0  501  0.69823273375E+02  0.17778637447E+02  0.23339313742E+03  0.24430680721E+03  0.47000000000E+01 0.  1.
         13    1    6    6    0    0 -0.36182993199E+02  0.79253607754E+01  0.14821335247E+03  0.15277178467E+03  0.00000000000E+00 0. -1.
        -14    1    6    6    0    0  0.26026331037E+01 -0.50137701760E+02  0.48280870595E+03  0.48541199962E+03  0.00000000000E+00 0.  1.
</event>
<event>
12    1  0.1345781E-002  0.2210385E+03  0.7818608E-02  0.1133111E+00
          2   -1    0    0  502    0  0.00000000000E+00  0.00000000000E+00  0.46507053594E+03  0.46507053594E+03  0.00000000000E+00 0.  1.
         -2   -1    0    0    0  501 -0.00000000000E+00 -0.00000000000E+00 -0.10619752604E+03  0.10619752604E+03  0.00000000000E+00 0. -1.
          6    2    1    2  502    0 -0.10514313702E+03 -0.82142426367E+02  0.14711141123E+03  0.26231080312E+03  0.17135557373E+03 0.  0.
         24    2    3    3    0    0 -0.48135087613E+02 -0.11639328042E+03  0.11489787003E+03  0.18826459500E+03  0.79860220432E+02 0.  0.
         -6    2    1    2    0  501  0.10514313702E+03  0.82142426367E+02  0.21176159866E+03  0.30895725886E+03  0.18113297784E+03 0.  0.
        -24    2    5    5    0    0  0.72895815263E+02 -0.13389237722E+02  0.16514021841E+03  0.19777348441E+03  0.79686810885E+02 0.  0.
          5    1    3    3  502    0 -0.57008049403E+02  0.34250854054E+02  0.32213541197E+02  0.74046208118E+02  0.47000000000E+01 0. -1.
        -13    1    4    4    0    0 -0.56967444512E+02 -0.47255292651E+02  0.84191308181E+02  0.11210052984E+03  0.00000000000E+00 0.  1.
         14    1    4    4    0    0  0.88323568988E+01 -0.69137987770E+02  0.30706561852E+02  0.76164065162E+02  0.00000000000E+00 0. -1.
         -5    1    5    5    0  501  0.32247321754E+02  0.95531664089E+02  0.46621380247E+02  0.11118377445E+03  0.47000000000E+01 0.  1.
         13    1    6    6    0    0  0.62032603715E+02  0.24423054805E+02  0.12440283957E+03  0.14114034159E+03  0.00000000000E+00 0. -1.
        -14    1    6    6    0    0  0.10863211547E+02 -0.37812292528E+02  0.40737378843E+02  0.56633142826E+02  0.00000000000E+00 0.  1.
</event>
<event>
12    1  0.1345781E-002  0.5353581E+03  0.7818608E-02  0.1004941E+00
         -2   -1    0    0    0  501 -0.00000000000E+00  0.00000000000E+00  0.17443505372E+03  0.17443505372E+03  0.00000000000E+00 0. -1.
          2   -1    0    0  502    0  0.00000000000E+00 -0.00000000000E+00 -0.18675418686E+04  0.18675418686E+04  0.00000000000E+00 0.  1.
          6    2    1    2  502    0 -0.50715472753E+03 -0.98592420423E+01 -0.49234782112E+03  0.72721102340E+03  0.17066450508E+03 0.  0.
         24    2    3    3    0    0 -0.30070262881E+03  0.17260946325E+02 -0.20846638031E+03  0.37511908070E+03  0.80846037277E+02 0.  0.
         -6    2    1    2    0  501  0.50715472753E+03  0.98592420423E+01 -0.12007589937E+04  0.13147658989E+04  0.17170930530E+03 0.  0.
        -24    2    5    5    0    0  0.22323403394E+03 -0.51498855239E+02 -0.59324606382E+03  0.64136421611E+03  0.83196150562E+02 0.  0.
          5    1    3    3  502    0 -0.20645209872E+03 -0.27120188368E+02 -0.28388144081E+03  0.35209194271E+03  0.47000000000E+01 0. -1.
        -11    1    4    4    0    0 -0.18547702010E+03  0.20345551894E+02 -0.17317976987E+03  0.25457199210E+03  0.00000000000E+00 0.  1.
         12    1    4    4    0    0 -0.11522560870E+03 -0.30846055684E+01 -0.35286610432E+02  0.12054708859E+03  0.00000000000E+00 0. -1.
         -5    1    5    5    0  501  0.28392069358E+03  0.61358097282E+02 -0.60751292991E+03  0.67340168276E+03  0.47000000000E+01 0.  1.
         13    1    6    6    0    0  0.32809500472E+02  0.20859388224E+02 -0.74069782560E+02  0.83653512100E+02  0.00000000000E+00 0. -1.
        -14    1    6    6    0    0  0.19042453347E+03 -0.72358243463E+02 -0.51917628126E+03  0.55771070401E+03  0.00000000000E+00 0.  1.
</event>
<event>
12    1  0.1345781E-002  0.1764307E+03  0.7818608E-02  0.1171303E+00
         -1   -1    0    0    0  501 -0.00000000000E+00  0.00000000000E+00  0.12495939843E+02  0.12495939843E+02  0.00000000000E+00 0. -1.
          1   -1    0    0  502    0  0.00000000000E+00 -0.00000000000E+00 -0.25469966315E+04  0.25469966315E+04  0.00000000000E+00 0.  1.
          6    2    1    2  502    0 -0.40825914853E+02  0.93377630297E+01 -0.10749589710E+04  0.10892812358E+04  0.17100547428E+03 0.  0.
         24    2    3    3    0    0 -0.62200247934E+02 -0.40382273108E+02 -0.89033507330E+03  0.89683119630E+03  0.78166828568E+02 0.  0.
         -6    2    1    2    0  501  0.40825914853E+02 -0.93377630297E+01 -0.14595417207E+04  0.14702113356E+04  0.17177132364E+03 0.  0.
        -24    2    5    5    0    0  0.81637604479E+02 -0.44312827274E+02 -0.10382932137E+04  0.10455217504E+04  0.80216006800E+02 0.  0.
          5    1    3    3  502    0  0.21374333081E+02  0.49720036138E+02 -0.18462389770E+03  0.19245003952E+03  0.47000000000E+01 0. -1.
        -13    1    4    4    0    0 -0.80294609815E+02 -0.39853695179E+02 -0.73754644287E+03  0.74297395430E+03  0.00000000000E+00 0.  1.
         14    1    4    4    0    0  0.18094361880E+02 -0.52857792856E+00 -0.15278863043E+03  0.15385724200E+03  0.00000000000E+00 0. -1.
         -5    1    5    5    0  501 -0.40811689625E+02  0.34975064244E+02 -0.42124850700E+03  0.42468958521E+03  0.47000000000E+01 0.  1.
         11    1    6    6    0    0  0.28834726624E+02 -0.47662391852E+02 -0.28626938063E+03  0.29163899489E+03  0.00000000000E+00 0. -1.
        -12    1    6    6    0    0  0.52802877855E+02  0.33495645784E+01 -0.75202383307E+03  0.75388275548E+03  0.00000000000E+00 0.  1.
</event>
<event>
12    1  0.1345781E-002  0.2162244E+03  0.7818608E-02  0.1136730E+00
         -1   -1    0    0    0  501 -0.00000000000E+00  0.00000000000E+00  0.81486780661E+02  0.81486780661E+02  0.00000000000E+00 0. -1.
          1   -1    0    0  502    0  0.00000000000E+00 -0.00000000000E+00 -0.59779045029E+03  0.59779045029E+03  0.00000000000E+00 0.  1.
          6    2    1    2  502    0 -0.12761464769E+03  0.29739744830E+02 -0.32652254832E+03  0.39175026177E+03  0.17228273945E+03 0.  0.
         24    2    3    3    0    0 -0.12338247003E+03 -0.19244437890E+02 -0.30421029761E+03  0.33755350896E+03  0.76189788908E+02 0.  0.
         -6    2    1    2    0  501  0.12761464769E+03 -0.29739744830E+02 -0.18978112131E+03  0.28752696918E+03  0.17171177383E+03 0.  0.
        -24    2    5    5    0    0  0.37277262676E+02 -0.60790979917E+02 -0.51399723702E+02  0.11931126380E+03  0.80672848726E+02 0.  0.
          5    1    3    3  502    0 -0.42321776511E+01  0.48984182720E+02 -0.22312250708E+02  0.54196752818E+02  0.47000000000E+01 0. -1.
        -11    1    4    4    0    0 -0.36594961343E+02  0.28738606233E+02 -0.83547615806E+02  0.95631076490E+02  0.00000000000E+00 0.  1.
         12    1    4    4    0    0 -0.86787508691E+02 -0.47983044123E+02 -0.22066268181E+03  0.24192243247E+03  0.00000000000E+00 0. -1.
         -5    1    5    5    0  501  0.90337385010E+02  0.31051235088E+02 -0.13838139761E+03  0.16821570538E+03  0.47000000000E+01 0.  1.
         11    1    6    6    0    0  0.10979581128E+02  0.76798970078E+01  0.15183284150E+02  0.20250040429E+02  0.00000000000E+00 0. -1.
        -12    1    6    6    0    0  0.26297681548E+02 -0.68470876925E+02 -0.66583007852E+02  0.99061223374E+02  0.00000000000E+00 0.  1.
</event>
<event>
12    1  0.1345781E-002  0.2016594E+03  0.7818608E-02  0.1148346E+00
         -1   -1    0    0    0  501 -0.00000000000E+00  0.00000000000E+00  0.57285979958E+03  0.57285979958E+03  0.00000000000E+00 0. -1.
          1   -1    0    0  502    0  0.00000000000E+00 -0.00000000000E+00 -0.16814359898E+03  0.16814359898E+03  0.00000000000E+00 0.  1.
          6    2    1    2  502    0 -0.46553369293E+02 -0.95257388428E+02 -0.79497946463E+02  0.21627064540E+03  0.17091483941E+03 0.  0.
         24    2    3    3    0    0 -0.34407812259E+02 -0.66128242691E+02 -0.12109432295E+03  0.16384574461E+03  0.81392573063E+02 0.  0.
         -6    2    1    2    0  501  0.46553369293E+02  0.95257388428E+02  0.48421414706E+03  0.52473275316E+03  0.17216252723E+03 0.  0.
        -24    2    5    5    0    0  0.18958536962E+02  0.21895948202E+02  0.39744469447E+03  0.40770966319E+03  0.86174390770E+02 0.  0.
          5    1    3    3  502    0 -0.12145557034E+02 -0.29129145738E+02  0.41596376484E+02  0.52424900798E+02  0.47000000000E+01 0. -1.
        -13    1    4    4    0    0 -0.42377511657E+02 -0.56851383205E+02 -0.39158101518E+02  0.81001791222E+02  0.00000000000E+00 0.  1.
         14    1    4    4    0    0  0.79696993979E+01 -0.92768594851E+01 -0.81936221428E+02  0.82843953384E+02  0.00000000000E+00 0. -1.
         -5    1    5    5    0  501  0.27594832330E+02  0.73361440226E+02  0.86769452593E+02  0.11702308997E+03  0.47000000000E+01 0.  1.
         11    1    6    6    0    0 -0.21448358631E+02  0.33468558480E+02  0.10523577661E+03  0.11249331169E+03  0.00000000000E+00 0. -1.
        -12    1    6    6    0    0  0.40406895594E+02 -0.11572610278E+02  0.29220891785E+03  0.29521635150E+03  0.00000000000E+00 0.  1.
</event>
<event>
12    1  0.1345781E-002  0.2495992E+03  0.7818608E-02  0.1113558E+00
          2   -1    0    0  502    0  0.00000000000E+00  0.00000000000E+00  0.71756663954E+03  0.71756663954E+03  0.00000000000E+00 0. -1.
         -2   -1    0    0    0  501 -0.00000000000E+00 -0.00000000000E+00 -0.35272329958E+03  0.35272329958E+03  0.00000000000E+00 0.  1.
          6    2    1    2  502    0 -0.18024336881E+03  0.18822850889E+02  0.64709581280E+03  0.69363611107E+03  0.17191885269E+03 0.  0.
         24    2    3    3    0    0 -0.41563390166E+02  0.54289900776E+02  0.23253699965E+03  0.25503475714E+03  0.79337017930E+02 0.  0.
         -6    2    1    2    0  501  0.18024336881E+03 -0.18822850889E+02 -0.28225247284E+03  0.37665382806E+03  0.17134665462E+03 0.  0.
        -24    2    5    5    0    0  0.16632808915E+02 -0.15838217111E+02 -0.61503024122E+02  0.10182709636E+03  0.77837241231E+02 0.  0.
          5    1    3    3  502    0 -0.13867997864E+03 -0.35467049887E+02  0.41455881315E+03  0.43860135393E+03  0.47000000000E+01 0. -1.
        -11    1    4    4    0    0  0.53755877564E+00 -0.91580859224E+01  0.11256527193E+03  0.11293847862E+03  0.00000000000E+00 0.  1.
         12    1    4    4    0    0 -0.42100948942E+02  0.63447986698E+02  0.11997172772E+03  0.14209627852E+03  0.00000000000E+00 0. -1.
         -5    1    5    5    0  501  0.16361055990E+03 -0.29846337787E+01 -0.22074944872E+03  0.27482673170E+03  0.47000000000E+01 0.  1.
         13    1    6    6    0    0  0.76285797221E+01 -0.27453225851E+02 -0.76011012290E+02  0.81176036043E+02  0.00000000000E+00 0. -1.
        -14    1    6    6    0    0  0.90042291925E+01  0.11615008740E+02  0.14507988168E+02  0.20651060313E+02  0.00000000000E+00 0.  1.
</event>
<event>
12    1  0.1345781E-002  0.1925559E+03  0.7818608E-02  0.1156176E+00
          2   -1    0    0  502    0  0.00000000000E+00  0.00000000000E+00  0.44416981953E+03  0.44416981953E+03  0.00000000000E+00 0.  1.
         -2   -1    0    0    0  501 -0.00000000000E+00 -0.00000000000E+00 -0.97004661349E+02  0.97004661349E+02  0.00000000000E+00 0. -1.
          6    2    1    2  502    0  0.84650141713E+02 -0.56400310901E+01  0.72293910591E+02  0.20538897817E+03  0.17251309052E+03 0.  0.
         24    2    3    3    0    0  0.12824914869E+02  0.54365474143E+02  0.47871329716E+02  0.10854850974E+03  0.79818741767E+02 0.  0.
         -6    2    1    2    0  501 -0.84650141713E+02  0.56400310901E+01  0.27487124759E+03  0.33578550271E+03  0.17320578696E+03 0.  0.
        -24    2    5    5    0    0 -0.59623539617E+02 -0.47296508796E+02  0.24657240601E+03  0.27058180264E+03  0.81391856445E+02 0.  0.
          5    1    3    3  502    0  0.71825226844E+02 -0.60005505233E+02  0.24422580876E+02  0.96840468432E+02  0.47000000000E+01 0. -1.
        -11    1    4    4    0    0 -0.52622775093E+01 -0.11673591559E+02  0.37084374479E+02  0.39232832360E+02  0.00000000000E+00 0.  1.
         12    1    4    4    0    0  0.18087192378E+02  0.66039065703E+02  0.10786955237E+02  0.69315677377E+02  0.00000000000E+00 0. -1.
         -5    1    5    5    0  501 -0.25026602096E+02  0.52936539886E+02  0.28298841581E+02  0.65203700067E+02  0.47000000000E+01 0.  1.
         13    1    6    6    0    0 -0.56532502114E+01  0.13841013945E+02  0.52396763946E+01  0.15842572824E+02  0.00000000000E+00 0. -1.
        -14    1    6    6    0    0 -0.53970289406E+02 -0.61137522741E+02  0.24133272961E+03  0.25473922982E+03  0.00000000000E+00 0.  1.
</event>
<event>
12    1  0.1345781E-002  0.2264705E+03  0.7818608E-02  0.1129149E+00
          1   -1    0    0  502    0  0.00000000000E+00  0.00000000000E+00  0.15496951381E+03  0.15496951381E+03  0.00000000000E+00 0.  1.
         -1   -1    0    0    0  501 -0.00000000000E+00 -0.00000000000E+00 -0.34062947856E+03  0.34062947856E+03  0.00000000000E+00 0. -1.
          6    2    1    2  502    0 -0.40184478870E+02  0.13996430431E+03 -0.50701004685E+02  0.23111029879E+03  0.17215277955E+03 0.  0.
         24    2    3    3    0    0 -0.21160041395E+02  0.16425766474E+03 -0.67038935931E+02  0.19588084265E+03  0.80291704481E+02 0.  0.
         -6    2    1    2    0  501  0.40184478870E+02 -0.13996430431E+03 -0.13495896006E+03  0.26448869358E+03  0.17474423970E+03 0.  0.
        -24    2    5    5    0    0  0.34484349766E+02 -0.20665113215E+02 -0.60550423794E+01  0.88695922223E+02  0.78829472901E+02 0.  0.
          5    1    3    3  502    0 -0.19024437475E+02 -0.24293360434E+02  0.16337931247E+02  0.35229456139E+02  0.47000000000E+01 0. -1.
        -13    1    4    4    0    0  0.12526633765E+02  0.17858611747E+02  0.13274002373E+02  0.25535185647E+02  0.00000000000E+00 0.  1.
         14    1    4    4    0    0 -0.33686675160E+02  0.14639905300E+03 -0.80312938304E+02  0.17034565701E+03  0.00000000000E+00 0. -1.
         -5    1    5    5    0  501  0.57001291037E+01 -0.11929919109E+03 -0.12890391768E+03  0.17579277136E+03  0.47000000000E+01 0.  1.
         11    1    6    6    0    0  0.31683452200E+02  0.59879060726E+01 -0.36121173490E+02  0.48419369438E+02  0.00000000000E+00 0. -1.
        -12    1    6    6    0    0  0.28008975656E+01 -0.26653019288E+02  0.30066131110E+02  0.40276552785E+02  0.00000000000E+00 0.  1.
</event>
<event>
12    1  0.1345781E-002  0.2032896E+03  0.7818608E-02  0.1146993E+00
         -2   -1    0    0    0  501 -0.00000000000E+00  0.00000000000E+00  0.14915438827E+03  0.14915438827E+03  0.00000000000E+00 0. -1.
          2   -1    0    0  502    0  0.00000000000E+00 -0.00000000000E+00 -0.30313708778E+03  0.30313708778E+03  0.00000000000E+00 0.  1.
          6    2    1    2  502    0 -0.90007347049E+02  0.68755851663E+02 -0.99478114521E+01  0.20129795470E+03  0.16611206444E+03 0.  0.
         24    2    3    3    0    0 -0.97831026857E+02  0.10122160759E+03  0.11409342773E+02  0.16137987220E+03  0.78080512230E+02 0.  0.
         -6    2    1    2    0  501  0.90007347049E+02 -0.68755851663E+02 -0.14403488806E+03  0.25099352135E+03  0.17153136483E+03 0.  0.
        -24    2    5    5    0    0 -0.13622019317E+02 -0.42140439693E+02 -0.33361555344E+02  0.96986695844E+02  0.79574177520E+02 0.  0.
          5    1    3    3  502    0  0.78236798078E+01 -0.32465755930E+02 -0.21357154225E+02  0.39918082500E+02  0.47000000000E+01 0. -1.
        -13    1    4    4    0    0 -0.93528155381E+02  0.77594715449E+02 -0.18603692317E+02  0.12294125867E+03  0.00000000000E+00 0.  1.
         14    1    4    4    0    0 -0.43028714756E+01  0.23626892145E+02  0.30013035090E+02  0.38438613537E+02  0.00000000000E+00 0. -1.
         -5    1    5    5    0  501  0.10362936637E+03 -0.26615411971E+02 -0.11067333271E+03  0.15400682550E+03  0.47000000000E+01 0.  1.
         13    1    6    6    0    0 -0.34584761827E+02 -0.14215277647E+02 -0.46508469886E+02  0.59675938538E+02  0.00000000000E+00 0. -1.
        -14    1    6    6    0    0  0.20962742510E+02 -0.27925162045E+02  0.13146914542E+02  0.37310757306E+02  0.00000000000E+00 0.  1.
</event>
<event>
12    1  0.1345781E-002  0.2157750E+03  0.7818608E-02  0.1137073E+00
          2   -1    0    0  502    0  0.00000000000E+00  0.00000000000E+00  0.18397184058E+03  0.18397184058E+03  0.00000000000E+00 0. -1.
         -2   -1    0    0    0  501 -0.00000000000E+00 -0.00000000000E+00 -0.42586642799E+03  0.42586642799E+03  0.00000000000E+00 0.  1.
          6    2    1    2  502    0  0.12739724374E+03 -0.11259526170E+02  0.72481711361E+02  0.22983929324E+03  0.17667956189E+03 0.  0.
         24    2    3    3    0    0  0.10552844823E+03  0.33229654050E+02 -0.62960860211E+01  0.13664292671E+03  0.79944889928E+02 0.  0.
         -6    2    1    2    0  501 -0.12739724374E+03  0.11259526170E+02 -0.31437629878E+03  0.37999897533E+03  0.17090912609E+03 0.  0.
        -24    2    5    5    0    0 -0.35518185683E+02  0.43950194682E+02 -0.23375353272E+03  0.25337922362E+03  0.79794459564E+02 0.  0.
          5    1    3    3  502    0  0.21868795512E+02 -0.44489180221E+02  0.78777797382E+02  0.93196366529E+02  0.47000000000E+01 0. -1.
        -11    1    4    4    0    0 -0.12053343965E+02  0.63421067823E+01 -0.84105248842E+01  0.16007571584E+02  0.00000000000E+00 0.  1.
         12    1    4    4    0    0  0.11758179219E+03  0.26887547268E+02  0.21144388630E+01  0.12063535512E+03  0.00000000000E+00 0. -1.
         -5    1    5    5    0  501 -0.91879058059E+02 -0.32690668512E+02 -0.80622766057E+02  0.12661975171E+03  0.47000000000E+01 0.  1.
         11    1    6    6    0    0  0.14243269442E+02  0.16054616492E+01 -0.12985034399E+03  0.13063904495E+03  0.00000000000E+00 0. -1.
        -12    1    6    6    0    0 -0.49761455125E+02  0.42344733033E+02 -0.10390318873E+03  0.12274017867E+03  0.00000000000E+00 0.  1.
</event>
<event>
12    1  0.1345781E-002  0.2424930E+03  0.7818608E-02  0.1118143E+00
          2   -1    0    0  502    0  0.00000000000E+00  0.00000000000E+00  0.34388556742E+03  0.34388556742E+03  0.00000000000E+00 0.  1.
         -2   -1    0    0    0  501 -0.00000000000E+00 -0.00000000000E+00 -0.27529077792E+03  0.27529077792E+03  0.00000000000E+00 0. -1.
          6    2    1    2  502    0  0.90604479150E+02  0.14444842916E+03 -0.15631171866E+03  0.28797938419E+03  0.17153498767E+03 0.  0.
         24    2    3    3    0    0  0.71696107148E+02  0.15486311104E+03 -0.70556368871E+02  0.19942396567E+03  0.75291446757E+02 0.  0.
         -6    2    1    2    0  501 -0.90604479150E+02 -0.14444842916E+03  0.22490650816E+03  0.33119696116E+03  0.17330311405E+03 0.  0.
        -24    2    5    5    0    0 -0.85769082863E+02 -0.32144997368E+02  0.72290142425E+02  0.14159398930E+03  0.80208208321E+02 0.  0.
          5    1    3    3  502    0  0.18908372002E+02 -0.10414681881E+02 -0.85755349789E+02  0.88555418512E+02  0.47000000000E+01 0. -1.
        -13    1    4    4    0    0 -0.14230176686E+02  0.85150471751E+01 -0.92002235786E+01  0.18964389545E+02  0.00000000000E+00 0.  1.
         14    1    4    4    0    0  0.85926283834E+02  0.14634806387E+03 -0.61356145292E+02  0.18045957613E+03  0.00000000000E+00 0. -1.
         -5    1    5    5    0  501 -0.48353962867E+01 -0.11230343179E+03  0.15261636573E+03  0.18960297186E+03  0.47000000000E+01 0.  1.
         11    1    6    6    0    0 -0.68327380794E+02 -0.53941301112E+02  0.32360222987E+02  0.92873456723E+02  0.00000000000E+00 0. -1.
        -12    1    6    6    0    0 -0.17441702069E+02  0.21796303744E+02  0.39929919438E+02  0.48720532574E+02  0.00000000000E+00 0.  1.
</event>
<event>
12    1  0.1345781E-002  0.1779172E+03  0.7818608E-02  0.1169834E+00
         -3   -1    0    0    0  501 -0.00000000000E+00  0.00000000000E+00  0.42565489863E+03  0.42565489863E+03  0.00000000000E+00 0. -1.
          3   -1    0    0  502    0  0.00000000000E+00 -0.00000000000E+00 -0.81937467540E+02  0.81937467540E+02  0.00000000000E+00 0.  1.
          6    2    1    2  502    0 -0.39253170362E+02  0.26641729924E+01  0.24795923075E+03  0.30450594192E+03  0.17231418790E+03 0.  0.
         24    2    3    3    0    0 -0.55522034507E+02  0.98572087741E+01  0.58069037934E+02  0.11372651160E+03  0.79886453136E+02 0.  0.
         -6    2    1    2    0  501  0.39253170362E+02 -0.26641729924E+01  0.95758200339E+02  0.20308642425E+03  0.17471849811E+03 0.  0.
        -24    2    5    5    0    0  0.44007575699E+02 -0.52337146556E+02  0.10867045422E+03  0.15132905788E+03  0.80096020573E+02 0.  0.
          5    1    3    3  502    0  0.16268864144E+02 -0.71930357817E+01  0.18989019282E+03  0.19077943032E+03  0.47000000000E+01 0. -1.
        -13    1    4    4    0    0 -0.61926077816E+02 -0.21552192290E+02  0.35923891727E+02  0.74765380378E+02  0.00000000000E+00 0.  1.
         14    1    4    4    0    0  0.64040433095E+01  0.31409401065E+02  0.22145146207E+02  0.38961131227E+02  0.00000000000E+00 0. -1.
         -5    1    5    5    0  501 -0.47544053365E+01  0.49672973563E+02 -0.12912253879E+02  0.51757366364E+02  0.47000000000E+01 0.  1.
         13    1    6    6    0    0 -0.13705148133E+02 -0.96071696608E+01 -0.44702403497E+01  0.17323736405E+02  0.00000000000E+00 0. -1.
        -14    1    6    6    0    0  0.57712723832E+02 -0.42729976895E+02  0.11314069457E+03  0.13400532148E+03  0.00000000000E+00 0.  1.
</event>
<event>
12    1  0.1345781E-002  0.1796776E+03  0.7818608E-02  0.1168115E+00
         -1   -1    0    0    0  501 -0.00000000000E+00  0.00000000000E+00  0.34932544118E+02  0.34932544118E+02  0.00000000000E+00 0. -1.
          1   -1    0    0  502    0  0.00000000000E+00 -0.00000000000E+00 -0.18668650130E+04  0.18668650130E+04  0.00000000000E+00 0.  1.
          6    2    1    2  502    0  0.35256166674E+02  0.40101567457E+02 -0.24204287433E+03  0.30186612043E+03  0.17229993805E+03 0.  0.
         24    2    3    3    0    0 -0.34790581947E+00  0.79916340891E+02 -0.21275522329E+03  0.24077010858E+03  0.79490361465E+02 0.  0.
         -6    2    1    2    0  501 -0.35256166674E+02 -0.40101567457E+02 -0.15898895945E+04  0.15999314366E+04  0.17082314310E+03 0.  0.
        -24    2    5    5    0    0  0.23060095289E+02 -0.26242951949E+02 -0.53264982980E+03  0.54098344088E+03  0.87902113758E+02 0.  0.
          5    1    3    3  502    0  0.35604072493E+02 -0.39814773434E+02 -0.29287651037E+02  0.61096011858E+02  0.47000000000E+01 0. -1.
        -13    1    4    4    0    0  0.13506945765E+02  0.23205805040E+02 -0.82405230178E+01  0.28086530420E+02  0.00000000000E+00 0.  1.
         14    1    4    4    0    0 -0.13854851585E+02  0.56710535852E+02 -0.20451470027E+03  0.21268357816E+03  0.00000000000E+00 0. -1.
         -5    1    5    5    0  501 -0.58316261962E+02 -0.13858615508E+02 -0.10572397647E+04  0.10589479958E+04  0.47000000000E+01 0.  1.
         11    1    6    6    0    0 -0.16688591262E+02 -0.24925227021E+02 -0.64349937299E+02  0.70997820042E+02  0.00000000000E+00 0. -1.
        -12    1    6    6    0    0  0.39748686551E+02 -0.13177249275E+01 -0.46829989250E+03  0.46998562084E+03  0.00000000000E+00 0.  1.
</event>
<event>
12    1  0.1345781E-002  0.1842355E+03  0.7818608E-02  0.1163766E+00
          2   -1    0    0  502    0  0.00000000000E+00  0.00000000000E+00  0.37853714117E+03  0.37853714117E+03  0.00000000000E+00 0. -1.
         -2   -1    0    0    0  501 -0.00000000000E+00 -0.00000000000E+00 -0.94765491867E+02  0.94765491867E+02  0.00000000000E+00 0.  1.
          6    2    1    2  502    0  0.53284994914E+02  0.64088554667E+01  0.88998355520E+02  0.20696810547E+03  0.17898247201E+03 0.  0.
         24    2    3    3    0    0  0.59084624741E+02 -0.12701012172E+02 -0.18350748559E+02  0.97676098014E+02  0.74508801893E+02 0.  0.
         -6    2    1    2    0  501 -0.53284994914E+02 -0.64088554667E+01  0.19477329379E+03  0.26633452757E+03  0.17354273391E+03 0.  0.
        -24    2    5    5    0    0 -0.73045850147E+02  0.39446000190E+02  0.74178907373E+02  0.13572727195E+03  0.77638256657E+02 0.  0.
          5    1    3    3  502    0 -0.57996298264E+01  0.19109867639E+02  0.10734910408E+03  0.10929200746E+03  0.47000000000E+01 0. -1.
        -13    1    4    4    0    0  0.37854231586E+02  0.24002153075E+02  0.10944325845E+02  0.46139185834E+02  0.00000000000E+00 0.  1.
         14    1    4    4    0    0  0.21230393155E+02 -0.36703165247E+02 -0.29295074405E+02  0.51536912180E+02  0.00000000000E+00 0. -1.
         -5    1    5    5    0  501  0.19760855232E+02 -0.45854855656E+02  0.12059438641E+03  0.13060725562E+03  0.47000000000E+01 0.  1.
         13    1    6    6    0    0 -0.50566814416E+02 -0.15097144329E+02  0.47422599549E+02  0.70949485094E+02  0.00000000000E+00 0. -1.
        -14    1    6    6    0    0 -0.22479035731E+02  0.54543144518E+02  0.26756307823E+02  0.64777786854E+02  0.00000000000E+00 0.  1.
</event>
<event>
12    1  0.1345781E-002  0.1903552E+03  0.7818608E-02  0.1158141E+00
          1   -1    0    0  502    0  0.00000000000E+00  0.00000000000E+00  0.32826856543E+03  0.32826856543E+03  0.00000000000E+00 0.  1.
         -1   -1    0    0    0  501 -0.00000000000E+00 -0.00000000000E+00 -0.13939574435E+03  0.13939574435E+03  0.00000000000E+00 0. -1.
          6    2    1    2  502    0 -0.36177285493E+01 -0.84179497403E+02  0.20165063614E+03  0.27826931142E+03  0.17225433196E+03 0.  0.
         24    2    3    3    0    0  0.16481561047E+02 -0.12172424366E+03  0.17437765405E+03  0.22748058269E+03  0.79065896073E+02 0.  0.
         -6    2    1    2    0  501  0.36177285493E+01  0.84179497403E+02 -0.12777815061E+02  0.18939499836E+03  0.16913875103E+03 0.  0.
        -24    2    5    5    0    0  0.14037048035E+02  0.12026913393E+03  0.87569985654E+01  0.14584201589E+03  0.80817728755E+02 0.  0.
          5    1    3    3  502    0 -0.20099289596E+02  0.37544746254E+02  0.27272982094E+02  0.50788728729E+02  0.47000000000E+01 0. -1.
        -13    1    4    4    0    0  0.19764061335E+02 -0.22411262920E+02  0.97121053713E+02  0.10161388636E+03  0.00000000000E+00 0.  1.
         14    1    4    4    0    0 -0.32825002879E+01 -0.99312980737E+02  0.77256600337E+02  0.12586669634E+03  0.00000000000E+00 0. -1.
         -5    1    5    5    0  501 -0.10419319486E+02 -0.36089636531E+02 -0.21534813626E+02  0.43552982463E+02  0.47000000000E+01 0.  1.
         13    1    6    6    0    0 -0.27868952935E+02  0.80288159794E+02 -0.84883309207E+01  0.85410297404E+02  0.00000000000E+00 0. -1.
        -14    1    6    6    0    0  0.41906000970E+02  0.39980974139E+02  0.17245329486E+02  0.60431718489E+02  0.00000000000E+00 0.  1.
</event>
<event>
12    1  0.1345781E-002  0.2053525E+03  0.7818608E-02  0.1145300E+00
          2   -1    0    0  502    0  0.00000000000E+00  0.00000000000E+00  0.20763592316E+03  0.20763592316E+03  0.00000000000E+00 0.  1.
         -2   -1    0    0    0  501 -0.00000000000E+00 -0.00000000000E+00 -0.26866409098E+03  0.26866409098E+03  0.00000000000E+00 0. -1.
          6    2    1    2  502    0  0.79640131426E+02  0.79035629977E+02  0.87129907554E+02  0.22313459791E+03  0.17207047002E+03 0.  0.
         24    2    3    3    0    0  0.24772725531E+02  0.23179400253E+02  0.11092018109E+03  0.14116864312E+03  0.80463200914E+02 0.  0.
         -6    2    1    2    0  501 -0.79640131426E+02 -0.79035629977E+02 -0.14815807537E+03  0.25316541623E+03  0.17190907869E+03 0.  0.
        -24    2    5    5    0    0 -0.10946984377E+03 -0.99907281004E+02 -0.12305086822E+03  0.20869183524E+03  0.80284833145E+02 0.  0.
          5    1    3    3  502    0  0.54867405896E+02  0.55856229724E+02 -0.23790273539E+02  0.81965954785E+02  0.47000000000E+01 0. -1.
        -13    1    4    4    0    0  0.31726119961E+02  0.36089745767E+02  0.11607267574E+03  0.12562596265E+03  0.00000000000E+00 0.  1.
         14    1    4    4    0    0 -0.69533944303E+01 -0.12910345514E+02 -0.51524946459E+01  0.15542680479E+02  0.00000000000E+00 0. -1.
         -5    1    5    5    0  501  0.29829712344E+02  0.20871651026E+02 -0.25107207154E+02  0.44473580991E+02  0.47000000000E+01 0.  1.
         11    1    6    6    0    0 -0.79008773231E+02 -0.19403830061E+02 -0.71844129399E+02  0.10853789107E+03  0.00000000000E+00 0. -1.
        -12    1    6    6    0    0 -0.30461070539E+02 -0.80503450943E+02 -0.51206738817E+02  0.10015394417E+03  0.00000000000E+00 0.  1.
</event>
<event>
12    1  0.1345781E-002  0.2723626E+03  0.7818608E-02  0.1099935E+00
          1   -1    0    0  502    0  0.00000000000E+00  0.00000000000E+00  0.15750184758E+04  0.15750184758E+04  0.00000000000E+00 0.  1.
         -1   -1    0    0    0  501 -0.00000000000E+00 -0.00000000000E+00 -0.53202570697E+02  0.53202570697E+02  0.00000000000E+00 0. -1.
          6    2    1    2  502    0 -0.18596969346E+03 -0.97558022921E+02  0.10392875871E+04  0.10746558028E+04  0.17511171017E+03 0.  0.
         24    2    3    3    0    0 -0.55215948744E+02 -0.94969325744E+02  0.64655459871E+03  0.66069380782E+03  0.80096721188E+02 0.  0.
         -6    2    1    2    0  501  0.18596969346E+03  0.97558022921E+02  0.48252831804E+03  0.55356524375E+03  0.17175158415E+03 0.  0.
        -24    2    5    5    0    0  0.92889337689E+02  0.32104606426E+01  0.32610273709E+03  0.34848850808E+03  0.80389732005E+02 0.  0.
          5    1    3    3  502    0 -0.13075374471E+03 -0.25886971779E+01  0.39273298840E+03  0.41396199498E+03  0.47000000000E+01 0. -1.
        -13    1    4    4    0    0 -0.75870187159E+02 -0.80688042977E+02  0.51760520290E+03  0.52932220022E+03  0.00000000000E+00 0.  1.
         14    1    4    4    0    0  0.20654238414E+02 -0.14281282767E+02  0.12894939581E+03  0.13137160759E+03  0.00000000000E+00 0. -1.
         -5    1    5    5    0  501  0.93080355767E+02  0.94347562279E+02  0.15642558095E+03  0.20507673567E+03  0.47000000000E+01 0.  1.
         13    1    6    6    0    0  0.21574790041E+01  0.45893917572E+01 -0.37978366815E+01  0.63356764290E+01  0.00000000000E+00 0. -1.
        -14    1    6    6    0    0  0.90731858685E+02 -0.13789311146E+01  0.32990057377E+03  0.34215283165E+03  0.00000000000E+00 0.  1.
</event>
<event>
12    1  0.1345781E-002  0.2234667E+03  0.7818608E-02  0.1131325E+00
          1   -1    0    0  502    0  0.00000000000E+00  0.00000000000E+00  0.58404523506E+03  0.58404523506E+03  0.00000000000E+00 0. -1.
         -1   -1    0    0    0  501 -0.00000000000E+00 -0.00000000000E+00 -0.85725511482E+02  0.85725511482E+02  0.00000000000E+00 0.  1.
          6    2    1    2  502    0  0.14293603710E+03  0.24195117930E+02  0.26760820921E+03  0.34950361006E+03  0.17182114357E+03 0.  0.
         24    2    3    3    0    0  0.16788834647E+03  0.26057619890E+02  0.18715510009E+03  0.26511830670E+03  0.79969923242E+02 0.  0.
         -6    2    1    2    0  501 -0.14293603710E+03 -0.24195117930E+02  0.23071151436E+03  0.32026713647E+03  0.16830662914E+03 0.  0.
        -24    2    5    5    0    0 -0.60859686061E+02 -0.38645180829E+02  0.20341081767E+03  0.23244487416E+03  0.86355702703E+02 0.  0.
          5    1    3    3  502    0 -0.24952309370E+02 -0.18625019603E+01  0.80453109119E+02  0.84385303361E+02  0.47000000000E+01 0. -1.
        -11    1    4    4    0    0  0.55627661273E+02 -0.25621485069E+02  0.85072087796E+02  0.10482441184E+03  0.00000000000E+00 0.  1.
         12    1    4    4    0    0  0.11226068520E+03  0.51679104959E+02  0.10208301230E+03  0.16029389486E+03  0.00000000000E+00 0. -1.
         -5    1    5    5    0  501 -0.82076351040E+02  0.14450062899E+02  0.27300696692E+02  0.87822262313E+02  0.47000000000E+01 0.  1.
         11    1    6    6    0    0 -0.68014262644E+02 -0.25284178004E+02  0.20475224234E+03  0.21722962580E+03  0.00000000000E+00 0. -1.
        -12    1    6    6    0    0  0.71545765829E+01 -0.13361002825E+02 -0.13414246719E+01  0.15215248362E+02  0.00000000000E+00 0.  1.
</event>
<event>
12    1  0.1345781E-002  0.2051517E+03  0.7818608E-02  0.1145464E+00
         -2   -1    0    0    0  501 -0.00000000000E+00  0.00000000000E+00  0.57780088440E+02  0.57780088440E+02  0.00000000000E+00 0.  1.
          2   -1    0    0  502    0  0.00000000000E+00 -0.00000000000E+00 -0.95189159609E+03  0.95189159609E+03  0.00000000000E+00 0. -1.
          6    2    1    2  502    0  0.19537421706E+02 -0.10902270355E+03 -0.20265739991E+03  0.28846253197E+03  0.17283792951E+03 0.  0.
         24    2    3    3    0    0 -0.25000973847E+02 -0.12171427851E+03 -0.18540082316E+03  0.23881755040E+03  0.84976131159E+02 0.  0.
         -6    2    1    2    0  501 -0.19537421706E+02  0.10902270355E+03 -0.69145410774E+03  0.72120915256E+03  0.17252883204E+03 0.  0.
        -24    2    5    5    0    0  0.20877802004E+02  0.68909309300E+02 -0.62036549604E+03  0.63000523038E+03  0.82878622780E+02 0.  0.
          5    1    3    3  502    0  0.44538395553E+02  0.12691574963E+02 -0.17256576749E+02  0.49644981565E+02  0.47000000000E+01 0. -1.
        -11    1    4    4    0    0  0.33513344557E+01 -0.10544949847E+03 -0.92416959528E+02  0.14025591816E+03  0.00000000000E+00 0.  1.
         12    1    4    4    0    0 -0.28352308303E+02 -0.16264780046E+02 -0.92983863629E+02  0.98561632248E+02  0.00000000000E+00 0. -1.
         -5    1    5    5    0  501 -0.40415223710E+02  0.40113394250E+02 -0.71088611706E+02  0.91203922175E+02  0.47000000000E+01 0.  1.
         11    1    6    6    0    0  0.33585866170E+02  0.82720622356E+02 -0.54905768385E+03  0.55626886661E+03  0.00000000000E+00 0. -1.
        -12    1    6    6    0    0 -0.12708064166E+02 -0.13811313056E+02 -0.71307812186E+02  0.73736363770E+02  0.00000000000E+00 0.  1.
</event>
<event>
12    1  0.1345781E-002  0.1754810E+03  0.7818608E-02  0.1172250E+00
         -2   -1    0    0    0  501 -0.00000000000E+00  0.00000000000E+00  0.40303624669E+02  0.40303624669E+02  0.00000000000E+00 0.  1.
          2   -1    0    0  502    0  0.00000000000E+00 -0.00000000000E+00 -0.80325036721E+03  0.80325036721E+03  0.00000000000E+00 0. -1.
          6    2    1    2  502    0  0.31776274588E+02 -0.16486122514E+02 -0.47394819852E+03  0.50527262020E+03  0.17144095772E+03 0.  0.
         24    2    3    3    0    0  0.14914017155E+02  0.31229152887E+02 -0.13528908610E+03  0.16282091900E+03  0.83724709304E+02 0.  0.
         -6    2    1    2    0  501 -0.31776274588E+02  0.16486122514E+02 -0.28899854403E+03  0.33828137169E+03  0.17214123305E+03 0.  0.
        -24    2    5    5    0    0 -0.73904829427E+01 -0.48096154304E+02 -0.22360616315E+03  0.24307742854E+03  0.81969877213E+02 0.  0.
          5    1    3    3  502    0  0.16862257432E+02 -0.47715275402E+02 -0.33865911241E+03  0.34245170120E+03  0.47000000000E+01 0. -1.
        -11    1    4    4    0    0  0.13394618654E+02 -0.27712693233E+02 -0.57398643000E+02  0.65130740771E+02  0.00000000000E+00 0.  1.
         12    1    4    4    0    0  0.15193985018E+01  0.58941846121E+02 -0.77890443101E+02  0.97690178229E+02  0.00000000000E+00 0. -1.
         -5    1    5    5    0  501 -0.24385791645E+02  0.64582276818E+02 -0.65392380881E+02  0.95203943146E+02  0.47000000000E+01 0.  1.
         11    1    6    6    0    0  0.53923361614E+01  0.22726055196E+02 -0.55425023384E+02  0.60145524282E+02  0.00000000000E+00 0. -1.
        -12    1    6    6    0    0 -0.12782819104E+02 -0.70822209500E+02 -0.16818113977E+03  0.18293190426E+03  0.00000000000E+00 0.  1.
</event>
<event>
12    1  0.1345781E-002  0.2394328E+03  0.7818608E-02  0.1120171E+00
          2   -1    0    0  502    0  0.00000000000E+00  0.00000000000E+00  0.28884718901E+03  0.28884718901E+03  0.00000000000E+00 0. -1.
         -2   -1    0    0    0  501 -0.00000000000E+00 -0.00000000000E+00 -0.20209660622E+03  0.20209660622E+03  0.00000000000E+00 0.  1.
          6    2    1    2  502    0 -0.71529336242E+02  0.14960153505E+03  0.76333369516E+02  0.25177801391E+03  0.17340219074E+03 0.  0.
         24    2    3    3    0    0 -0.10425273895E+03  0.11593495632E+03  0.97213869629E+02  0.20018009832E+03  0.79448018477E+02 0.  0.
         -6    2    1    2    0  501  0.71529336242E+02 -0.14960153505E+03  0.10417213273E+02  0.23916578132E+03  0.17203106519E+03 0.  0.
        -24    2    5    5    0    0  0.92362749298E+02 -0.14936411385E+03 -0.29558232233E+02  0.19384234685E+03  0.76554884732E+02 0.  0.
          5    1    3    3  502    0  0.32723402704E+02  0.33666578730E+02 -0.20880500113E+02  0.51597915587E+02  0.47000000000E+01 0. -1.
        -11    1    4    4    0    0 -0.80648823677E+02  0.94461173923E+02  0.33063647236E+02  0.12853151718E+03  0.00000000000E+00 0.  1.
         12    1    4    4    0    0 -0.23603915269E+02  0.21473782398E+02  0.64150222393E+02  0.71648581141E+02  0.00000000000E+00 0. -1.
         -5    1    5    5    0  501 -0.20833413057E+02 -0.23742119884E+00  0.39975445506E+02  0.45323434466E+02  0.47000000000E+01 0.  1.
         11    1    6    6    0    0  0.37639794567E+02 -0.11240973648E+03 -0.43647004342E+02  0.12632404355E+03  0.00000000000E+00 0. -1.
        -12    1    6    6    0    0  0.54722954731E+02 -0.36954377369E+02  0.14088772109E+02  0.67518303302E+02  0.00000000000E+00 0.  1.
</event>
<event>
12    1  0.1345781E-002  0.2757598E+03  0.7818608E-02  0.1098028E+00
         -1   -1    0    0    0  501 -0.00000000000E+00  0.00000000000E+00  0.19397069315E+03  0.19397069315E+03  0.00000000000E+00 0.  1.
          1   -1    0    0  502    0  0.00000000000E+00 -0.00000000000E+00 -0.43942892869E+03  0.43942892869E+03  0.00000000000E+00 0. -1.
          6    2    1    2  502    0  0.13876136404E+03 -0.16549006333E+03 -0.22677517991E+03  0.35710669322E+03  0.17162905031E+03 0.  0.
         24    2    3    3    0    0  0.25351448737E+02 -0.12260031148E+03 -0.87691958599E+02  0.17253266430E+03  0.80025672872E+02 0.  0.
         -6    2    1    2    0  501 -0.13876136404E+03  0.16549006333E+03 -0.18683055634E+02  0.27629292862E+03  0.17130980306E+03 0.  0.
        -24    2    5    5    0    0 -0.92597751647E+02  0.40589617000E+02 -0.50971520490E+02  0.13919502358E+03  0.80964795256E+02 0.  0.
          5    1    3    3  502    0  0.11340991530E+03 -0.42889751847E+02 -0.13908322131E+03  0.18457402892E+03  0.47000000000E+01 0. -1.
        -13    1    4    4    0    0 -0.12313223279E+02 -0.22466832590E+02  0.10148378941E+02  0.27556553291E+02  0.00000000000E+00 0.  1.
         14    1    4    4    0    0  0.37664672016E+02 -0.10013347889E+03 -0.97840337540E+02  0.14497611101E+03  0.00000000000E+00 0. -1.
         -5    1    5    5    0  501 -0.46163612392E+02  0.12490044633E+03  0.32288464856E+02  0.13709790504E+03  0.47000000000E+01 0.  1.
         11    1    6    6    0    0 -0.16058763129E+02  0.40428964701E+02 -0.44740420530E+02  0.62402646493E+02  0.00000000000E+00 0. -1.
        -12    1    6    6    0    0 -0.76538988518E+02  0.16065229881E+00 -0.62310999603E+01  0.76792377090E+02  0.00000000000E+00 0.  1.
</event>
<event>
12    1  0.1345781E-002  0.2034330E+03  0.7818608E-02  0.1146874E+00
         -2   -1    0    0    0  501 -0.00000000000E+00  0.00000000000E+00  0.44838586278E+02  0.44838586278E+02  0.00000000000E+00 0.  1.
          2   -1    0    0  502    0  0.00000000000E+00 -0.00000000000E+00 -0.11337964397E+04  0.11337964397E+04  0.00000000000E+00 0. -1.
          6    2    1    2  502    0  0.98686489245E+02 -0.21303234167E+02 -0.78755645312E+03  0.81221143352E+03  0.17102454484E+03 0.  0.
         24    2    3    3    0    0 -0.12700562206E+02 -0.11521296847E+02 -0.42231078760E+03  0.43020456485E+03  0.80221703618E+02 0.  0.
         -6    2    1    2    0  501 -0.98686489245E+02  0.21303234167E+02 -0.30140140028E+03  0.36642359244E+03  0.18229260561E+03 0.  0.
        -24    2    5    5    0    0  0.11042086540E+02 -0.26321348079E+02 -0.93384799789E+02  0.12642055650E+03  0.80291314819E+02 0.  0.
          5    1    3    3  502    0  0.11138705145E+03 -0.97819373206E+01 -0.36524566552E+03  0.38200686867E+03  0.47000000000E+01 0. -1.
        -13    1    4    4    0    0  0.11127925491E+02  0.11059433212E+02 -0.15442025625E+02  0.22013585444E+02  0.00000000000E+00 0.  1.
         14    1    4    4    0    0 -0.23828487697E+02 -0.22580730058E+02 -0.40686876198E+03  0.40819097940E+03  0.00000000000E+00 0. -1.
         -5    1    5    5    0  501 -0.10972857578E+03  0.47624582247E+02 -0.20801660049E+03  0.24000303593E+03  0.47000000000E+01 0.  1.
         13    1    6    6    0    0  0.29873522318E+02  0.78983517025E+01 -0.70975682527E+01  0.31704680576E+02  0.00000000000E+00 0. -1.
        -14    1    6    6    0    0 -0.18831435779E+02 -0.34219699782E+02 -0.86287231536E+02  0.94715875928E+02  0.00000000000E+00 0.  1.
</event>
<event>
12    1  0.1345781E-002  0.2118658E+03  0.7818608E-02  0.1140097E+00
         -2   -1    0    0    0  501 -0.00000000000E+00  0.00000000000E+00  0.48589531481E+02  0.48589531481E+02  0.00000000000E+00 0.  1.
          2   -1    0    0  502    0  0.00000000000E+00 -0.00000000000E+00 -0.15361300303E+04  0.15361300303E+04  0.00000000000E+00 0. -1.
          6    2    1    2  502    0 -0.10831410756E+03  0.62607790943E+02 -0.12417535143E+04  0.12595181108E+04  0.16965376421E+03 0.  0.
         24    2    3    3    0    0 -0.12035480827E+02 -0.24948458714E+02 -0.48450890748E+03  0.49115806797E+03  0.75631262815E+02 0.  0.
         -6    2    1    2    0  501  0.10831410756E+03 -0.62607790943E+02 -0.24578698454E+03  0.32520145103E+03  0.17231674497E+03 0.  0.
        -24    2    5    5    0    0  0.66816521085E+02  0.28933412166E+02 -0.16020029967E+03  0.19310674191E+03  0.79526649157E+02 0.  0.
          5    1    3    3  502    0 -0.96278626734E+02  0.87556249657E+02 -0.75724460682E+03  0.76836004281E+03  0.47000000000E+01 0. -1.
        -11    1    4    4    0    0 -0.12451060810E+02  0.26145110754E+02 -0.15006200023E+03  0.15283062404E+03  0.00000000000E+00 0.  1.
         12    1    4    4    0    0  0.41557998311E+00 -0.51093569467E+02 -0.33444690725E+03  0.33832744394E+03  0.00000000000E+00 0. -1.
         -5    1    5    5    0  501  0.41497586476E+02 -0.91541203110E+02 -0.85586684872E+02  0.13209470912E+03  0.47000000000E+01 0.  1.
         11    1    6    6    0    0  0.58694171305E+02  0.31406612637E+02 -0.16853714990E+03  0.18120748318E+03  0.00000000000E+00 0. -1.
        -12    1    6    6    0    0  0.81223497805E+01 -0.24732004703E+01  0.83368502322E+01  0.11899258730E+02  0.00000000000E+00 0.  1.
</event>
<event>
12    1  0.1345781E-002  0.2598923E+03  0.7818608E-02  0.1107208E+00
          1   -1    0    0  502    0  0.00000000000E+00  0.00000000000E+00  0.10031505148E+04  0.10031505148E+04  0.00000000000E+00 0.  1.
         -1   -1    0    0    0  501 -0.00000000000E+00 -0.00000000000E+00 -0.67532453876E+02  0.67532453876E+02  0.00000000000E+00 0. -1.
          6    2    1    2  502    0 -0.17969166123E+03 -0.72415194385E+02  0.43695676137E+03  0.50790895349E+03  0.17177671624E+03 0.  0.
         24    2    3    3    0    0 -0.12609491472E+03 -0.33074405182E+02  0.40737268975E+03  0.43498696624E+03  0.79166335316E+02 0.  0.
         -6    2    1    2    0  501  0.17969166123E+03  0.72415194385E+02  0.49866129955E+03  0.56277401518E+03  0.17469529759E+03 0.  0.
        -24    2    5    5    0    0  0.11574696701E+02  0.35237479039E+02  0.14520069329E+03  0.16957942410E+03  0.79361742747E+02 0.  0.
          5    1    3    3  502    0 -0.53596746510E+02 -0.39340789203E+02  0.29584071617E+02  0.72921987254E+02  0.47000000000E+01 0. -1.
        -13    1    4    4    0    0  0.98396447447E+01 -0.10535907921E+02  0.47396646442E+02  0.49540549637E+02  0.00000000000E+00 0.  1.
         14    1    4    4    0    0 -0.13593455946E+03 -0.22538497260E+02  0.35997604331E+03  0.38544641660E+03  0.00000000000E+00 0. -1.
         -5    1    5    5    0  501  0.16811696452E+03  0.37177715346E+02  0.35346060626E+03  0.39319459109E+03  0.47000000000E+01 0.  1.
         11    1    6    6    0    0  0.36627367069E+02  0.43378893663E+02  0.71416161196E+02  0.91233549278E+02  0.00000000000E+00 0. -1.
        -12    1    6    6    0    0 -0.25052670367E+02 -0.81414146242E+01  0.73784532093E+02  0.78345874817E+02  0.00000000000E+00 0.  1.
</event>
<event>
12    1  0.1345781E-002  0.1819220E+03  0.7818608E-02  0.1165956E+00
          1   -1    0    0  502    0  0.00000000000E+00  0.00000000000E+00  0.27474083914E+02  0.27474083914E+02  0.00000000000E+00 0.  1.
         -1   -1    0    0    0  501 -0.00000000000E+00 -0.00000000000E+00 -0.12488232235E+04  0.12488232235E+04  0.00000000000E+00 0. -1.
          6    2    1    2  502    0 -0.10915075377E+02  0.54900761992E+02 -0.72704678233E+03  0.74919082132E+03  0.17192041916E+03 0.  0.
         24    2    3    3    0    0 -0.65749320342E+01  0.96540852751E+02 -0.38801205729E+03  0.40754865650E+03  0.78607791164E+02 0.  0.
         -6    2    1    2    0  501  0.10915075377E+02 -0.54900761992E+02 -0.49430235728E+03  0.52710648612E+03  0.17427907147E+03 0.  0.
        -24    2    5    5    0    0  0.41584034583E+02 -0.33094035246E+02 -0.47492459173E+03  0.48451885660E+03  0.79879330686E+02 0.  0.
          5    1    3    3  502    0 -0.43401433433E+01 -0.41640090759E+02 -0.33903472504E+03  0.34164216483E+03  0.47000000000E+01 0. -1.
        -13    1    4    4    0    0  0.15402340360E+02  0.44644984729E+01 -0.12624632926E+02  0.20409438790E+02  0.00000000000E+00 0.  1.
         14    1    4    4    0    0 -0.21977272395E+02  0.92076354278E+02 -0.37538742436E+03  0.38713921771E+03  0.00000000000E+00 0. -1.
         -5    1    5    5    0  501 -0.30668959205E+02 -0.21806726746E+02 -0.19377765558E+02  0.42587629520E+02  0.47000000000E+01 0.  1.
         13    1    6    6    0    0  0.27785482285E+02  0.14053237449E+02 -0.33059409219E+03  0.33205719432E+03  0.00000000000E+00 0. -1.
        -14    1    6    6    0    0  0.13798552298E+02 -0.47147272694E+02 -0.14433049954E+03  0.15246166228E+03  0.00000000000E+00 0.  1.
</event>
<event>
12    1  0.1345781E-002  0.2858606E+03  0.7818608E-02  0.1092530E+00
          2   -1    0    0  502    0  0.00000000000E+00  0.00000000000E+00  0.22700425229E+03  0.22700425229E+03  0.00000000000E+00 0.  1.
         -2   -1    0    0    0  501 -0.00000000000E+00 -0.00000000000E+00 -0.38049090127E+03  0.38049090127E+03  0.00000000000E+00 0. -1.
          6    2    1    2  502    0 -0.17910628120E+03 -0.14136789023E+03 -0.62913472652E+01  0.28622958059E+03  0.17269583493E+03 0.  0.
         24    2    3    3    0    0 -0.19645949800E+03 -0.15398912835E+03 -0.17420522898E+02  0.26160483013E+03  0.76319240865E+02 0.  0.
         -6    2    1    2    0  501  0.17910628120E+03  0.14136789023E+03 -0.14719530172E+03  0.32126557297E+03  0.17170081881E+03 0.  0.
        -24    2    5    5    0    0  0.11288425850E+03  0.17437333875E+02 -0.44146050880E+02  0.14695155407E+03  0.81234038467E+02 0.  0.
          5    1    3    3  502    0  0.17353216801E+02  0.12621238120E+02  0.11129175633E+02  0.24624750461E+02  0.47000000000E+01 0. -1.
        -11    1    4    4    0    0 -0.11708876127E+03 -0.13371500235E+03  0.56179011814E+00  0.17773518357E+03  0.00000000000E+00 0.  1.
         12    1    4    4    0    0 -0.79370736725E+02 -0.20274126001E+02 -0.17982313016E+02  0.83869646564E+02  0.00000000000E+00 0. -1.
         -5    1    5    5    0  501  0.66222022697E+02  0.12393055635E+03 -0.10304925084E+03  0.17431401890E+03  0.47000000000E+01 0.  1.
         13    1    6    6    0    0  0.89112728024E+02  0.47522642366E+02 -0.39014370229E+02  0.10826634250E+03  0.00000000000E+00 0. -1.
        -14    1    6    6    0    0  0.23771530476E+02 -0.30085308491E+02 -0.51316806505E+01  0.38685211573E+02  0.00000000000E+00 0.  1.
</event>
<event>
12    1  0.1345781E-002  0.3061132E+03  0.7818608E-02  0.1082224E+00
          1   -1    0    0  502    0  0.00000000000E+00  0.00000000000E+00  0.48781036850E+03  0.48781036850E+03  0.00000000000E+00 0. -1.
         -1   -1    0    0    0  501 -0.00000000000E+00 -0.00000000000E+00 -0.19373599516E+03  0.19373599516E+03  0.00000000000E+00 0.  1.
          6    2    1    2  502    0  0.18452643448E+03  0.17504608277E+03  0.11569428127E+03  0.32730935991E+03  0.17045560786E+03 0.  0.
         24    2    3    3    0    0  0.47786984707E+02  0.13404410984E+03  0.71455729840E+02  0.17778351485E+03  0.79054649034E+02 0.  0.
         -6    2    1    2    0  501 -0.18452643448E+03 -0.17504608277E+03  0.17838009207E+03  0.35423700376E+03  0.17021533852E+03 0.  0.
        -24    2    5    5    0    0 -0.20532853031E+03 -0.12999289314E+03  0.15517837328E+03  0.29925585388E+03  0.80098570049E+02 0.  0.
          5    1    3    3  502    0  0.13673944978E+03  0.41001972930E+02  0.44238551431E+02  0.14952584506E+03  0.47000000000E+01 0. -1.
        -11    1    4    4    0    0  0.63592327995E+02  0.77638877201E+02  0.26093143950E+02  0.10369489666E+03  0.00000000000E+00 0.  1.
         12    1    4    4    0    0 -0.15805343289E+02  0.56405232639E+02  0.45362585890E+02  0.74088618183E+02  0.00000000000E+00 0. -1.
         -5    1    5    5    0  501  0.20802095826E+02 -0.45053189627E+02  0.23201718792E+02  0.54981149871E+02  0.47000000000E+01 0.  1.
         11    1    6    6    0    0 -0.54232872778E+02 -0.60254257331E+02  0.88402663782E+02  0.11994503316E+03  0.00000000000E+00 0. -1.
        -12    1    6    6    0    0 -0.15109565753E+03 -0.69738635813E+02  0.66775709497E+02  0.17931082072E+03  0.00000000000E+00 0.  1.
</event>
<event>
12    1  0.1345781E-002  0.2407204E+03  0.7818608E-02  0.1119314E+00
         -2   -1    0    0    0  501 -0.00000000000E+00  0.00000000000E+00  0.13440277598E+03  0.13440277598E+03  0.00000000000E+00 0.  1.
          2   -1    0    0  502    0  0.00000000000E+00 -0.00000000000E+00 -0.59477594650E+03  0.59477594650E+03  0.00000000000E+00 0. -1.
          6    2    1    2  502    0 -0.24472301814E+02 -0.16743621818E+03 -0.42182989732E+03  0.48597571040E+03  0.17204112332E+03 0.  0.
         24    2    3    3    0    0 -0.90612261497E+01 -0.93706900004E+02 -0.10482736415E+03  0.16011345477E+03  0.76055592790E+02 0.  0.
         -6    2    1    2    0  501  0.24472301814E+02  0.16743621818E+03 -0.38543273205E+02  0.24320301209E+03  0.17037705381E+03 0.  0.
        -24    2    5    5    0    0  0.21695873124E+02  0.15782934906E+03  0.24961539282E+02  0.17874409727E+03  0.77107454442E+02 0.  0.
          5    1    3    3  502    0 -0.15411075664E+02 -0.73729318171E+02 -0.31700253316E+03  0.32586225563E+03  0.47000000000E+01 0. -1.
        -11    1    4    4    0    0 -0.15397606144E+02 -0.41720850655E+02 -0.17629083549E+01  0.44506443357E+02  0.00000000000E+00 0.  1.
         12    1    4    4    0    0  0.63363799947E+01 -0.51986049349E+02 -0.10306445580E+03  0.11560701141E+03  0.00000000000E+00 0. -1.
         -5    1    5    5    0  501  0.27764286897E+01  0.96068691193E+01 -0.63504812487E+02  0.64458914819E+02  0.47000000000E+01 0.  1.
         13    1    6    6    0    0  0.36059115232E+02  0.29602160155E+02 -0.28912508805E+01  0.46742988873E+02  0.00000000000E+00 0. -1.
        -14    1    6    6    0    0 -0.14363242108E+02  0.12822718890E+03  0.27852790163E+02  0.13200110839E+03  0.00000000000E+00 0.  1.
</event>
<event>
12    1  0.1345781E-002  0.1785254E+03  0.7818608E-02  0.1169238E+00
         -2   -1    0    0    0  501 -0.00000000000E+00  0.00000000000E+00  0.29415767542E+02  0.29415767542E+02  0.00000000000E+00 0.  1.
          2   -1    0    0  502    0  0.00000000000E+00 -0.00000000000E+00 -0.10942079442E+04  0.10942079442E+04  0.00000000000E+00 0. -1.
          6    2    1    2  502    0 -0.37165365788E+02 -0.19245910722E+02 -0.48177740914E+03  0.51435807780E+03  0.17522297436E+03 0.  0.
         24    2    3    3    0    0 -0.29389022084E+02 -0.79419361253E+02 -0.25759998876E+03  0.28206748075E+03  0.77673418389E+02 0.  0.
         -6    2    1    2    0  501  0.37165365788E+02  0.19245910722E+02 -0.58301476751E+03  0.60926563394E+03  0.17189160558E+03 0.  0.
        -24    2    5    5    0    0 -0.11392334524E+02  0.69208945966E+02 -0.31128551876E+03  0.32870720904E+03  0.78930929312E+02 0.  0.
          5    1    3    3  502    0 -0.77763437047E+01  0.60173450531E+02 -0.22417742038E+03  0.23229059705E+03  0.47000000000E+01 0. -1.
        -13    1    4    4    0    0 -0.89897386669E+01 -0.84642934654E+01  0.16980333184E+01  0.12463666488E+02  0.00000000000E+00 0.  1.
         14    1    4    4    0    0 -0.20399283417E+02 -0.70955067788E+02 -0.25929802208E+03  0.26960381426E+03  0.00000000000E+00 0. -1.
         -5    1    5    5    0  501  0.48557700312E+02 -0.49963035244E+02 -0.27172924875E+03  0.28055842489E+03  0.47000000000E+01 0.  1.
         13    1    6    6    0    0 -0.41447308434E+02  0.58493340789E+02 -0.18371747054E+03  0.19720917644E+03  0.00000000000E+00 0. -1.
        -14    1    6    6    0    0  0.30054973911E+02  0.10715605177E+02 -0.12756804822E+03  0.13149803260E+03  0.00000000000E+00 0.  1.
</event>
<event>
12    1  0.1345781E-002  0.2186346E+03  0.7818608E-02  0.1134905E+00
          1   -1    0    0  502    0  0.00000000000E+00  0.00000000000E+00  0.12484264367E+04  0.12484264367E+04  0.00000000000E+00 0. -1.
         -1   -1    0    0    0  501 -0.00000000000E+00 -0.00000000000E+00 -0.42057847653E+02  0.42057847653E+02  0.00000000000E+00 0.  1.
          6    2    1    2  502    0 -0.13622730065E+03  0.60218822015E+02  0.42268907749E+03  0.47814888984E+03  0.16666169526E+03 0.  0.
         24    2    3    3    0    0 -0.13651800506E+02  0.21454629935E+02  0.24436874451E+03  0.25826790618E+03  0.79621324207E+02 0.  0.
         -6    2    1    2    0  501  0.13622730065E+03 -0.60218822015E+02  0.78367951156E+03  0.81233539451E+03  0.15346345614E+03 0.  0.
        -24    2    5    5    0    0  0.83679651311E+02  0.13084965317E+02  0.33666386924E+03  0.35628739795E+03  0.80153906490E+02 0.  0.
          5    1    3    3  502    0 -0.12257550014E+03  0.38764192080E+02  0.17832033298E+03  0.21988098366E+03  0.47000000000E+01 0. -1.
        -11    1    4    4    0    0  0.16554943652E+02  0.18173438450E+02  0.19561022662E+02  0.31416136491E+02  0.00000000000E+00 0.  1.
         12    1    4    4    0    0 -0.30206744159E+02  0.32811914850E+01  0.22480772185E+03  0.22685176969E+03  0.00000000000E+00 0. -1.
         -5    1    5    5    0  501  0.52547649335E+02 -0.73303787332E+02  0.44701564233E+03  0.45604799657E+03  0.47000000000E+01 0.  1.
         13    1    6    6    0    0 -0.12235689882E+02 -0.11515035968E+02  0.65125060563E+02  0.67257577072E+02  0.00000000000E+00 0. -1.
        -14    1    6    6    0    0  0.95915341192E+02  0.24600001286E+02  0.27153880867E+03  0.28902982088E+03  0.00000000000E+00 0.  1.
</event>
<event>
12    1  0.1345781E-002  0.1734894E+03  0.7818608E-02  0.1174257E+00
          2   -1    0    0  502    0  0.00000000000E+00  0.00000000000E+00  0.51387088221E+02  0.51387088221E+02  0.00000000000E+00 0. -1.
         -2   -1    0    0    0  501 -0.00000000000E+00 -0.00000000000E+00 -0.10261026717E+04  0.10261026717E+04  0.00000000000E+00 0.  1.
          6    2    1    2  502    0  0.18041224815E+02 -0.16668267003E+01 -0.84068669204E+03  0.85845030730E+03  0.17278469789E+03 0.  0.
         24    2    3    3    0    0 -0.54333147591E+02 -0.60117441309E+01 -0.42330865754E+03  0.43479544568E+03  0.82877186511E+02 0.  0.
         -6    2    1    2    0  501 -0.18041224815E+02  0.16668267003E+01 -0.13402889139E+03  0.21903945258E+03  0.17229705149E+03 0.  0.
        -24    2    5    5    0    0 -0.29606036150E+01  0.30515917965E+02 -0.56534875802E+01  0.86517644910E+02  0.80705356302E+02 0.  0.
          5    1    3    3  502    0  0.72374372406E+02  0.43449174306E+01 -0.41737803450E+03  0.42365486162E+03  0.47000000000E+01 0. -1.
        -11    1    4    4    0    0 -0.29913504881E+01  0.28417768834E+00 -0.31243309077E+03  0.31244753983E+03  0.00000000000E+00 0.  1.
         12    1    4    4    0    0 -0.51341797103E+02 -0.62959218192E+01 -0.11087556677E+03  0.12234790586E+03  0.00000000000E+00 0. -1.
         -5    1    5    5    0  501 -0.15080621200E+02 -0.28849091265E+02 -0.12837540381E+03  0.13252180767E+03  0.47000000000E+01 0.  1.
         13    1    6    6    0    0  0.23679779801E+02 -0.17270319038E+02  0.74899968037E+01  0.30250552775E+02  0.00000000000E+00 0. -1.
        -14    1    6    6    0    0 -0.26640383416E+02  0.47786237003E+02 -0.13143484384E+02  0.56267092134E+02  0.00000000000E+00 0.  1.
</event>
<event>
12    1  0.1345781E-002  0.1835466E+03  0.7818608E-02  0.1164414E+00
         -2   -1    0    0    0  501 -0.00000000000E+00  0.00000000000E+00  0.27518731839E+02  0.27518731839E+02  0.00000000000E+00 0.  1.
          2   -1    0    0  502    0  0.00000000000E+00 -0.00000000000E+00 -0.20755753586E+04  0.20755753586E+04  0.00000000000E+00 0. -1.
          6    2    1    2  502    0  0.42235294942E+02  0.43818249127E+02 -0.35003020849E+03  0.39515869334E+03  0.17298955741E+03 0.  0.
         24    2    3    3    0    0 -0.44918193290E+02  0.22510013343E+02 -0.17275289506E+03  0.19641487009E+03  0.78809223142E+02 0.  0.
         -6    2    1    2    0  501 -0.42235294942E+02 -0.43818249127E+02 -0.16980264183E+04  0.17079353971E+04  0.17333708322E+03 0.  0.
        -24    2    5    5    0    0 -0.67407309762E+02 -0.83505026441E+02 -0.13730989885E+04  0.13795932048E+04  0.79748001029E+02 0.  0.
          5    1    3    3  502    0  0.87153488232E+02  0.21308235784E+02 -0.17727731343E+03  0.19874382325E+03  0.47000000000E+01 0. -1.
        -13    1    4    4    0    0  0.59754711475E+01 -0.20364878343E+02 -0.17524275028E+02  0.27523349008E+02  0.00000000000E+00 0.  1.
         14    1    4    4    0    0 -0.50893664438E+02  0.42874891685E+02 -0.15522862003E+03  0.16889152108E+03  0.00000000000E+00 0. -1.
         -5    1    5    5    0  501  0.25172014820E+02  0.39686777314E+02 -0.32492742981E+03  0.32834219233E+03  0.47000000000E+01 0.  1.
         13    1    6    6    0    0 -0.17119294189E+02 -0.94979315692E+01 -0.53591240612E+02  0.57055253990E+02  0.00000000000E+00 0. -1.
        -14    1    6    6    0    0 -0.50288015573E+02 -0.74007094872E+02 -0.13195077479E+04  0.13225379508E+04  0.00000000000E+00 0.  1.
</event>
<event>
12    1  0.1345781E-002  0.2233814E+03  0.7818608E-02  0.1131387E+00
          3   -1    0    0  502    0  0.00000000000E+00  0.00000000000E+00  0.15704422343E+03  0.15704422343E+03  0.00000000000E+00 0.  1.
         -3   -1    0    0    0  501 -0.00000000000E+00 -0.00000000000E+00 -0.64645626910E+03  0.64645626910E+03  0.00000000000E+00 0. -1.
          6    2    1    2  502    0  0.13267873462E+03 -0.53258878215E+02  0.41203066986E+02  0.22818968785E+03  0.17301065338E+03 0.  0.
         24    2    3    3    0    0  0.69223211081E+02 -0.65032004841E+02  0.84869128379E+02  0.15012545215E+03  0.79459850399E+02 0.  0.
         -6    2    1    2    0  501 -0.13267873462E+03  0.53258878215E+02 -0.53061511265E+03  0.57531080468E+03  0.17026441048E+03 0.  0.
        -24    2    5    5    0    0 -0.10932783624E+02  0.30313066019E+02 -0.31993272666E+03  0.33085683222E+03  0.77915891277E+02 0.  0.
          5    1    3    3  502    0  0.63455523537E+02  0.11773126626E+02 -0.43666061393E+02  0.78064235700E+02  0.47000000000E+01 0. -1.
        -13    1    4    4    0    0  0.35280224767E+02 -0.33357135553E+02 -0.51641107501E+01  0.48826844991E+02  0.00000000000E+00 0.  1.
         14    1    4    4    0    0  0.33942986314E+02 -0.31674869287E+02  0.90033239129E+02  0.10129860716E+03  0.00000000000E+00 0. -1.
         -5    1    5    5    0  501 -0.12174595099E+03  0.22945812195E+02 -0.21068238600E+03  0.24445397246E+03  0.47000000000E+01 0.  1.
         13    1    6    6    0    0 -0.12593878748E+01  0.27477604067E+02 -0.31958904585E+03  0.32077057691E+03  0.00000000000E+00 0. -1.
        -14    1    6    6    0    0 -0.96733957490E+01  0.28354619521E+01 -0.34368080830E+00  0.10086255316E+02  0.00000000000E+00 0.  1.
</event>
<event>
12    1  0.1345781E-002  0.2135627E+03  0.7818608E-02  0.1138775E+00
         -1   -1    0    0    0  501 -0.00000000000E+00  0.00000000000E+00  0.11539966481E+03  0.11539966481E+03  0.00000000000E+00 0.  1.
          1   -1    0    0  502    0  0.00000000000E+00 -0.00000000000E+00 -0.40392736599E+03  0.40392736599E+03  0.00000000000E+00 0. -1.
          6    2    1    2  502    0 -0.61861474585E+02  0.11174928830E+03 -0.10664890802E+03  0.23936817264E+03  0.17207087789E+03 0.  0.
         24    2    3    3    0    0 -0.61800315977E+01  0.78448426069E+02  0.26338651756E+01  0.11219040322E+03  0.79921217367E+02 0.  0.
         -6    2    1    2    0  501  0.61861474585E+02 -0.11174928830E+03 -0.18187879317E+03  0.27995885815E+03  0.17024194954E+03 0.  0.
        -24    2    5    5    0    0  0.88611114200E+02 -0.87513071599E+02 -0.19115412489E+03  0.24239479024E+03  0.81883256003E+02 0.  0.
          5    1    3    3  502    0 -0.55681442987E+02  0.33300862227E+02 -0.10928277319E+03  0.12717776942E+03  0.47000000000E+01 0. -1.
        -13    1    4    4    0    0 -0.61037101470E+01  0.94650429353E+02 -0.33823042485E+01  0.94907318139E+02  0.00000000000E+00 0.  1.
         14    1    4    4    0    0 -0.76321450699E-01 -0.16202003284E+02  0.60161694241E+01  0.17283085081E+02  0.00000000000E+00 0. -1.
         -5    1    5    5    0  501 -0.26749639615E+02 -0.24236216698E+02  0.92753317275E+01  0.37564067911E+02  0.47000000000E+01 0.  1.
         13    1    6    6    0    0  0.45791698234E+02 -0.15312089501E+02 -0.12959822109E+03  0.13830053732E+03  0.00000000000E+00 0. -1.
        -14    1    6    6    0    0  0.42819415966E+02 -0.72200982098E+02 -0.61555903799E+02  0.10409425293E+03  0.00000000000E+00 0.  1.
</event>
<event>
12    1  0.1345781E-002  0.1762871E+03  0.7818608E-02  0.1171446E+00
         -3   -1    0    0    0  501 -0.00000000000E+00  0.00000000000E+00  0.49822950947E+02  0.49822950947E+02  0.00000000000E+00 0. -1.
          3   -1    0    0  502    0  0.00000000000E+00 -0.00000000000E+00 -0.79853795423E+03  0.79853795423E+03  0.00000000000E+00 0.  1.
          6    2    1    2  502    0  0.13272584878E+02  0.31503758137E+02 -0.17514692957E+03  0.24817786311E+03  0.17247364005E+03 0.  0.
         24    2    3    3    0    0  0.50874577583E+02  0.58178262633E+02 -0.16693244829E+03  0.20111400492E+03  0.81286332147E+02 0.  0.
         -6    2    1    2    0  501 -0.13272584878E+02 -0.31503758137E+02 -0.57356807371E+03  0.60018304206E+03  0.17340905546E+03 0.  0.
        -24    2    5    5    0    0  0.30034134004E+02  0.22092831151E+02 -0.17949209842E+03  0.20010051235E+03  0.80203860589E+02 0.  0.
          5    1    3    3  502    0 -0.37601992705E+02 -0.26674504496E+02 -0.82144812813E+01  0.47063858195E+02  0.47000000000E+01 0. -1.
        -13    1    4    4    0    0  0.60242872078E+02  0.39324651536E+02 -0.16496466522E+03  0.17996936580E+03  0.00000000000E+00 0.  1.
         14    1    4    4    0    0 -0.93682944955E+01  0.18853611096E+02 -0.19677830682E+01  0.21144639115E+02  0.00000000000E+00 0. -1.
         -5    1    5    5    0  501 -0.43306718882E+02 -0.53596589287E+02 -0.39407597529E+03  0.40008252971E+03  0.47000000000E+01 0.  1.
         13    1    6    6    0    0  0.31621989510E+02  0.50186798485E+02 -0.13499530916E+03  0.14745303814E+03  0.00000000000E+00 0. -1.
        -14    1    6    6    0    0 -0.15878555055E+01 -0.28093967335E+02 -0.44496789267E+02  0.52647474211E+02  0.00000000000E+00 0.  1.
</event>
<event>
12    1  0.1345781E-002  0.2064807E+03  0.7818608E-02  0.1144384E+00
         -2   -1    0    0    0  501 -0.00000000000E+00  0.00000000000E+00  0.29219716229E+03  0.29219716229E+03  0.00000000000E+00 0. -1.
          2   -1    0    0  502    0  0.00000000000E+00 -0.00000000000E+00 -0.21084414794E+03  0.21084414794E+03  0.00000000000E+00 0.  1.
          6    2    1    2  502    0  0.62207964461E+02  0.96865472483E+02 -0.98935042775E+02  0.22876793850E+03  0.17115453951E+03 0.  0.
         24    2    3    3    0    0 -0.17630990938E+02  0.38048107551E+01 -0.62483982179E+02  0.10076280040E+03  0.76964702882E+02 0.  0.
         -6    2    1    2    0  501 -0.62207964461E+02 -0.96865472483E+02  0.18028805713E+03  0.27427337173E+03  0.17166638662E+03 0.  0.
        -24    2    5    5    0    0 -0.76505227603E+02 -0.88252638211E+02  0.63359869765E+02  0.15606641911E+03  0.81857657405E+02 0.  0.
          5    1    3    3  502    0  0.79838955399E+02  0.93060661728E+02 -0.36451060596E+02  0.12800513810E+03  0.47000000000E+01 0. -1.
        -13    1    4    4    0    0  0.11914098577E+02 -0.86005317822E+00 -0.69103242277E+02  0.70128050947E+02  0.00000000000E+00 0.  1.
         14    1    4    4    0    0 -0.29545089515E+02  0.46648639333E+01  0.66192600986E+01  0.30634749456E+02  0.00000000000E+00 0. -1.
         -5    1    5    5    0  501  0.14297263142E+02 -0.86128342727E+01  0.11692818736E+03  0.11820695262E+03  0.47000000000E+01 0.  1.
         13    1    6    6    0    0  0.25279032168E+00 -0.49063631947E+01  0.40096413416E+02  0.40396270516E+02  0.00000000000E+00 0. -1.
        -14    1    6    6    0    0 -0.76758017925E+02 -0.83346275016E+02  0.23263456349E+02  0.11567014860E+03  0.00000000000E+00 0.  1.
</event>
<event>
12    1  0.1345781E-002  0.1877919E+03  0.7818608E-02  0.1160468E+00
         -3   -1    0    0    0  501 -0.00000000000E+00  0.00000000000E+00  0.15016597850E+03  0.15016597850E+03  0.00000000000E+00 0. -1.
          3   -1    0    0  502    0  0.00000000000E+00 -0.00000000000E+00 -0.24763380600E+03  0.24763380600E+03  0.00000000000E+00 0.  1.
          6    2    1    2  502    0 -0.48343967775E+02 -0.57388112974E+02 -0.33792302749E+01  0.18717272783E+03  0.17144000733E+03 0.  0.
         24    2    3    3    0    0 -0.93305022689E+02 -0.20158500466E+02  0.10871228131E+02  0.12690079347E+03  0.82906184220E+02 0.  0.
         -6    2    1    2    0  501  0.48343967775E+02  0.57388112974E+02 -0.94088597219E+02  0.21062705667E+03  0.17285993794E+03 0.  0.
        -24    2    5    5    0    0  0.79629288045E+00  0.42461542131E+02 -0.12301006543E+03  0.15281593985E+03  0.80110040769E+02 0.  0.
          5    1    3    3  502    0  0.44961054914E+02 -0.37229612508E+02 -0.14250458406E+02  0.60271934358E+02  0.47000000000E+01 0. -1.
        -11    1    4    4    0    0 -0.25741474110E+02  0.30622874057E+02 -0.67323418183E+01  0.40567330837E+02  0.00000000000E+00 0.  1.
         12    1    4    4    0    0 -0.67563548579E+02 -0.50781374523E+02  0.17603569949E+02  0.86333462632E+02  0.00000000000E+00 0. -1.
         -5    1    5    5    0  501  0.47547674895E+02  0.14926570843E+02  0.28921468211E+02  0.57811116825E+02  0.47000000000E+01 0.  1.
         13    1    6    6    0    0 -0.51080243591E+01 -0.18472462120E+02 -0.48989093832E+01  0.19781887745E+02  0.00000000000E+00 0. -1.
        -14    1    6    6    0    0  0.59043172396E+01  0.60934004251E+02 -0.11811115605E+03  0.13303405210E+03  0.00000000000E+00 0.  1.
</event>
<event>
12    1  0.1345781E-002  0.2254227E+03  0.7818608E-02  0.1129904E+00
          2   -1    0    0  502    0  0.00000000000E+00  0.00000000000E+00  0.27592437949E+04  0.27592437949E+04  0.00000000000E+00 0. -1.
         -2   -1    0    0    0  501 -0.00000000000E+00 -0.00000000000E+00 -0.18898448605E+02  0.18898448605E+02  0.00000000000E+00 0.  1.
          6    2    1    2  502    0 -0.13719728330E+03 -0.54484639700E+02  0.15795557377E+04  0.15952738762E+04  0.16766258114E+03 0.  0.
         24    2    3    3    0    0 -0.42898575142E+02 -0.81086816529E+02  0.73696898288E+03  0.74699653267E+03  0.80406333870E+02 0.  0.
         -6    2    1    2    0  501  0.13719728330E+03  0.54484639700E+02  0.11607896086E+04  0.11828683673E+04  0.17307047238E+03 0.  0.
        -24    2    5    5    0    0  0.10818526720E+03  0.97930117418E+02  0.99703188415E+03  0.10109152082E+04  0.81133348185E+02 0.  0.
          5    1    3    3  502    0 -0.94298708161E+02  0.26602176829E+02  0.84258675482E+03  0.84827734354E+03  0.47000000000E+01 0. -1.
        -13    1    4    4    0    0 -0.50183927514E+02 -0.22869192841E+02  0.22426290922E+03  0.23094432016E+03  0.00000000000E+00 0.  1.
         14    1    4    4    0    0  0.72853523725E+01 -0.58217623688E+02  0.51270607366E+03  0.51605221251E+03  0.00000000000E+00 0. -1.
         -5    1    5    5    0  501  0.29012016104E+02 -0.43445477718E+02  0.16375772447E+03  0.17195315914E+03  0.47000000000E+01 0.  1.
         13    1    6    6    0    0 -0.23483684079E+01  0.14866950519E+02  0.29577036251E+03  0.29615308270E+03  0.00000000000E+00 0. -1.
        -14    1    6    6    0    0  0.11053363561E+03  0.83063166899E+02  0.70126152163E+03  0.71476212548E+03  0.00000000000E+00 0.  1.
</event>
<event>
12    1  0.1345781E-002  0.1882299E+03  0.7818608E-02  0.1160068E+00
          1   -1    0    0  502    0  0.00000000000E+00  0.00000000000E+00  0.85192118466E+03  0.85192118466E+03  0.00000000000E+00 0.  1.
         -1   -1    0    0    0  501 -0.00000000000E+00 -0.00000000000E+00 -0.44414947037E+02  0.44414947037E+02  0.00000000000E+00 0. -1.
          6    2    1    2  502    0 -0.65254892619E+02  0.38046464710E+02  0.29043789719E+03  0.34602675602E+03  0.17226319767E+03 0.  0.
         24    2    3    3    0    0 -0.59559413303E+02  0.39703171620E+02  0.75962480900E+02  0.13141786209E+03  0.79854182246E+02 0.  0.
         -6    2    1    2    0  501  0.65254892619E+02 -0.38046464710E+02  0.51706834043E+03  0.55030937567E+03  0.17255435604E+03 0.  0.
        -24    2    5    5    0    0  0.69386770516E+02 -0.57919482107E+02  0.21071525982E+03  0.24324861746E+03  0.81239022910E+02 0.  0.
          5    1    3    3  502    0 -0.56954793162E+01 -0.16567069104E+01  0.21447541629E+03  0.21460889393E+03  0.47000000000E+01 0. -1.
        -11    1    4    4    0    0 -0.56842835914E+02  0.28045307789E+00  0.71954938784E+02  0.91698963266E+02  0.00000000000E+00 0.  1.
         12    1    4    4    0    0 -0.27165773888E+01  0.39422718542E+02  0.40075421161E+01  0.39718898824E+02  0.00000000000E+00 0. -1.
         -5    1    5    5    0  501 -0.41318778963E+01  0.19873017397E+02  0.30635308062E+03  0.30706075822E+03  0.47000000000E+01 0.  1.
         11    1    6    6    0    0 -0.10412050040E+02 -0.30952470736E+02  0.32215289540E+02  0.45872552914E+02  0.00000000000E+00 0. -1.
        -12    1    6    6    0    0  0.79798820556E+02 -0.26967011371E+02  0.17849997028E+03  0.19737606454E+03  0.00000000000E+00 0.  1.
</event>
<event>
12    1  0.1345781E-002  0.1725978E+03  0.7818608E-02  0.1175165E+00
         -2   -1    0    0    0  501 -0.00000000000E+00  0.00000000000E+00  0.11005751203E+03  0.11005751203E+03  0.00000000000E+00 0. -1.
          2   -1    0    0  502    0  0.00000000000E+00 -0.00000000000E+00 -0.30643448791E+03  0.30643448791E+03  0.00000000000E+00 0.  1.
          6    2    1    2  502    0  0.17706408335E+02 -0.14350327317E+02 -0.16943326946E+03  0.24201745985E+03  0.17130490152E+03 0.  0.
         24    2    3    3    0    0  0.27581989648E+02 -0.10658954349E+02 -0.19570955299E+03  0.21331752228E+03  0.79547198053E+02 0.  0.
         -6    2    1    2    0  501 -0.17706408335E+02  0.14350327317E+02 -0.26943706420E+02  0.17447454009E+03  0.17086823296E+03 0.  0.
        -24    2    5    5    0    0 -0.16530518201E+02  0.23988597440E+02 -0.80574169975E+02  0.11976991881E+03  0.83689460184E+02 0.  0.
          5    1    3    3  502    0 -0.98755813121E+01 -0.36913729684E+01  0.26276283531E+02  0.28699937576E+02  0.47000000000E+01 0. -1.
        -13    1    4    4    0    0 -0.21127195238E+02  0.18296297040E+02 -0.72559849079E+02  0.77756315257E+02  0.00000000000E+00 0.  1.
         14    1    4    4    0    0  0.48709184886E+02 -0.28955251389E+02 -0.12314970391E+03  0.13556120702E+03  0.00000000000E+00 0. -1.
         -5    1    5    5    0  501 -0.11758901346E+01 -0.96382701224E+01  0.53630463555E+02  0.54704621283E+02  0.47000000000E+01 0.  1.
         13    1    6    6    0    0 -0.60110274347E+01 -0.21752935237E+02  0.41188130881E+01  0.22940951670E+02  0.00000000000E+00 0. -1.
        -14    1    6    6    0    0 -0.10519490766E+02  0.45741532677E+02 -0.84692983063E+02  0.96828967142E+02  0.00000000000E+00 0.  1.
</event>
<event>
12    1  0.1345781E-002  0.2268145E+03  0.7818608E-02  0.1128902E+00
          2   -1    0    0  502    0  0.00000000000E+00  0.00000000000E+00  0.25438995775E+03  0.25438995775E+03  0.00000000000E+00 0.  1.
         -2   -1    0    0    0  501 -0.00000000000E+00 -0.00000000000E+00 -0.20235633013E+03  0.20235633013E+03  0.00000000000E+00 0. -1.
          6    2    1    2  502    0 -0.20289039400E+02 -0.15579950466E+03  0.28320533310E+02  0.22372269897E+03  0.15673117958E+03 0.  0.
         24    2    3    3    0    0 -0.48655353654E+02 -0.52864524017E+02 -0.12974437649E+02  0.10914686098E+03  0.81133839364E+02 0.  0.
         -6    2    1    2    0  501  0.20289039400E+02  0.15579950466E+03  0.23713094302E+02  0.23302358891E+03  0.17044808997E+03 0.  0.
        -24    2    5    5    0    0  0.66358018915E+02  0.96010154918E+02  0.53632723575E+02  0.15169467995E+03  0.80706073906E+02 0.  0.
          5    1    3    3  502    0  0.28366314254E+02 -0.10293498065E+03  0.41294970959E+02  0.11457583799E+03  0.47000000000E+01 0. -1.
        -13    1    4    4    0    0  0.90897933940E+01  0.11477201862E+02 -0.17202321849E+02  0.22589165180E+02  0.00000000000E+00 0.  1.
         14    1    4    4    0    0 -0.57745147048E+02 -0.64341725879E+02  0.42278842007E+01  0.86557695796E+02  0.00000000000E+00 0. -1.
         -5    1    5    5    0  501 -0.46068979516E+02  0.59789349746E+02 -0.29919629273E+02  0.81328908959E+02  0.47000000000E+01 0.  1.
         11    1    6    6    0    0  0.23719335525E+02  0.32580397957E+02 -0.20504102493E+02  0.45216229695E+02  0.00000000000E+00 0. -1.
        -12    1    6    6    0    0  0.42638683391E+02  0.63429756961E+02  0.74136826068E+02  0.10647845026E+03  0.00000000000E+00 0.  1.
</event>
<event>
12    1  0.1345781E-002  0.1888980E+03  0.7818608E-02  0.1159459E+00
         -2   -1    0    0    0  501 -0.00000000000E+00  0.00000000000E+00  0.37266627152E+03  0.37266627152E+03  0.00000000000E+00 0.  1.
          2   -1    0    0  502    0  0.00000000000E+00 -0.00000000000E+00 -0.27923397406E+03  0.27923397406E+03  0.00000000000E+00 0. -1.
          6    2    1    2  502    0  0.26544139585E+02 -0.76749385346E+02 -0.21742944153E+03  0.28859060082E+03  0.17150484932E+03 0.  0.
         24    2    3    3    0    0 -0.31703416669E+01  0.10255702617E+02 -0.43723252617E+02  0.91997707269E+02  0.80228578579E+02 0.  0.
         -6    2    1    2    0  501 -0.26544139585E+02  0.76749385346E+02  0.31086173899E+03  0.36330964477E+03  0.16959899092E+03 0.  0.
        -24    2    5    5    0    0 -0.37103222104E+02 -0.64502711390E+00  0.24689633548E+03  0.26224010361E+03  0.80218491144E+02 0.  0.
          5    1    3    3  502    0  0.29714481252E+02 -0.87005087963E+02 -0.17370618891E+03  0.19659289355E+03  0.47000000000E+01 0. -1.
        -13    1    4    4    0    0 -0.38596739912E+02  0.47368504412E+00 -0.55303924021E+01  0.38993819375E+02  0.00000000000E+00 0.  1.
         14    1    4    4    0    0  0.35426398245E+02  0.97820175733E+01 -0.38192860215E+02  0.53003887894E+02  0.00000000000E+00 0. -1.
         -5    1    5    5    0  501  0.10559082519E+02  0.77394412459E+02  0.63965403509E+02  0.10106954116E+03  0.47000000000E+01 0.  1.
         11    1    6    6    0    0 -0.42208919231E+02  0.29634427846E+02  0.10404367824E+03  0.11612441241E+03  0.00000000000E+00 0. -1.
        -12    1    6    6    0    0  0.51056971267E+01 -0.30279454960E+02  0.14285265724E+03  0.14611569120E+03  0.00000000000E+00 0.  1.
</event>
<event>
12    1  0.1345781E-002  0.1753534E+03  0.7818608E-02  0.1172377E+00
         -2   -1    0    0    0  501 -0.00000000000E+00  0.00000000000E+00  0.25119116630E+02  0.25119116630E+02  0.00000000000E+00 0. -1.
          2   -1    0    0  502    0  0.00000000000E+00 -0.00000000000E+00 -0.13942882249E+04  0.13942882249E+04  0.00000000000E+00 0.  1.
          6    2    1    2  502    0  0.35547753851E+02 -0.10292657348E+02 -0.93438794570E+03  0.95080085326E+03  0.17196467051E+03 0.  0.
         24    2    3    3    0    0  0.18400404862E+02 -0.15855529510E+02 -0.92775406986E+03  0.93102522603E+03  0.74097129727E+02 0.  0.
         -6    2    1    2    0  501 -0.35547753851E+02  0.10292657348E+02 -0.43478116259E+03  0.46860648828E+03  0.17084437339E+03 0.  0.
        -24    2    5    5    0    0  0.41491614571E+00 -0.39443428700E+02 -0.35730648884E+03  0.36965494983E+03  0.86144638536E+02 0.  0.
          5    1    3    3  502    0  0.17147348988E+02  0.55628721623E+01 -0.66338758332E+01  0.19775627236E+02  0.47000000000E+01 0. -1.
        -11    1    4    4    0    0  0.32195475348E+02  0.18282750639E+02 -0.31550255691E+03  0.31766754795E+03  0.00000000000E+00 0.  1.
         12    1    4    4    0    0 -0.13795070486E+02 -0.34138280149E+02 -0.61225151296E+03  0.61335767808E+03  0.00000000000E+00 0. -1.
         -5    1    5    5    0  501 -0.35962669997E+02  0.49736086047E+02 -0.77474673755E+02  0.98951538452E+02  0.47000000000E+01 0.  1.
         13    1    6    6    0    0 -0.12453342373E+02 -0.41922819164E+02 -0.73363260510E+02  0.85409463736E+02  0.00000000000E+00 0. -1.
        -14    1    6    6    0    0  0.12868258518E+02  0.24793904649E+01 -0.28394322833E+03  0.28424548610E+03  0.00000000000E+00 0.  1.
</event>
<event>
12    1  0.1345781E-002  0.1774205E+03  0.7818608E-02  0.1170323E+00
          1   -1    0    0  502    0  0.00000000000E+00  0.00000000000E+00  0.42054353885E+03  0.42054353885E+03  0.00000000000E+00 0.  1.
         -1   -1    0    0    0  501 -0.00000000000E+00 -0.00000000000E+00 -0.13375490487E+03  0.13375490487E+03  0.00000000000E+00 0. -1.
          6    2    1    2  502    0  0.37006262657E+02 -0.22498520601E+02  0.32744569023E+03  0.37256074804E+03  0.17235191912E+03 0.  0.
         24    2    3    3    0    0  0.90189714489E+02 -0.36278824223E+01  0.21989111249E+03  0.25100969816E+03  0.80662389554E+02 0.  0.
         -6    2    1    2    0  501 -0.37006262657E+02  0.22498520601E+02 -0.40657056243E+02  0.18173769568E+03  0.17175548580E+03 0.  0.
        -24    2    5    5    0    0 -0.89320992495E+02  0.18264050653E+02 -0.41849636741E+01  0.11765130687E+03  0.74246217692E+02 0.  0.
          5    1    3    3  502    0 -0.53183451832E+02 -0.18870638179E+02  0.10755457774E+03  0.12155104988E+03  0.47000000000E+01 0. -1.
        -13    1    4    4    0    0  0.37810822713E+02 -0.39426042239E+02  0.74519814425E+02  0.92397369350E+02  0.00000000000E+00 0.  1.
         14    1    4    4    0    0  0.52378891776E+02  0.35798159817E+02  0.14537129806E+03  0.15861232881E+03  0.00000000000E+00 0. -1.
         -5    1    5    5    0  501  0.52314729838E+02  0.42344699483E+01 -0.36472092569E+02  0.64086388805E+02  0.47000000000E+01 0.  1.
         11    1    6    6    0    0 -0.41786480534E+02  0.35819527600E+02  0.23573464708E+02  0.59873673273E+02  0.00000000000E+00 0. -1.
        -12    1    6    6    0    0 -0.47534511961E+02 -0.17555476947E+02 -0.27758428382E+02  0.57777633600E+02  0.00000000000E+00 0.  1.
</event>
<event>
12    1  0.1345781E-002  0.2359383E+03  0.7818608E-02  0.1122529E+00
          1   -1    0    0  502    0  0.00000000000E+00  0.00000000000E+00  0.54705835912E+03  0.54705835912E+03  0.00000000000E+00 0.  1.
         -1   -1    0    0    0  501 -0.00000000000E+00 -0.00000000000E+00 -0.10309329154E+03  0.10309329154E+03  0.00000000000E+00 0. -1.
          6    2    1    2  502    0 -0.48721747485E+02 -0.15479900498E+03  0.18479594847E+03  0.29954672617E+03  0.17100338584E+03 0.  0.
         24    2    3    3    0    0 -0.87224112831E+02 -0.12837990443E+03  0.96507505290E+02  0.19956002601E+03  0.80131514911E+02 0.  0.
         -6    2    1    2    0  501  0.48721747485E+02  0.15479900498E+03  0.25916911911E+03  0.35060492449E+03  0.17151862918E+03 0.  0.
        -24    2    5    5    0    0  0.26852878299E+02  0.38741022343E+02  0.19941914426E+03  0.21816681718E+03  0.74878709492E+02 0.  0.
          5    1    3    3  502    0  0.38502365346E+02 -0.26419100549E+02  0.88288443175E+02  0.99986700162E+02  0.47000000000E+01 0. -1.
        -11    1    4    4    0    0 -0.89646225104E+02 -0.13381765820E+03  0.75801632924E+02  0.17801544561E+03  0.00000000000E+00 0.  1.
         12    1    4    4    0    0  0.24221122729E+01  0.54377537730E+01  0.20705872367E+02  0.21544580396E+02  0.00000000000E+00 0. -1.
         -5    1    5    5    0  501  0.21868869186E+02  0.11605798264E+03  0.59749974846E+02  0.13243810731E+03  0.47000000000E+01 0.  1.
         13    1    6    6    0    0 -0.14068875492E+02 -0.12998057585E+02  0.23692944783E+02  0.30467004957E+02  0.00000000000E+00 0. -1.
        -14    1    6    6    0    0  0.40921753791E+02  0.51739079928E+02  0.17572619948E+03  0.18769981222E+03  0.00000000000E+00 0.  1.
</event>
<event>
12    1  0.1345781E-002  0.3092428E+03  0.7818608E-02  0.1080709E+00
          2   -1    0    0  502    0  0.00000000000E+00  0.00000000000E+00  0.19734695396E+04  0.19734695396E+04  0.00000000000E+00 0. -1.
         -2   -1    0    0    0  501 -0.00000000000E+00 -0.00000000000E+00 -0.57711444640E+02  0.57711444640E+02  0.00000000000E+00 0.  1.
          6    2    1    2  502    0  0.34295013075E+02  0.25464158730E+03  0.13652294662E+04  0.13998740279E+04  0.17256104019E+03 0.  0.
         24    2    3    3    0    0  0.32773555171E+02  0.13905562716E+03  0.10749300254E+04  0.10873707729E+04  0.80560939331E+02 0.  0.
         -6    2    1    2    0  501 -0.34295013075E+02 -0.25464158730E+03  0.55052862875E+03  0.63130695637E+03  0.17160482564E+03 0.  0.
        -24    2    5    5    0    0 -0.61213412080E+02 -0.96277006238E+02  0.17844745946E+03  0.22600407299E+03  0.78854305332E+02 0.  0.
          5    1    3    3  502    0  0.15214579041E+01  0.11558596014E+03  0.29029944084E+03  0.31250325497E+03  0.47000000000E+01 0. -1.
        -13    1    4    4    0    0  0.50743828338E+02  0.97854059335E+02  0.57836058096E+03  0.58877102056E+03  0.00000000000E+00 0.  1.
         14    1    4    4    0    0 -0.17970273167E+02  0.41201567824E+02  0.49656944445E+03  0.49859975237E+03  0.00000000000E+00 0. -1.
         -5    1    5    5    0  501  0.26918399005E+02 -0.15836458106E+03  0.37208116929E+03  0.40530288338E+03  0.47000000000E+01 0.  1.
         11    1    6    6    0    0 -0.10553856295E+02 -0.69722404245E+02  0.14096615747E+03  0.15761997046E+03  0.00000000000E+00 0. -1.
        -12    1    6    6    0    0 -0.50659555786E+02 -0.26554601993E+02  0.37481301998E+02  0.68384102530E+02  0.00000000000E+00 0.  1.
</event>
<event>
12    1  0.1345781E-002  0.1746636E+03  0.7818608E-02  0.1173070E+00
         -2   -1    0    0    0  501 -0.00000000000E+00  0.00000000000E+00  0.77010459295E+02  0.77010459295E+02  0.00000000000E+00 0.  1.
          2   -1    0    0  502    0  0.00000000000E+00 -0.00000000000E+00 -0.44712816447E+03  0.44712816447E+03  0.00000000000E+00 0. -1.
          6    2    1    2  502    0 -0.10879606648E+02  0.36136740402E+02 -0.27471821182E+03  0.32622393221E+03  0.17183634130E+03 0.  0.
         24    2    3    3    0    0 -0.45306646559E+02  0.74197462279E+02 -0.22623361962E+03  0.25546599761E+03  0.80766760866E+02 0.  0.
         -6    2    1    2    0  501  0.10879606648E+02 -0.36136740402E+02 -0.95399493349E+02  0.19791469155E+03  0.16924813722E+03 0.  0.
        -24    2    5    5    0    0 -0.54623632517E+02 -0.29793376605E+02 -0.31919159217E+02  0.10635730285E+03  0.80135239593E+02 0.  0.
          5    1    3    3  502    0  0.34427039911E+02 -0.38060721877E+02 -0.48484592207E+02  0.70757934596E+02  0.47000000000E+01 0. -1.
        -11    1    4    4    0    0  0.15195860007E+02  0.19519545074E+02 -0.14741945789E+02  0.28796731878E+02  0.00000000000E+00 0.  1.
         12    1    4    4    0    0 -0.60502506566E+02  0.54677917205E+02 -0.21149167383E+03  0.22666926573E+03  0.00000000000E+00 0. -1.
         -5    1    5    5    0  501  0.65503239166E+02 -0.63433637974E+01 -0.63480334132E+02  0.91557388708E+02  0.47000000000E+01 0.  1.
         13    1    6    6    0    0  0.62311378408E+01  0.18399971224E+01 -0.37016748390E+02  0.37582606743E+02  0.00000000000E+00 0. -1.
        -14    1    6    6    0    0 -0.60854770358E+02 -0.31633373727E+02  0.50975891732E+01  0.68774696103E+02  0.00000000000E+00 0.  1.
</event>
<event>
12    1  0.1345781E-002  0.2266680E+03  0.7818608E-02  0.1129007E+00
          2   -1    0    0  502    0  0.00000000000E+00  0.00000000000E+00  0.13248309267E+03  0.13248309267E+03  0.00000000000E+00 0.  1.
         -2   -1    0    0    0  501 -0.00000000000E+00 -0.00000000000E+00 -0.38806726965E+03  0.38806726965E+03  0.00000000000E+00 0. -1.
          6    2    1    2  502    0  0.14687249253E+03  0.49049767534E+01 -0.13410796866E+03  0.26285060541E+03  0.17178447441E+03 0.  0.
         24    2    3    3    0    0  0.48534850428E+02  0.58850393043E+02 -0.49825155478E+02  0.12247225099E+03  0.81840733606E+02 0.  0.
         -6    2    1    2    0  501 -0.14687249253E+03 -0.49049767534E+01 -0.12147620832E+03  0.25769975691E+03  0.17336985801E+03 0.  0.
        -24    2    5    5    0    0 -0.11083360737E+03  0.58082139300E+02 -0.93263029565E+02  0.17969814483E+03  0.89083147358E+02 0.  0.
          5    1    3    3  502    0  0.98337642100E+02 -0.53945416289E+02 -0.84282813181E+02  0.14037835442E+03  0.47000000000E+01 0. -1.
        -11    1    4    4    0    0  0.15595077997E+02 -0.75223401473E+01  0.15839128296E+02  0.23466359841E+02  0.00000000000E+00 0.  1.
         12    1    4    4    0    0  0.32939772431E+02  0.66372733190E+02 -0.65664283774E+02  0.99005891150E+02  0.00000000000E+00 0. -1.
         -5    1    5    5    0  501 -0.36038885156E+02 -0.62987116054E+02 -0.28213178753E+02  0.78001612082E+02  0.47000000000E+01 0.  1.
         11    1    6    6    0    0 -0.13083227199E+02  0.62056417221E-01 -0.59782581364E+02  0.61197481316E+02  0.00000000000E+00 0. -1.
        -12    1    6    6    0    0 -0.97750380172E+02  0.58020082883E+02 -0.33480448202E+02  0.11850066351E+03  0.00000000000E+00 0.  1.
</event>
<event>
12    1  0.1345781E-002  0.2079757E+03  0.7818608E-02  0.1143179E+00
         -2   -1    0    0    0  501 -0.00000000000E+00  0.00000000000E+00  0.12827884986E+03  0.12827884986E+03  0.00000000000E+00 0.  1.
          2   -1    0    0  502    0  0.00000000000E+00 -0.00000000000E+00 -0.40086673669E+03  0.40086673669E+03  0.00000000000E+00 0. -1.
          6    2    1    2  502    0 -0.78324441625E+02 -0.85011035540E+02 -0.24128106025E+03  0.31800348660E+03  0.17189552972E+03 0.  0.
         24    2    3    3    0    0 -0.61284655663E+02 -0.11003486469E+03 -0.11605884073E+03  0.18908785298E+03  0.80131648960E+02 0.  0.
         -6    2    1    2    0  501  0.78324441625E+02  0.85011035540E+02 -0.31306826578E+02  0.21114209996E+03  0.17389443540E+03 0.  0.
        -24    2    5    5    0    0  0.11132041963E+03  0.30706197459E+02 -0.42477815853E+02  0.14645337602E+03  0.79429969891E+02 0.  0.
          5    1    3    3  502    0 -0.17039785961E+02  0.25023829153E+02 -0.12522221952E+03  0.12891563362E+03  0.47000000000E+01 0. -1.
        -11    1    4    4    0    0 -0.24237812130E+01 -0.79688158555E+01  0.12298284144E+02  0.14853435104E+02  0.00000000000E+00 0.  1.
         12    1    4    4    0    0 -0.58860874450E+02 -0.10206604884E+03 -0.12835712488E+03  0.17423441788E+03  0.00000000000E+00 0. -1.
         -5    1    5    5    0  501 -0.32995978008E+02  0.54304838081E+02  0.11170989275E+02  0.64688723941E+02  0.47000000000E+01 0.  1.
         13    1    6    6    0    0  0.75073957878E+02  0.35693864107E+02 -0.63182329404E+02  0.10441339873E+03  0.00000000000E+00 0. -1.
        -14    1    6    6    0    0  0.36246461755E+02 -0.49876666483E+01  0.20704513551E+02  0.42039977281E+02  0.00000000000E+00 0.  1.
</event>
<event>
12    1  0.1345781E-002  0.2189807E+03  0.7818608E-02  0.1134645E+00
         -1   -1    0    0    0  501 -0.00000000000E+00  0.00000000000E+00  0.22513065316E+03  0.22513065316E+03  0.00000000000E+00 0.  1.
          1   -1    0    0  502    0  0.00000000000E+00 -0.00000000000E+00 -0.22675074843E+03  0.22675074843E+03  0.00000000000E+00 0. -1.
          6    2    1    2  502    0 -0.13481290956E+03  0.16290129671E+02 -0.56451979060E+02  0.22612051784E+03  0.17176662579E+03 0.  0.
         24    2    3    3    0    0 -0.15099286186E+03  0.33630827046E+02 -0.80903606836E+02  0.19173356184E+03  0.79287377794E+02 0.  0.
         -6    2    1    2    0  501  0.13481290956E+03 -0.16290129671E+02  0.54831883794E+02  0.22576088376E+03  0.17181836993E+03 0.  0.
        -24    2    5    5    0    0  0.53689649066E+02 -0.38165648442E+02 -0.28657701610E+02  0.10721923459E+03  0.79595887251E+02 0.  0.
          5    1    3    3  502    0  0.16179952294E+02 -0.17340697376E+02  0.24451627776E+02  0.34386955995E+02  0.47000000000E+01 0. -1.
        -13    1    4    4    0    0 -0.26436057509E+01  0.25094828699E+02 -0.11634938225E+02  0.27786882990E+02  0.00000000000E+00 0.  1.
         14    1    4    4    0    0 -0.14834925611E+03  0.85359983476E+01 -0.69268668611E+02  0.16394667885E+03  0.00000000000E+00 0. -1.
         -5    1    5    5    0  501  0.81123260498E+02  0.21875518771E+02  0.83489585403E+02  0.11854164916E+03  0.47000000000E+01 0.  1.
         11    1    6    6    0    0 -0.12308054602E+02 -0.22455507391E+02  0.11836980092E+02  0.28210851067E+02  0.00000000000E+00 0. -1.
        -12    1    6    6    0    0  0.65997703667E+02 -0.15710141051E+02 -0.40494681701E+02  0.79008383525E+02  0.00000000000E+00 0.  1.
</event>
<event>
12    1  0.1345781E-002  0.1982627E+03  0.7818608E-02  0.1151213E+00
          1   -1    0    0  502    0  0.00000000000E+00  0.00000000000E+00  0.32261679172E+04  0.32261679172E+04  0.00000000000E+00 0.  1.
         -1   -1    0    0    0  501 -0.00000000000E+00 -0.00000000000E+00 -0.19625878225E+02  0.19625878225E+02  0.00000000000E+00 0. -1.
          6    2    1    2  502    0 -0.98351205824E+02 -0.24615088734E+02  0.61164974843E+03  0.64345363929E+03  0.17215780226E+03 0.  0.
         24    2    3    3    0    0 -0.76332120921E+02 -0.17970060915E+02  0.60960190971E+03  0.61988925646E+03  0.80614429104E+02 0.  0.
         -6    2    1    2    0  501  0.98351205824E+02  0.24615088734E+02  0.25948922906E+04  0.26023401562E+04  0.16861027972E+03 0.  0.
        -24    2    5    5    0    0  0.62615920407E+02  0.27329007309E+02  0.24724566385E+04  0.24746806290E+04  0.79591193933E+02 0.  0.
          5    1    3    3  502    0 -0.22019084902E+02 -0.66450278191E+01  0.20478387201E+01  0.23564382828E+02  0.47000000000E+01 0. -1.
        -11    1    4    4    0    0 -0.16711933307E+02  0.30663558255E+02  0.22124140222E+03  0.22398058080E+03  0.00000000000E+00 0.  1.
         12    1    4    4    0    0 -0.59620187614E+02 -0.48633619169E+02  0.38836050749E+03  0.39590867566E+03  0.00000000000E+00 0. -1.
         -5    1    5    5    0  501  0.35735285416E+02 -0.27139185755E+01  0.12243565212E+03  0.12765952721E+03  0.47000000000E+01 0.  1.
         11    1    6    6    0    0  0.44793369181E+02  0.51539945285E+02  0.12579648888E+04  0.12598168412E+04  0.00000000000E+00 0. -1.
        -12    1    6    6    0    0  0.17822551226E+02 -0.24210937976E+02  0.12144917497E+04  0.12148637878E+04  0.00000000000E+00 0.  1.
</event>
<event>
12    1  0.1345781E-002  0.2014046E+03  0.7818608E-02  0.1148559E+00
          2   -1    0    0  502    0  0.00000000000E+00  0.00000000000E+00  0.21555258881E+03  0.21555258881E+03  0.00000000000E+00 0. -1.
         -2   -1    0    0    0  501 -0.00000000000E+00 -0.00000000000E+00 -0.23291993859E+03  0.23291993859E+03  0.00000000000E+00 0.  1.
          6    2    1    2  502    0  0.81979998891E+01 -0.99334065011E+02  0.89512765804E+02  0.22192184975E+03  0.17692458416E+03 0.  0.
         24    2    3    3    0    0 -0.26813276672E+02 -0.23574153233E+01  0.83275147322E+02  0.11852331033E+03  0.79928190998E+02 0.  0.
         -6    2    1    2    0  501 -0.81979998891E+01  0.99334065011E+02 -0.10688011558E+03  0.22655067765E+03  0.17311090885E+03 0.  0.
        -24    2    5    5    0    0 -0.59290679365E+02  0.10637978597E+03 -0.71184404505E+02  0.16365093306E+03  0.82960020040E+02 0.  0.
          5    1    3    3  502    0  0.35011276561E+02 -0.96976649688E+02  0.62376184817E+01  0.10339853943E+03  0.47000000000E+01 0. -1.
        -13    1    4    4    0    0 -0.13524780059E+02  0.34815358285E+02  0.16239904954E+02  0.40727918693E+02  0.00000000000E+00 0.  1.
         14    1    4    4    0    0 -0.13288496613E+02 -0.37172773608E+02  0.67035242368E+02  0.77795391633E+02  0.00000000000E+00 0. -1.
         -5    1    5    5    0  501  0.51092679476E+02 -0.70457209589E+01 -0.35695711071E+02  0.62899744584E+02  0.47000000000E+01 0.  1.
         11    1    6    6    0    0  0.18730996715E+02  0.11251981739E+02 -0.22423583109E+02  0.31309334238E+02  0.00000000000E+00 0. -1.
        -12    1    6    6    0    0 -0.78021676080E+02  0.95127804231E+02 -0.48760821396E+02  0.13234159882E+03  0.00000000000E+00 0.  1.
</event>
<event>
12    1  0.1345781E-002  0.2343478E+03  0.7818608E-02  0.1123617E+00
          2   -1    0    0  502    0  0.00000000000E+00  0.00000000000E+00  0.10280533537E+04  0.10280533537E+04  0.00000000000E+00 0.  1.
         -2   -1    0    0    0  501 -0.00000000000E+00 -0.00000000000E+00 -0.10596560094E+03  0.10596560094E+03  0.00000000000E+00 0. -1.
          6    2    1    2  502    0 -0.15419745922E+03  0.34408341099E+02  0.86011484443E+03  0.89141401071E+03  0.17280220633E+03 0.  0.
         24    2    3    3    0    0 -0.96556353913E+02 -0.28806906692E+02  0.67711460471E+03  0.68935005472E+03  0.81032972732E+02 0.  0.
         -6    2    1    2    0  501  0.15419745922E+03 -0.34408341099E+02  0.61972908292E+02  0.24260494388E+03  0.17336587630E+03 0.  0.
        -24    2    5    5    0    0  0.79776340238E+02 -0.61710732255E+01 -0.34463856221E+02  0.11747307026E+03  0.78802399983E+02 0.  0.
          5    1    3    3  502    0 -0.57641105310E+02  0.63215247791E+02  0.18300023971E+03  0.20206395599E+03  0.47000000000E+01 0. -1.
        -11    1    4    4    0    0 -0.90351864061E+01  0.24544065703E+02  0.11183102630E+03  0.11484870133E+03  0.00000000000E+00 0.  1.
         12    1    4    4    0    0 -0.87521167507E+02 -0.53350972395E+02  0.56528357842E+03  0.57450135339E+03  0.00000000000E+00 0. -1.
         -5    1    5    5    0  501  0.74421118985E+02 -0.28237267873E+02  0.96436764513E+02  0.12513187363E+03  0.47000000000E+01 0.  1.
         11    1    6    6    0    0  0.70237201332E+01 -0.23165437257E+02 -0.35245765149E+02  0.42757854117E+02  0.00000000000E+00 0. -1.
        -12    1    6    6    0    0  0.72752620105E+02  0.16994364031E+02  0.78190892814E+00  0.74715216138E+02  0.00000000000E+00 0.  1.
</event>
<event>
12    1  0.1345781E-002  0.2242341E+03  0.7818608E-02  0.1130765E+00
         -1   -1    0    0    0  501 -0.00000000000E+00  0.00000000000E+00  0.32466261431E+03  0.32466261431E+03  0.00000000000E+00 0.  1.
          1   -1    0    0  502    0  0.00000000000E+00 -0.00000000000E+00 -0.15899529616E+03  0.15899529616E+03  0.00000000000E+00 0. -1.
          6    2    1    2  502    0 -0.10683728611E+03 -0.90644767336E+02  0.12208781608E+03  0.25609594003E+03  0.17620731006E+03 0.  0.
         24    2    3    3    0    0  0.58542068414E+00  0.51283114801E+01  0.36172783094E+02  0.88418859152E+02  0.80515725924E+02 0.  0.
         -6    2    1    2    0  501  0.10683728611E+03  0.90644767336E+02  0.43579502075E+02  0.22756197044E+03  0.17393848866E+03 0.  0.
        -24    2    5    5    0    0  0.17430926948E+02  0.10100676734E+03  0.64853565570E+01  0.13009949697E+03  0.79859971199E+02 0.  0.
          5    1    3    3  502    0 -0.10742270679E+03 -0.95773078816E+02  0.85915032983E+02  0.16767708088E+03  0.47000000000E+01 0. -1.
        -13    1    4    4    0    0 -0.19077125478E+02 -0.10619740557E+02  0.53540031977E+02  0.57820849441E+02  0.00000000000E+00 0.  1.
         14    1    4    4    0    0  0.19662546162E+02  0.15748052037E+02 -0.17367248883E+02  0.30598009711E+02  0.00000000000E+00 0. -1.
         -5    1    5    5    0  501  0.89406359162E+02 -0.10361999999E+02  0.37094145518E+02  0.97462473467E+02  0.47000000000E+01 0.  1.
         11    1    6    6    0    0  0.34031006909E+01  0.77595416001E+02 -0.31087490916E+02  0.83660395469E+02  0.00000000000E+00 0. -1.
        -12    1    6    6    0    0  0.14027826257E+02  0.23411351335E+02  0.37572847473E+02  0.46439101499E+02  0.00000000000E+00 0.  1.
</event>
<event>
12    1  0.1345781E-002  0.1773878E+03  0.7818608E-02  0.1170355E+00
          2   -1    0    0  502    0  0.00000000000E+00  0.00000000000E+00  0.30529679627E+04  0.30529679627E+04  0.00000000000E+00 0.  1.
         -2   -1    0    0    0  501 -0.00000000000E+00 -0.00000000000E+00 -0.10310779906E+02  0.10310779906E+02  0.00000000000E+00 0. -1.
          6    2    1    2  502    0  0.32733343089E+02 -0.31552319959E+02  0.15448611733E+04  0.15549347334E+04  0.17075994725E+03 0.  0.
         24    2    3    3    0    0  0.29241854550E+02  0.37027627605E+02  0.11751963846E+04  0.11789167209E+04  0.80820548983E+02 0.  0.
         -6    2    1    2    0  501 -0.32733343089E+02  0.31552319959E+02  0.14977960094E+04  0.15083440092E+04  0.17216777728E+03 0.  0.
        -24    2    5    5    0    0 -0.42682639462E+02  0.18729076664E+02  0.40181196923E+03  0.41222972206E+03  0.79422283452E+02 0.  0.
          5    1    3    3  502    0  0.34914885388E+01 -0.68579947564E+02  0.36966478874E+03  0.37601801251E+03  0.47000000000E+01 0. -1.
        -11    1    4    4    0    0 -0.15485264653E+02  0.41184909601E+02  0.76588372421E+03  0.76714657609E+03  0.00000000000E+00 0.  1.
         12    1    4    4    0    0  0.44727119203E+02 -0.41572819961E+01  0.40931266039E+03  0.41177014480E+03  0.00000000000E+00 0. -1.
         -5    1    5    5    0  501  0.99492963725E+01  0.12823243296E+02  0.10959840402E+04  0.10961142871E+04  0.47000000000E+01 0.  1.
         11    1    6    6    0    0 -0.32541324822E+02 -0.17849318052E+02  0.31877292893E+03  0.32092634076E+03  0.00000000000E+00 0. -1.
        -12    1    6    6    0    0 -0.10141314640E+02  0.36578394715E+02  0.83039040307E+02  0.91303381304E+02  0.00000000000E+00 0.  1.
</event>
<event>
12    1  0.1345781E-002  0.1926744E+03  0.7818608E-02  0.1156071E+00
         -2   -1    0    0    0  501 -0.00000000000E+00  0.00000000000E+00  0.19946602887E+02  0.19946602887E+02  0.00000000000E+00 0. -1.
          2   -1    0    0  502    0  0.00000000000E+00 -0.00000000000E+00 -0.19187584131E+04  0.19187584131E+04  0.00000000000E+00 0.  1.
          6    2    1    2  502    0  0.54828912038E+02 -0.62673452940E+02 -0.11255618017E+04  0.11422334695E+04  0.17570929955E+03 0.  0.
         24    2    3    3    0    0  0.45655219217E+02  0.32763132980E+02 -0.66300791418E+03  0.66982423219E+03  0.76988218847E+02 0.  0.
         -6    2    1    2    0  501 -0.54828912038E+02  0.62673452940E+02 -0.77325000850E+03  0.79647154654E+03  0.17180563875E+03 0.  0.
        -24    2    5    5    0    0 -0.49664315516E+02 -0.24105787054E+02 -0.30517655068E+03  0.32037054731E+03  0.80355007905E+02 0.  0.
          5    1    3    3  502    0  0.91736928213E+01 -0.95436585920E+02 -0.46255388755E+03  0.47240923727E+03  0.47000000000E+01 0. -1.
        -11    1    4    4    0    0 -0.19160399461E+02 -0.20472492704E+01 -0.85240288176E+02  0.87391182995E+02  0.00000000000E+00 0.  1.
         12    1    4    4    0    0  0.64815618678E+02  0.34810382250E+02 -0.57776762600E+03  0.58243304919E+03  0.00000000000E+00 0. -1.
         -5    1    5    5    0  501 -0.51645965225E+01  0.86779239994E+02 -0.46807345782E+03  0.47610099923E+03  0.47000000000E+01 0.  1.
         13    1    6    6    0    0  0.16713244638E+02 -0.26135613629E+02 -0.91996743815E+02  0.97086578468E+02  0.00000000000E+00 0. -1.
        -14    1    6    6    0    0 -0.66377560154E+02  0.20298265758E+01 -0.21317980687E+03  0.22328396885E+03  0.00000000000E+00 0.  1.
</event>
<event>
12    1  0.1345781E-002  0.2089753E+03  0.7818608E-02  0.1142380E+00
          2   -1    0    0  502    0  0.00000000000E+00  0.00000000000E+00  0.77990799782E+03  0.77990799782E+03  0.00000000000E+00 0. -1.
         -2   -1    0    0    0  501 -0.00000000000E+00 -0.00000000000E+00 -0.71205496279E+02  0.71205496279E+02  0.00000000000E+00 0.  1.
          6    2    1    2  502    0  0.11790491214E+03 -0.30134830703E+01  0.55130592846E+03  0.58965472238E+03  0.17275362654E+03 0.  0.
         24    2    3    3    0    0 -0.38309654088E+01  0.23677608600E+02  0.22645582376E+03  0.24168673710E+03  0.80962542751E+02 0.  0.
         -6    2    1    2    0  501 -0.11790491214E+03  0.30134830703E+01  0.15739657308E+03  0.26145877172E+03  0.17226827538E+03 0.  0.
        -24    2    5    5    0    0 -0.73560317252E+02  0.62649530484E+02  0.57741329468E+02  0.13705556104E+03  0.78192593892E+02 0.  0.
          5    1    3    3  502    0  0.12173587755E+03 -0.26691091671E+02  0.32485010469E+03  0.34796798528E+03  0.47000000000E+01 0. -1.
        -11    1    4    4    0    0 -0.20596471990E+02 -0.24002074259E+02  0.61414880033E+02  0.69080400380E+02  0.00000000000E+00 0.  1.
         12    1    4    4    0    0  0.16765506581E+02  0.47679682860E+02  0.16504094373E+03  0.17260633672E+03  0.00000000000E+00 0. -1.
         -5    1    5    5    0  501 -0.44344594893E+02 -0.59636047414E+02  0.99655243616E+02  0.12440321068E+03  0.47000000000E+01 0.  1.
         11    1    6    6    0    0 -0.36745735707E+02  0.27816485816E+02 -0.14940341035E+02  0.48448114164E+02  0.00000000000E+00 0. -1.
        -12    1    6    6    0    0 -0.36814581545E+02  0.34833044668E+02  0.72681670502E+02  0.88607446878E+02  0.00000000000E+00 0.  1.
</event>
<event>
12    1  0.1345781E-002  0.1737427E+03  0.7818608E-02  0.1174000E+00
         -1   -1    0    0    0  501 -0.00000000000E+00  0.00000000000E+00  0.40619044142E+02  0.40619044142E+02  0.00000000000E+00 0.  1.
          1   -1    0    0  502    0  0.00000000000E+00 -0.00000000000E+00 -0.75828229715E+03  0.75828229715E+03  0.00000000000E+00 0. -1.
          6    2    1    2  502    0 -0.22089844147E+01 -0.66674685888E+01 -0.30223321377E+03  0.34856617880E+03  0.17350541992E+03 0.  0.
         24    2    3    3    0    0  0.94699638699E+01  0.52846112485E+02 -0.10765790957E+03  0.14470371739E+03  0.80414852562E+02 0.  0.
         -6    2    1    2    0  501  0.22089844147E+01  0.66674685888E+01 -0.41543003924E+03  0.45033516250E+03  0.17369601703E+03 0.  0.
        -24    2    5    5    0    0 -0.16617640409E+02  0.68950708764E+02 -0.23038370670E+03  0.25412639869E+03  0.80456373194E+02 0.  0.
          5    1    3    3  502    0 -0.11678948285E+02 -0.59513581074E+02 -0.19457530421E+03  0.20386246141E+03  0.47000000000E+01 0. -1.
        -11    1    4    4    0    0  0.43937548330E+02  0.35439740506E+02 -0.50598767051E+02  0.75807114359E+02  0.00000000000E+00 0.  1.
         12    1    4    4    0    0 -0.34467584460E+02  0.17406371979E+02 -0.57059142517E+02  0.68896603027E+02  0.00000000000E+00 0. -1.
         -5    1    5    5    0  501  0.18826624824E+02 -0.62283240175E+02 -0.18504633254E+03  0.19620876380E+03  0.47000000000E+01 0.  1.
         11    1    6    6    0    0  0.12441439874E+02  0.38759190543E+02 -0.33170587086E+02  0.52510495383E+02  0.00000000000E+00 0. -1.
        -12    1    6    6    0    0 -0.29059080283E+02  0.30191518221E+02 -0.19721311962E+03  0.20161590331E+03  0.00000000000E+00 0.  1.
</event>
<event>
12    1  0.1345781E-002  0.2919101E+03  0.7818608E-02  0.1089356E+00
         -1   -1    0    0    0  501 -0.00000000000E+00  0.00000000000E+00  0.19341155919E+03  0.19341155919E+03  0.00000000000E+00 0. -1.
          1   -1    0    0  502    0  0.00000000000E+00 -0.00000000000E+00 -0.69089246924E+03  0.69089246924E+03  0.00000000000E+00 0.  1.
          6    2    1    2  502    0 -0.23360001019E+03  0.31073348505E+02  0.17271396996E+02  0.29266180171E+03  0.17267921496E+03 0.  0.
         24    2    3    3    0    0 -0.24128500829E+03  0.45023442093E+02 -0.12583277402E+02  0.25849960198E+03  0.80113293472E+02 0.  0.
         -6    2    1    2    0  501  0.23360001019E+03 -0.31073348505E+02 -0.51475230705E+03  0.59164222671E+03  0.17186060941E+03 0.  0.
        -24    2    5    5    0    0  0.49048220727E+02  0.27424175248E+02 -0.16988543686E+03  0.19612159332E+03  0.80279538909E+02 0.  0.
          5    1    3    3  502    0  0.76849981023E+01 -0.13950093589E+02  0.29854674398E+02  0.34162199730E+02  0.47000000000E+01 0. -1.
        -13    1    4    4    0    0  0.61785171333E+01 -0.15445839030E+01  0.15554037812E+00  0.63705577628E+01  0.00000000000E+00 0.  1.
         14    1    4    4    0    0 -0.24746352542E+03  0.46568025996E+02 -0.12738817780E+02  0.25212904422E+03  0.00000000000E+00 0. -1.
         -5    1    5    5    0  501  0.18455178946E+03 -0.58497523753E+02 -0.34486687020E+03  0.39552063339E+03  0.47000000000E+01 0.  1.
         13    1    6    6    0    0  0.15119787002E+02  0.31550565155E+02 -0.15973407284E+02  0.38460315402E+02  0.00000000000E+00 0. -1.
        -14    1    6    6    0    0  0.33928433725E+02 -0.41263899074E+01 -0.15391202957E+03  0.15766127792E+03  0.00000000000E+00 0.  1.
</event>
<event>
12    1  0.1345781E-002  0.2544430E+03  0.7818608E-02  0.1110529E+00
         -2   -1    0    0    0  501 -0.00000000000E+00  0.00000000000E+00  0.60937723601E+03  0.60937723601E+03  0.00000000000E+00 0.  1.
          2   -1    0    0  502    0  0.00000000000E+00 -0.00000000000E+00 -0.10754581415E+03  0.10754581415E+03  0.00000000000E+00 0. -1.
          6    2    1    2  502    0  0.69130180907E+02 -0.17383315759E+03  0.29118168615E+03  0.38723630263E+03  0.17369004330E+03 0.  0.
         24    2    3    3    0    0  0.46499754227E+02 -0.32793982700E+01  0.87112014588E+02  0.12027705129E+03  0.68593617667E+02 0.  0.
         -6    2    1    2    0  501 -0.69130180907E+02  0.17383315759E+03  0.21064973571E+03  0.32968674752E+03  0.17123986612E+03 0.  0.
        -24    2    5    5    0    0 -0.31188503380E+02  0.13667638454E+03  0.66089708420E+02  0.17560920806E+03  0.82568683900E+02 0.  0.
          5    1    3    3  502    0  0.22630426681E+02 -0.17055375932E+03  0.20406967156E+03  0.26695925135E+03  0.47000000000E+01 0. -1.
        -11    1    4    4    0    0 -0.73421435820E+01  0.22082490328E+02  0.21336785967E+02  0.31572169499E+02  0.00000000000E+00 0.  1.
         12    1    4    4    0    0  0.53841897809E+02 -0.25361888598E+02  0.65775228622E+02  0.88704881789E+02  0.00000000000E+00 0. -1.
         -5    1    5    5    0  501 -0.37941677527E+02  0.37156773041E+02  0.14456002729E+03  0.15407753946E+03  0.47000000000E+01 0.  1.
         13    1    6    6    0    0 -0.12714862882E+01  0.10214682748E+03  0.77844290344E+02  0.12843412545E+03  0.00000000000E+00 0. -1.
        -14    1    6    6    0    0 -0.29917017092E+02  0.34529557065E+02 -0.11754581924E+02  0.47175082607E+02  0.00000000000E+00 0.  1.
</event>
<event>
12    1  0.1345781E-002  0.2127081E+03  0.7818608E-02  0.1139439E+00
          2   -1    0    0  502    0  0.00000000000E+00  0.00000000000E+00  0.27501526314E+03  0.27501526314E+03  0.00000000000E+00 0.  1.
         -2   -1    0    0    0  501 -0.00000000000E+00 -0.00000000000E+00 -0.23941725729E+03  0.23941725729E+03  0.00000000000E+00 0. -1.
          6    2    1    2  502    0  0.12133943832E+02 -0.12221432069E+03 -0.12604296165E+03  0.24761466213E+03  0.17419133143E+03 0.  0.
         24    2    3    3    0    0  0.58246487277E+02 -0.76602014757E+02 -0.25562784432E+02  0.12792671316E+03  0.80319773696E+02 0.  0.
         -6    2    1    2    0  501 -0.12133943832E+02  0.12221432069E+03  0.16164096751E+03  0.26681785830E+03  0.17314847489E+03 0.  0.
        -24    2    5    5    0    0 -0.33814618890E+02  0.26539027868E+02  0.17076086667E+02  0.92046842108E+02  0.79581907211E+02 0.  0.
          5    1    3    3  502    0 -0.46112543445E+02 -0.45612305930E+02 -0.10048017722E+03  0.11968794898E+03  0.47000000000E+01 0. -1.
        -11    1    4    4    0    0 -0.62301794862E+01 -0.54160645603E+02  0.13719331692E+01  0.54535060917E+02  0.00000000000E+00 0.  1.
         12    1    4    4    0    0  0.64476666763E+02 -0.22441369153E+02 -0.26934717601E+02  0.73391652241E+02  0.00000000000E+00 0. -1.
         -5    1    5    5    0  501  0.21680675058E+02  0.95675292819E+02  0.14456488084E+03  0.17477101619E+03  0.47000000000E+01 0.  1.
         13    1    6    6    0    0  0.11119820677E+02 -0.42773121347E+01 -0.21984963689E+02  0.25005688141E+02  0.00000000000E+00 0. -1.
        -14    1    6    6    0    0 -0.44934439567E+02  0.30816340003E+02  0.39061050356E+02  0.67041153967E+02  0.00000000000E+00 0.  1.
</event>
<event>
12    1  0.1345781E-002  0.2191721E+03  0.7818608E-02  0.1134502E+00
         -2   -1    0    0    0  501 -0.00000000000E+00  0.00000000000E+00  0.59627626312E+02  0.59627626312E+02  0.00000000000E+00 0.  1.
          2   -1    0    0  502    0  0.00000000000E+00 -0.00000000000E+00 -0.86902107766E+03  0.86902107766E+03  0.00000000000E+00 0. -1.
          6    2    1    2  502    0 -0.13182400242E+03  0.33083805281E+02 -0.27852553242E+03  0.35415051976E+03  0.17138848459E+03 0.  0.
         24    2    3    3    0    0 -0.72360259474E+02  0.31156595516E+02 -0.59178604088E+02  0.12682956641E+03  0.79855439004E+02 0.  0.
         -6    2    1    2    0  501  0.13182400242E+03 -0.33083805281E+02 -0.53086791893E+03  0.57449818421E+03  0.17249727688E+03 0.  0.
        -24    2    5    5    0    0  0.90316979310E+02  0.39760678259E+02 -0.39346403842E+03  0.41346691977E+03  0.80017972518E+02 0.  0.
          5    1    3    3  502    0 -0.59463742948E+02  0.19272097652E+01 -0.21934692834E+03  0.22732095335E+03  0.47000000000E+01 0. -1.
        -11    1    4    4    0    0 -0.32406986799E+02  0.53804110122E+02 -0.18497560592E+02  0.65477131941E+02  0.00000000000E+00 0.  1.
         12    1    4    4    0    0 -0.39953272675E+02 -0.22647514606E+02 -0.40681043496E+02  0.61352434469E+02  0.00000000000E+00 0. -1.
         -5    1    5    5    0  501  0.41507023111E+02 -0.72844483540E+02 -0.13740388050E+03  0.16103126444E+03  0.47000000000E+01 0.  1.
         11    1    6    6    0    0  0.43127305392E+02  0.12577877161E+02 -0.56758613558E+02  0.72385825113E+02  0.00000000000E+00 0. -1.
        -12    1    6    6    0    0  0.47189673918E+02  0.27182801098E+02 -0.33670542486E+03  0.34108109466E+03  0.00000000000E+00 0.  1.
</event>
<event>
12    1  0.1345781E-002  0.1861171E+03  0.7818608E-02  0.1162011E+00
          1   -1    0    0  502    0  0.00000000000E+00  0.00000000000E+00  0.12741922056E+04  0.12741922056E+04  0.00000000000E+00 0. -1.
         -1   -1    0    0    0  501 -0.00000000000E+00 -0.00000000000E+00 -0.34585721491E+02  0.34585721491E+02  0.00000000000E+00 0.  1.
          6    2    1    2  502    0  0.42943101150E+02  0.26474216155E+02  0.33802356073E+03  0.38965364852E+03  0.18714979065E+03 0.  0.
         24    2    3    3    0    0  0.99305457936E+02 -0.40326481848E+01  0.23969690746E+03  0.27219044246E+03  0.82189982937E+02 0.  0.
         -6    2    1    2    0  501 -0.42943101150E+02 -0.26474216155E+02  0.90158292341E+03  0.91912427860E+03  0.17144292831E+03 0.  0.
        -24    2    5    5    0    0 -0.87454608188E+02 -0.82571963854E+01  0.44705812997E+03  0.46203784047E+03  0.76821251427E+02 0.  0.
          5    1    3    3  502    0 -0.56362356785E+02  0.30506864340E+02  0.98326653270E+02  0.11746320606E+03  0.47000000000E+01 0. -1.
        -11    1    4    4    0    0  0.14369642104E+02 -0.31567110188E+02  0.10506370866E+03  0.11064064325E+03  0.00000000000E+00 0.  1.
         12    1    4    4    0    0  0.84935815832E+02  0.27534462003E+02  0.13463319880E+03  0.16154979922E+03  0.00000000000E+00 0. -1.
         -5    1    5    5    0  501  0.44511507037E+02 -0.18217019770E+02  0.45452479344E+03  0.45708643812E+03  0.47000000000E+01 0.  1.
         11    1    6    6    0    0 -0.69832564440E+01  0.55020743737E+01  0.22940863617E+03  0.22958083770E+03  0.00000000000E+00 0. -1.
        -12    1    6    6    0    0 -0.80471351744E+02 -0.13759270759E+02  0.21764949380E+03  0.23245700277E+03  0.00000000000E+00 0.  1.
</event>
<event>
12    1  0.1345781E-002  0.4369069E+03  0.7818608E-02  0.1031700E+00
         -2   -1    0    0    0  501 -0.00000000000E+00  0.00000000000E+00  0.35777709114E+03  0.35777709114E+03  0.00000000000E+00 0.  1.
          2   -1    0    0  502    0  0.00000000000E+00 -0.00000000000E+00 -0.53701137806E+03  0.53701137806E+03  0.00000000000E+00 0. -1.
          6    2    1    2  502    0  0.14371328510E+03  0.37611584099E+03 -0.53434607304E+02  0.43910332745E+03  0.16685275174E+03 0.  0.
         24    2    3    3    0    0  0.54781482089E+02  0.17656551216E+03  0.30943617853E+02  0.20485778490E+03  0.82660835254E+02 0.  0.
         -6    2    1    2    0  501 -0.14371328510E+03 -0.37611584099E+03 -0.12579967961E+03  0.45568514175E+03  0.17235647612E+03 0.  0.
        -24    2    5    5    0    0 -0.14249002770E+03 -0.20151116299E+03 -0.10503118961E+03  0.27978258317E+03  0.79602677404E+02 0.  0.
          5    1    3    3  502    0  0.88931803010E+02  0.19955032883E+03 -0.84378225157E+02  0.23424554255E+03  0.47000000000E+01 0. -1.
        -13    1    4    4    0    0  0.40592051734E+02  0.17592526387E+03  0.11681579594E+02  0.18092504645E+03  0.00000000000E+00 0.  1.
         14    1    4    4    0    0  0.14189430355E+02  0.64024828622E+00  0.19262038259E+02  0.23932738446E+02  0.00000000000E+00 0. -1.
         -5    1    5    5    0  501 -0.12232574032E+01 -0.17460467800E+03 -0.20768490001E+02  0.17590255858E+03  0.47000000000E+01 0.  1.
         13    1    6    6    0    0 -0.62714875145E+02 -0.89990129963E+02 -0.45354351611E+01  0.10978137013E+03  0.00000000000E+00 0. -1.
        -14    1    6    6    0    0 -0.79775152551E+02 -0.11152103303E+03 -0.10049575445E+03  0.17000121304E+03  0.00000000000E+00 0.  1.
</event>
<event>
12    1  0.1345781E-002  0.1778512E+03  0.7818608E-02  0.1169899E+00
          2   -1    0    0  502    0  0.00000000000E+00  0.00000000000E+00  0.32163437976E+04  0.32163437976E+04  0.00000000000E+00 0. -1.
         -2   -1    0    0    0  501 -0.00000000000E+00 -0.00000000000E+00 -0.11274895540E+02  0.11274895540E+02  0.00000000000E+00 0.  1.
          6    2    1    2  502    0  0.34192290303E+02 -0.25790916004E+02  0.21699324082E+04  0.21771124417E+04  0.17139907682E+03 0.  0.
         24    2    3    3    0    0  0.54834445142E+02  0.37920238829E+02  0.15868806093E+04  0.15902081053E+04  0.78275087208E+02 0.  0.
         -6    2    1    2    0  501 -0.34192290303E+02  0.25790916004E+02  0.10351364939E+04  0.10505062515E+04  0.17384343345E+03 0.  0.
        -24    2    5    5    0    0  0.18710685284E+02 -0.39262184769E+02  0.63808891263E+03  0.64467438663E+03  0.80969101860E+02 0.  0.
          5    1    3    3  502    0 -0.20642154839E+02 -0.63711154833E+02  0.58305179892E+03  0.58690433635E+03  0.47000000000E+01 0. -1.
        -13    1    4    4    0    0  0.33910919336E+02  0.52405443447E+02  0.65198385395E+03  0.65496505767E+03  0.00000000000E+00 0.  1.
         14    1    4    4    0    0  0.20923525805E+02 -0.14485204618E+02  0.93489675530E+03  0.93524304764E+03  0.00000000000E+00 0. -1.
         -5    1    5    5    0  501 -0.52902975587E+02  0.65053100773E+02  0.39704758130E+03  0.40583186489E+03  0.47000000000E+01 0.  1.
         11    1    6    6    0    0  0.72944329896E+01 -0.63751953802E+02  0.48388680247E+03  0.48812289228E+03  0.00000000000E+00 0. -1.
        -12    1    6    6    0    0  0.11416252295E+02  0.24489769033E+02  0.15420211017E+03  0.15655149435E+03  0.00000000000E+00 0.  1.
</event>
<event>
12    1  0.1345781E-002  0.1994956E+03  0.7818608E-02  0.1150165E+00
          2   -1    0    0  502    0  0.00000000000E+00  0.00000000000E+00  0.11624322948E+03  0.11624322948E+03  0.00000000000E+00 0. -1.
         -2   -1    0    0    0  501 -0.00000000000E+00 -0.00000000000E+00 -0.34252443822E+03  0.34252443822E+03  0.00000000000E+00 0.  1.
          6    2    1    2  502    0  0.80004188939E+01  0.10314897068E+03 -0.11844963313E+03  0.23304225526E+03  0.17197284754E+03 0.  0.
         24    2    3    3    0    0 -0.50138727155E+02  0.70331617173E+02 -0.11745522019E+03  0.16610782576E+03  0.79596813348E+02 0.  0.
         -6    2    1    2    0  501 -0.80004188939E+01 -0.10314897068E+03 -0.10783157561E+03  0.22572541244E+03  0.16917622844E+03 0.  0.
        -24    2    5    5    0    0  0.13997141641E+02 -0.43202739103E+02 -0.12869478625E+03  0.15838443749E+03  0.80379632926E+02 0.  0.
          5    1    3    3  502    0  0.58139146049E+02  0.32817353506E+02 -0.99441294261E+00  0.66934429492E+02  0.47000000000E+01 0. -1.
        -11    1    4    4    0    0  0.79599935951E+01  0.13055715316E+02 -0.70158060656E+02  0.71805060235E+02  0.00000000000E+00 0.  1.
         12    1    4    4    0    0 -0.58098720750E+02  0.57275901857E+02 -0.47297159536E+02  0.94302765529E+02  0.00000000000E+00 0. -1.
         -5    1    5    5    0  501 -0.21997560535E+02 -0.59946231576E+02  0.20863210641E+02  0.67340974955E+02  0.47000000000E+01 0.  1.
         13    1    6    6    0    0 -0.28459173314E+02  0.19869708237E+01 -0.27011917537E+02  0.39287609851E+02  0.00000000000E+00 0. -1.
        -14    1    6    6    0    0  0.42456314955E+02 -0.45189709926E+02 -0.10168286871E+03  0.11909682764E+03  0.00000000000E+00 0.  1.
</event>
<event>
12    1  0.1345781E-002  0.2055414E+03  0.7818608E-02  0.1145146E+00
          2   -1    0    0  502    0  0.00000000000E+00  0.00000000000E+00  0.22103998850E+04  0.22103998850E+04  0.00000000000E+00 0.  1.
         -2   -1    0    0    0  501 -0.00000000000E+00 -0.00000000000E+00 -0.20119854638E+02  0.20119854638E+02  0.00000000000E+00 0. -1.
          6    2    1    2  502    0  0.42000009535E+02  0.10551943250E+03  0.84536169723E+03  0.86997724475E+03  0.17124735265E+03 0.  0.
         24    2    3    3    0    0 -0.84075529079E+01 -0.24413514418E+01  0.44051528771E+03  0.44793558978E+03  0.80721290533E+02 0.  0.
         -6    2    1    2    0  501 -0.42000009535E+02 -0.10551943250E+03  0.13449183331E+04  0.13605424949E+04  0.17138321443E+03 0.  0.
        -24    2    5    5    0    0  0.15475748397E+02 -0.10325796631E+03  0.63531327355E+03  0.64859445778E+03  0.78422628807E+02 0.  0.
          5    1    3    3  502    0  0.50407562443E+02  0.10796078394E+03  0.40484640953E+03  0.42204165497E+03  0.47000000000E+01 0. -1.
        -11    1    4    4    0    0  0.24404031781E+02 -0.39744848121E+01  0.36177071064E+03  0.36261467203E+03  0.00000000000E+00 0.  1.
         12    1    4    4    0    0 -0.32811584689E+02  0.15331333703E+01  0.78744577064E+02  0.85320917744E+02  0.00000000000E+00 0. -1.
         -5    1    5    5    0  501 -0.57475757932E+02 -0.22614661827E+01  0.70960505958E+03  0.71194803712E+03  0.47000000000E+01 0.  1.
         13    1    6    6    0    0  0.31403061411E+02 -0.91844743118E+02  0.60331555058E+03  0.61107386024E+03  0.00000000000E+00 0. -1.
        -14    1    6    6    0    0 -0.15927313014E+02 -0.11413223195E+02  0.31997722977E+02  0.37520597533E+02  0.00000000000E+00 0.  1.
</event>
<event>
12    1  0.1345781E-002  0.1940503E+03  0.7818608E-02  0.1154858E+00
          2   -1    0    0  502    0  0.00000000000E+00  0.00000000000E+00  0.47331716894E+03  0.47331716894E+03  0.00000000000E+00 0.  1.
         -2   -1    0    0    0  501 -0.00000000000E+00 -0.00000000000E+00 -0.83337445387E+02  0.83337445387E+02  0.00000000000E+00 0. -1.
          6    2    1    2  502    0  0.89709562816E+02  0.13936209754E+02  0.13639379505E+03  0.23776919053E+03  0.17230466342E+03 0.  0.
         24    2    3    3    0    0  0.52410666103E+02 -0.57757284939E+02  0.84300978842E+02  0.14150436633E+03  0.82668305735E+02 0.  0.
         -6    2    1    2    0  501 -0.89709562816E+02 -0.13936209754E+02  0.25358592850E+03  0.31888542379E+03  0.17070461848E+03 0.  0.
        -24    2    5    5    0    0 -0.96047755438E+02  0.32795741103E+02  0.11714207014E+03  0.17444490178E+03  0.80050154280E+02 0.  0.
          5    1    3    3  502    0  0.37298896713E+02  0.71693494693E+02  0.52092816213E+02  0.96264824200E+02  0.47000000000E+01 0. -1.
        -11    1    4    4    0    0  0.58422228434E+02 -0.52175752990E+02  0.98048799597E+02  0.12549515161E+03  0.00000000000E+00 0.  1.
         12    1    4    4    0    0 -0.60115623302E+01 -0.55815319488E+01 -0.13747820756E+02  0.16009214724E+02  0.00000000000E+00 0. -1.
         -5    1    5    5    0  501  0.63381926213E+01 -0.46731950857E+02  0.13644385836E+03  0.14444052201E+03  0.47000000000E+01 0.  1.
         11    1    6    6    0    0 -0.69575958706E+02 -0.91627549268E+01  0.99566683937E+02  0.12181253900E+03  0.00000000000E+00 0. -1.
        -12    1    6    6    0    0 -0.26471796731E+02  0.41958496030E+02  0.17575386206E+02  0.52632362777E+02  0.00000000000E+00 0.  1.
</event>
<event>
12    1  0.1345781E-002  0.2025240E+03  0.7818608E-02  0.1147627E+00
         -2   -1    0    0    0  501 -0.00000000000E+00  0.00000000000E+00  0.50377535847E+02  0.50377535847E+02  0.00000000000E+00 0.  1.
          2   -1    0    0  502    0  0.00000000000E+00 -0.00000000000E+00 -0.11952167000E+04  0.11952167000E+04  0.00000000000E+00 0. -1.
          6    2    1    2  502    0  0.42282606267E+02 -0.98840691052E+02 -0.22046937906E+03  0.29926518539E+03  0.17145145986E+03 0.  0.
         24    2    3    3    0    0 -0.21180833235E+02 -0.62609928886E+02 -0.55462736199E+02  0.11873940201E+03  0.81573890373E+02 0.  0.
         -6    2    1    2    0  501 -0.42282606267E+02  0.98840691052E+02 -0.92436978514E+03  0.94632905049E+03  0.17181929791E+03 0.  0.
        -24    2    5    5    0    0 -0.24135327525E+02  0.13293708749E+03 -0.82720137287E+03  0.84165967427E+03  0.76642760656E+02 0.  0.
          5    1    3    3  502    0  0.63463439502E+02 -0.36230762166E+02 -0.16500664286E+03  0.18052578339E+03  0.47000000000E+01 0. -1.
        -11    1    4    4    0    0  0.16764710362E+02 -0.37805936302E+02  0.66036216102E+01  0.41880211933E+02  0.00000000000E+00 0.  1.
         12    1    4    4    0    0 -0.37945543597E+02 -0.24803992583E+02 -0.62066357810E+02  0.76859190073E+02  0.00000000000E+00 0. -1.
         -5    1    5    5    0  501 -0.18147278742E+02 -0.34096396433E+02 -0.97168412271E+02  0.10466937622E+03  0.47000000000E+01 0.  1.
         13    1    6    6    0    0 -0.41795659058E+02  0.54937313415E+02 -0.50427697955E+03  0.50897962398E+03  0.00000000000E+00 0. -1.
        -14    1    6    6    0    0  0.17660331533E+02  0.77999774070E+02 -0.32292439331E+03  0.33268005029E+03  0.00000000000E+00 0.  1.
</event>
<event>
12    1  0.1345781E-002  0.2087381E+03  0.7818608E-02  0.1142569E+00
         -2   -1    0    0    0  501 -0.00000000000E+00  0.00000000000E+00  0.84027932969E+02  0.84027932969E+02  0.00000000000E+00 0. -1.
          2   -1    0    0  502    0  0.00000000000E+00 -0.00000000000E+00 -0.69617623366E+03  0.69617623366E+03  0.00000000000E+00 0.  1.
          6    2    1    2  502    0  0.10533387863E+03  0.59944423093E+02 -0.50410642738E+03  0.54596023603E+03  0.17105767844E+03 0.  0.
         24    2    3    3    0    0  0.78303606373E+02  0.16131647423E+02 -0.47242776680E+03  0.48533167456E+03  0.77247360240E+02 0.  0.
         -6    2    1    2    0  501 -0.10533387863E+03 -0.59944423093E+02 -0.10804187332E+03  0.23424393060E+03  0.16884493711E+03 0.  0.
        -24    2    5    5    0    0 -0.18915866962E+02 -0.79490674276E+02 -0.84407004711E+02  0.14242440278E+03  0.80520747284E+02 0.  0.
          5    1    3    3  502    0  0.27030272256E+02  0.43812775670E+02 -0.31678660578E+02  0.60628561472E+02  0.47000000000E+01 0. -1.
        -13    1    4    4    0    0  0.64829696998E+02  0.34195094958E+02 -0.43861892639E+03  0.44470074962E+03  0.00000000000E+00 0.  1.
         14    1    4    4    0    0  0.13473909375E+02 -0.18063447535E+02 -0.33808840414E+02  0.40630924933E+02  0.00000000000E+00 0. -1.
         -5    1    5    5    0  501 -0.86418011667E+02  0.19546251183E+02 -0.23634868604E+02  0.91819527824E+02  0.47000000000E+01 0.  1.
         11    1    6    6    0    0 -0.28954613008E+02 -0.93183041324E+02 -0.69123758756E+02  0.11958069589E+03  0.00000000000E+00 0. -1.
        -12    1    6    6    0    0  0.10038746046E+02  0.13692367048E+02 -0.15283245955E+02  0.22843706890E+02  0.00000000000E+00 0.  1.
</event>
<event>
12    1  0.1345781E-002  0.1969728E+03  0.7818608E-02  0.1152318E+00
         -2   -1    0    0    0  501 -0.00000000000E+00  0.00000000000E+00  0.56024572424E+03  0.56024572424E+03  0.00000000000E+00 0. -1.
          2   -1    0    0  502    0  0.00000000000E+00 -0.00000000000E+00 -0.84072916197E+02  0.84072916197E+02  0.00000000000E+00 0.  1.
          6    2    1    2  502    0  0.93899007333E+02  0.23493491663E+02  0.10298193442E+03  0.22240936473E+03  0.17173141523E+03 0.  0.
         24    2    3    3    0    0  0.51266380727E+02  0.17152719855E+02 -0.13897063741E+02  0.97747676757E+02  0.80243518987E+02 0.  0.
         -6    2    1    2    0  501 -0.93899007333E+02 -0.23493491663E+02  0.37319087362E+03  0.42190927570E+03  0.17136814476E+03 0.  0.
        -24    2    5    5    0    0  0.58745632860E+01  0.20106585929E+02  0.23231315565E+03  0.24379595901E+03  0.70910380424E+02 0.  0.
          5    1    3    3  502    0  0.42632626606E+02  0.63407718078E+01  0.11687899816E+03  0.12466168798E+03  0.47000000000E+01 0. -1.
        -11    1    4    4    0    0  0.22100652610E+02  0.41285187478E+02  0.16025250838E+02  0.49494587737E+02  0.00000000000E+00 0.  1.
         12    1    4    4    0    0  0.29165728117E+02 -0.24132467623E+02 -0.29922314579E+02  0.48253089019E+02  0.00000000000E+00 0. -1.
         -5    1    5    5    0  501 -0.99773570619E+02 -0.43600077592E+02  0.14087771797E+03  0.17811331669E+03  0.47000000000E+01 0.  1.
         11    1    6    6    0    0  0.72343684221E+01 -0.22428015026E+02  0.14219939556E+03  0.14413889149E+03  0.00000000000E+00 0. -1.
        -12    1    6    6    0    0 -0.13598051361E+01  0.42534600955E+02  0.90113760092E+02  0.99657067519E+02  0.00000000000E+00 0.  1.
</event>
<event>
12    1  0.1345781E-002  0.1812612E+03  0.7818608E-02  0.1166588E+00
         -1   -1    0    0    0  501 -0.00000000000E+00  0.00000000000E+00  0.17712708413E+02  0.17712708413E+02  0.00000000000E+00 0.  1.
          1   -1    0    0  502    0  0.00000000000E+00 -0.00000000000E+00 -0.18695373402E+04  0.18695373402E+04  0.00000000000E+00 0. -1.
          6    2    1    2  502    0 -0.36093155281E+02  0.41243330147E+02 -0.84410591078E+03  0.86341553302E+03  0.17311229274E+03 0.  0.
         24    2    3    3    0    0  0.31070163709E+02  0.31031252362E+02 -0.67377627534E+03  0.67997760711E+03  0.80416312190E+02 0.  0.
         -6    2    1    2    0  501  0.36093155281E+02 -0.41243330147E+02 -0.10077187210E+04  0.10238345156E+04  0.17244235709E+03 0.  0.
        -24    2    5    5    0    0 -0.36109574766E+02  0.38564063912E+01 -0.67145265475E+03  0.67692793195E+03  0.77871588027E+02 0.  0.
          5    1    3    3  502    0 -0.67163318991E+02  0.10212077785E+02 -0.17032963544E+03  0.18343792590E+03  0.47000000000E+01 0. -1.
        -11    1    4    4    0    0  0.48839742370E+02 -0.71666792776E+01 -0.34518903040E+03  0.34870065735E+03  0.00000000000E+00 0.  1.
         12    1    4    4    0    0 -0.17769578660E+02  0.38197931640E+02 -0.32858724494E+03  0.33127694976E+03  0.00000000000E+00 0. -1.
         -5    1    5    5    0  501  0.72202730047E+02 -0.45099736538E+02 -0.33626606624E+03  0.34690658363E+03  0.47000000000E+01 0.  1.
         11    1    6    6    0    0  0.22011085278E+02  0.11992729647E+02 -0.27722499623E+03  0.27835590881E+03  0.00000000000E+00 0. -1.
        -12    1    6    6    0    0 -0.58120660044E+02 -0.81363232561E+01 -0.39422765853E+03  0.39857202314E+03  0.00000000000E+00 0.  1.
</event>
<event>
12    1  0.1345781E-002  0.2055533E+03  0.7818608E-02  0.1145136E+00
          2   -1    0    0  502    0  0.00000000000E+00  0.00000000000E+00  0.83219761986E+03  0.83219761986E+03  0.00000000000E+00 0. -1.
         -2   -1    0    0    0  501 -0.00000000000E+00 -0.00000000000E+00 -0.53540557172E+02  0.53540557172E+02  0.00000000000E+00 0.  1.
          6    2    1    2  502    0  0.89514475034E+02 -0.69639017834E+02  0.49002118565E+03  0.53138371710E+03  0.17142187249E+03 0.  0.
         24    2    3    3    0    0 -0.96301334476E+01 -0.10450616414E+02  0.13005739225E+03  0.15332427361E+03  0.79946561810E+02 0.  0.
         -6    2    1    2    0  501 -0.89514475034E+02  0.69639017834E+02  0.28863587704E+03  0.35435445993E+03  0.17144672559E+03 0.  0.
        -24    2    5    5    0    0 -0.81891745556E+02 -0.54964131275E+01  0.23334479452E+03  0.26063875796E+03  0.82135865939E+02 0.  0.
          5    1    3    3  502    0  0.99144608481E+02 -0.59188401420E+02  0.35996379340E+03  0.37805944349E+03  0.47000000000E+01 0. -1.
        -13    1    4    4    0    0 -0.11894797653E+02 -0.39502457811E+02  0.35656291907E+02  0.54527988565E+02  0.00000000000E+00 0.  1.
         14    1    4    4    0    0  0.22646642054E+01  0.29051841398E+02  0.94401100344E+02  0.98796285045E+02  0.00000000000E+00 0. -1.
         -5    1    5    5    0  501 -0.76227294777E+01  0.75135430962E+02  0.55291082520E+02  0.93715701975E+02  0.47000000000E+01 0.  1.
         13    1    6    6    0    0 -0.61978310545E+02 -0.10108177548E+02  0.62580815409E+02  0.88655765117E+02  0.00000000000E+00 0. -1.
        -14    1    6    6    0    0 -0.19913435011E+02  0.46117644204E+01  0.17076397911E+03  0.17198299284E+03  0.00000000000E+00 0.  1.
</event>
<event>
12    1  0.1345781E-002  0.2258626E+03  0.7818608E-02  0.1129586E+00
         -2   -1    0    0    0  501 -0.00000000000E+00  0.00000000000E+00  0.41383878015E+02  0.41383878015E+02  0.00000000000E+00 0. -1.
          2   -1    0    0  502    0  0.00000000000E+00 -0.00000000000E+00 -0.12350495306E+04  0.12350495306E+04  0.00000000000E+00 0.  1.
          6    2    1    2  502    0  0.27192105470E+02  0.14321298347E+03 -0.56842988118E+03  0.61157826220E+03  0.17223841540E+03 0.  0.
         24    2    3    3    0    0 -0.25900890196E+02  0.18402085474E+02 -0.16526682609E+03  0.18618530806E+03  0.79638886640E+02 0.  0.
         -6    2    1    2    0  501 -0.27192105470E+02 -0.14321298347E+03 -0.62523577145E+03  0.66485514646E+03  0.17280979904E+03 0.  0.
        -24    2    5    5    0    0 -0.74177373242E+02 -0.48567003086E+02 -0.34849740550E+03  0.36859227303E+03  0.80924567364E+02 0.  0.
          5    1    3    3  502    0  0.53092995665E+02  0.12481089800E+03 -0.40316305508E+03  0.42539295414E+03  0.47000000000E+01 0. -1.
        -11    1    4    4    0    0 -0.26933714524E+02  0.41322425822E+02 -0.15172968475E+03  0.15954580874E+03  0.00000000000E+00 0.  1.
         12    1    4    4    0    0  0.10328243282E+01 -0.22920340348E+02 -0.13537141348E+02  0.26639499313E+02  0.00000000000E+00 0. -1.
         -5    1    5    5    0  501  0.46985267772E+02 -0.94645980384E+02 -0.27673836594E+03  0.29626287343E+03  0.47000000000E+01 0.  1.
         13    1    6    6    0    0 -0.30841183981E+02 -0.29760096898E+02 -0.29117292911E+03  0.29431023877E+03  0.00000000000E+00 0. -1.
        -14    1    6    6    0    0 -0.43336189261E+02 -0.18806906188E+02 -0.57324476392E+02  0.74282034259E+02  0.00000000000E+00 0.  1.
</event>
<event>
12    1  0.1345781E-002  0.1727215E+03  0.7818608E-02  0.1175039E+00
          1   -1    0    0  502    0  0.00000000000E+00  0.00000000000E+00  0.39616177128E+03  0.39616177128E+03  0.00000000000E+00 0.  1.
         -1   -1    0    0    0  501 -0.00000000000E+00 -0.00000000000E+00 -0.79957667610E+02  0.79957667610E+02  0.00000000000E+00 0. -1.
          6    2    1    2  502    0 -0.12278128735E+02  0.20176218514E+00  0.97196120853E+02  0.19441543308E+03  0.16792701259E+03 0.  0.
         24    2    3    3    0    0 -0.39209959603E+01  0.72347036315E+01 -0.14753241588E+02  0.81836333403E+02  0.80073792102E+02 0.  0.
         -6    2    1    2    0  501  0.12278128735E+02 -0.20176218514E+00  0.21900798281E+03  0.28170400580E+03  0.17675366247E+03 0.  0.
        -24    2    5    5    0    0 -0.22174865245E+02 -0.20853461867E+02  0.22514101468E+03  0.24079917022E+03  0.79807094719E+02 0.  0.
          5    1    3    3  502    0 -0.83571327744E+01 -0.70329414464E+01  0.11194936244E+03  0.11257909968E+03  0.47000000000E+01 0. -1.
        -11    1    4    4    0    0  0.30668183510E+02  0.13993069970E+02  0.13852514271E+02  0.36444967261E+02  0.00000000000E+00 0.  1.
         12    1    4    4    0    0 -0.34589179470E+02 -0.67583663386E+01 -0.28605755860E+02  0.45391366143E+02  0.00000000000E+00 0. -1.
         -5    1    5    5    0  501  0.34452993979E+02  0.20651699681E+02 -0.61330318697E+01  0.40904835579E+02  0.47000000000E+01 0.  1.
         11    1    6    6    0    0  0.20778586469E+02 -0.34367496679E+02  0.97443385625E+02  0.10539491395E+03  0.00000000000E+00 0. -1.
        -12    1    6    6    0    0 -0.42953451713E+02  0.13514034813E+02  0.12769762906E+03  0.13540425628E+03  0.00000000000E+00 0.  1.
</event>
<event>
12    1  0.1345781E-002  0.2764810E+03  0.7818608E-02  0.1097627E+00
         -1   -1    0    0    0  501 -0.00000000000E+00  0.00000000000E+00  0.47736720847E+03  0.47736720847E+03  0.00000000000E+00 0. -1.
          1   -1    0    0  502    0  0.00000000000E+00 -0.00000000000E+00 -0.17486462390E+03  0.17486462390E+03  0.00000000000E+00 0.  1.
          6    2    1    2  502    0 -0.11005785552E+03 -0.18664744481E+03  0.24585259884E+03  0.36989447340E+03  0.17154713894E+03 0.  0.
         24    2    3    3    0    0 -0.87158518879E+02 -0.20391007268E+03  0.17745994851E+03  0.29558416080E+03  0.81865973612E+02 0.  0.
         -6    2    1    2    0  501  0.11005785552E+03  0.18664744481E+03  0.56649985725E+02  0.28233735897E+03  0.17191615157E+03 0.  0.
        -24    2    5    5    0    0  0.98887541259E+02  0.20978016600E+03  0.33055632145E+02  0.24714244128E+03  0.78741650994E+02 0.  0.
          5    1    3    3  502    0 -0.22899336642E+02  0.17262627872E+02  0.68392650332E+02  0.74310312603E+02  0.47000000000E+01 0. -1.
        -13    1    4    4    0    0 -0.37352109421E+02 -0.44800425912E+02  0.98140449069E+01  0.59148742316E+02  0.00000000000E+00 0.  1.
         14    1    4    4    0    0 -0.49806409459E+02 -0.15910964677E+03  0.16764590360E+03  0.23643541848E+03  0.00000000000E+00 0. -1.
         -5    1    5    5    0  501  0.11170314262E+02 -0.23132721190E+02  0.23594353580E+02  0.35194917690E+02  0.47000000000E+01 0.  1.
         11    1    6    6    0    0  0.59175073028E+02  0.11705389466E+03  0.57717528925E+02  0.14329904629E+03  0.00000000000E+00 0. -1.
        -12    1    6    6    0    0  0.39712468231E+02  0.92726271340E+02 -0.24661896779E+02  0.10384339499E+03  0.00000000000E+00 0.  1.
</event>
<event>
12    1  0.1345781E-002  0.2515485E+03  0.7818608E-02  0.1112330E+00
         -2   -1    0    0    0  501 -0.00000000000E+00  0.00000000000E+00  0.61401044775E+02  0.61401044775E+02  0.00000000000E+00 0.  1.
          2   -1    0    0  502    0  0.00000000000E+00 -0.00000000000E+00 -0.12258898516E+04  0.12258898516E+04  0.00000000000E+00 0. -1.
          6    2    1    2  502    0 -0.15797781071E+03 -0.93205307496E+02 -0.84017533145E+03  0.87717192286E+03  0.17289238463E+03 0.  0.
         24    2    3    3    0    0 -0.31304552661E+02 -0.76485161484E+02 -0.28532640832E+03  0.30778181487E+03  0.80551420432E+02 0.  0.
         -6    2    1    2    0  501  0.15797781071E+03  0.93205307496E+02 -0.32431347535E+03  0.41011897349E+03  0.17138880973E+03 0.  0.
        -24    2    5    5    0    0  0.16982454073E+03  0.97824304226E+02 -0.33281562787E+03  0.39411720045E+03  0.78435683227E+02 0.  0.
          5    1    3    3  502    0 -0.12667325804E+03 -0.16720146012E+02 -0.55484892312E+03  0.56939010799E+03  0.47000000000E+01 0. -1.
        -11    1    4    4    0    0  0.10345868732E+02 -0.72749922851E+02 -0.18811978697E+03  0.20196198287E+03  0.00000000000E+00 0.  1.
         12    1    4    4    0    0 -0.41650421394E+02 -0.37352386334E+01 -0.97206621354E+02  0.10581983200E+03  0.00000000000E+00 0. -1.
         -5    1    5    5    0  501 -0.11846730028E+02 -0.46189967299E+01  0.85021525126E+01  0.16001773042E+02  0.47000000000E+01 0.  1.
         11    1    6    6    0    0  0.62239540075E+02  0.57851340334E+02 -0.20729658083E+03  0.22403662725E+03  0.00000000000E+00 0. -1.
        -12    1    6    6    0    0  0.10758500066E+03  0.39972963892E+02 -0.12551904704E+03  0.17008057320E+03  0.00000000000E+00 0.  1.
</event>
<event>
12    1  0.1345781E-002  0.1737673E+03  0.7818608E-02  0.1173975E+00
          2   -1    0    0  502    0  0.00000000000E+00  0.00000000000E+00  0.23196670676E+04  0.23196670676E+04  0.00000000000E+00 0. -1.
         -2   -1    0    0    0  501 -0.00000000000E+00 -0.00000000000E+00 -0.20477374564E+02  0.20477374564E+02  0.00000000000E+00 0.  1.
          6    2    1    2  502    0 -0.16432267457E+02 -0.22013357222E+02  0.18554805134E+04  0.18635914868E+04  0.17149544253E+03 0.  0.
         24    2    3    3    0    0 -0.65575338730E+02 -0.32384300122E+02  0.84372213678E+03  0.85057633364E+03  0.79146619023E+02 0.  0.
         -6    2    1    2    0  501  0.16432267457E+02  0.22013357222E+02  0.44370917964E+03  0.47655295536E+03  0.17166908822E+03 0.  0.
        -24    2    5    5    0    0  0.57212375611E+02  0.11154497364E+02  0.41166332464E+03  0.42335559751E+03  0.79784649905E+02 0.  0.
          5    1    3    3  502    0  0.49143071272E+02  0.10370942899E+02  0.10117583766E+04  0.10130151532E+04  0.47000000000E+01 0. -1.
        -13    1    4    4    0    0  0.90423747101E+01  0.85765209089E+01  0.31039706185E+02  0.33448237791E+02  0.00000000000E+00 0.  1.
         14    1    4    4    0    0 -0.74617713440E+02 -0.40960821030E+02  0.81268243060E+03  0.81712809585E+03  0.00000000000E+00 0. -1.
         -5    1    5    5    0  501 -0.40780108154E+02  0.10858859858E+02  0.32045855005E+02  0.53197357843E+02  0.47000000000E+01 0.  1.
         13    1    6    6    0    0  0.31108687134E+02  0.24271568149E+02  0.37204205338E+03  0.37412851925E+03  0.00000000000E+00 0. -1.
        -14    1    6    6    0    0  0.26103688477E+02 -0.13117070785E+02  0.39621271261E+02  0.49227078265E+02  0.00000000000E+00 0.  1.
</event>
<event>
12    1  0.1345781E-002  0.1720413E+03  0.7818608E-02  0.1175736E+00
         -1   -1    0    0    0  501 -0.00000000000E+00  0.00000000000E+00  0.33016925899E+02  0.33016925899E+02  0.00000000000E+00 0.  1.
          1   -1    0    0  502    0  0.00000000000E+00 -0.00000000000E+00 -0.94427506639E+03  0.94427506639E+03  0.00000000000E+00 0. -1.
          6    2    1    2  502    0 -0.34364379412E+02  0.61989932568E+01 -0.56287954440E+03  0.58827565658E+03  0.16737839922E+03 0.  0.
         24    2    3    3    0    0 -0.69943909018E+02  0.42266272008E+02 -0.31276603916E+03  0.33303928176E+03  0.80087326010E+02 0.  0.
         -6    2    1    2    0  501  0.34364379412E+02 -0.61989932568E+01 -0.34837859609E+03  0.38901633572E+03  0.16954859229E+03 0.  0.
        -24    2    5    5    0    0 -0.46077552414E+02 -0.30353697100E+01 -0.17191632094E+03  0.19500103358E+03  0.79610472848E+02 0.  0.
          5    1    3    3  502    0  0.35579529606E+02 -0.36067278751E+02 -0.25011350524E+03  0.25523637481E+03  0.47000000000E+01 0. -1.
        -13    1    4    4    0    0 -0.46467120226E+02  0.61884332479E+02 -0.26699854277E+03  0.27798756395E+03  0.00000000000E+00 0.  1.
         14    1    4    4    0    0 -0.23476788792E+02 -0.19618060471E+02 -0.45767496389E+02  0.55051717814E+02  0.00000000000E+00 0. -1.
         -5    1    5    5    0  501  0.80441931826E+02 -0.31636235468E+01 -0.17646227516E+03  0.19401530214E+03  0.47000000000E+01 0.  1.
         11    1    6    6    0    0  0.24663051944E+01  0.27293024123E+02 -0.96543754097E+02  0.10035780130E+03  0.00000000000E+00 0. -1.
        -12    1    6    6    0    0 -0.48543857608E+02 -0.30328393833E+02 -0.75372566842E+02  0.94643232279E+02  0.00000000000E+00 0.  1.
</event>
<event>
12    1  0.1345781E-002  0.1698351E+03  0.7818608E-02  0.1178020E+00
         -1   -1    0    0    0  501 -0.00000000000E+00  0.00000000000E+00  0.81888105830E+03  0.81888105830E+03  0.00000000000E+00 0. -1.
          1   -1    0    0  502    0  0.00000000000E+00 -0.00000000000E+00 -0.40099070474E+02  0.40099070474E+02  0.00000000000E+00 0.  1.
          6    2    1    2  502    0 -0.95877930837E+01  0.52075135408E+00  0.54373424964E+03  0.57034568273E+03  0.17191587075E+03 0.  0.
         24    2    3    3    0    0  0.31568667917E+02  0.40939857943E+02  0.19570304280E+03  0.21753501197E+03  0.79681539349E+02 0.  0.
         -6    2    1    2    0  501  0.95877930837E+01 -0.52075135408E+00  0.23504773819E+03  0.28863444605E+03  0.16724295877E+03 0.  0.
        -24    2    5    5    0    0  0.10077054057E+02 -0.33449108629E+02  0.23929231551E+03  0.25509905391E+03  0.81205450273E+02 0.  0.
          5    1    3    3  502    0 -0.41156461001E+02 -0.40419106589E+02  0.34803120684E+03  0.35281067075E+03  0.47000000000E+01 0. -1.
        -11    1    4    4    0    0  0.10390773475E+02 -0.24262796635E+02  0.57011135168E+02  0.62824525522E+02  0.00000000000E+00 0.  1.
         12    1    4    4    0    0  0.21177894442E+02  0.65202654578E+02  0.13869190763E+03  0.15471048645E+03  0.00000000000E+00 0. -1.
         -5    1    5    5    0  501 -0.48926097338E+00  0.32928357275E+02 -0.42445773276E+01  0.33535392138E+02  0.47000000000E+01 0.  1.
         11    1    6    6    0    0 -0.24894252535E+02  0.14572725461E+02  0.85295581913E+02  0.90041237389E+02  0.00000000000E+00 0. -1.
        -12    1    6    6    0    0  0.34971306592E+02 -0.48021834090E+02  0.15399673360E+03  0.16505781652E+03  0.00000000000E+00 0.  1.
</event>
<event>
12    1  0.1345781E-002  0.2009862E+03  0.7818608E-02  0.1148910E+00
         -2   -1    0    0    0  501 -0.00000000000E+00  0.00000000000E+00  0.56198728310E+02  0.56198728310E+02  0.00000000000E+00 0.  1.
          2   -1    0    0  502    0  0.00000000000E+00 -0.00000000000E+00 -0.80420311911E+03  0.80420311911E+03  0.00000000000E+00 0. -1.
          6    2    1    2  502    0  0.83615624684E+02  0.61550389100E+02 -0.23402815946E+03  0.30857438269E+03  0.17224676236E+03 0.  0.
         24    2    3    3    0    0  0.36267086889E+02  0.41493060434E+02 -0.23645146094E+03  0.25688160898E+03  0.83915981759E+02 0.  0.
         -6    2    1    2    0  501 -0.83615624684E+02 -0.61550389100E+02 -0.51397623134E+03  0.55182746473E+03  0.17193592224E+03 0.  0.
        -24    2    5    5    0    0 -0.83731172017E+00 -0.72639488842E+02 -0.25875883494E+03  0.28325116895E+03  0.89430943307E+02 0.  0.
          5    1    3    3  502    0  0.47348537795E+02  0.20057328667E+02  0.24233014774E+01  0.51692773718E+02  0.47000000000E+01 0. -1.
        -13    1    4    4    0    0  0.29508818524E+02 -0.79441350000E+01 -0.24591964614E+02  0.39225557678E+02  0.00000000000E+00 0.  1.
         14    1    4    4    0    0  0.67582683644E+01  0.49437195434E+02 -0.21185949633E+03  0.21765605130E+03  0.00000000000E+00 0. -1.
         -5    1    5    5    0  501 -0.82778312963E+02  0.11089099741E+02 -0.25521739639E+03  0.26857629577E+03  0.47000000000E+01 0.  1.
         13    1    6    6    0    0 -0.86836448470E+01 -0.85231483443E+02 -0.25337629508E+03  0.26746842499E+03  0.00000000000E+00 0. -1.
        -14    1    6    6    0    0  0.78463331268E+01  0.12591994601E+02 -0.53825398618E+01  0.15782743961E+02  0.00000000000E+00 0.  1.
</event>
<event>
12    1  0.1345781E-002  0.2362524E+03  0.7818608E-02  0.1122315E+00
         -1   -1    0    0    0  501 -0.00000000000E+00  0.00000000000E+00  0.13208321556E+03  0.13208321556E+03  0.00000000000E+00 0. -1.
          1   -1    0    0  502    0  0.00000000000E+00 -0.00000000000E+00 -0.49891052669E+03  0.49891052669E+03  0.00000000000E+00 0.  1.
          6    2    1    2  502    0 -0.31919915909E+02 -0.15681779283E+03 -0.59724672296E+02  0.24326939824E+03  0.17321161179E+03 0.  0.
         24    2    3    3    0    0  0.30948536395E+01 -0.45857469753E+01 -0.14018618646E+02  0.80445065867E+02  0.79020755244E+02 0.  0.
         -6    2    1    2    0  501  0.31919915909E+02  0.15681779283E+03 -0.30710263883E+03  0.38772434400E+03  0.17437727769E+03 0.  0.
        -24    2    5    5    0    0  0.41684747594E+02  0.37196619057E+02 -0.21566557231E+03  0.23676936963E+03  0.80167878008E+02 0.  0.
          5    1    3    3  502    0 -0.35014769548E+02 -0.15223204586E+03 -0.45706053651E+02  0.16282433237E+03  0.47000000000E+01 0. -1.
        -13    1    4    4    0    0  0.24516569471E+02 -0.31769556092E+00 -0.39743358986E+02  0.46697940988E+02  0.00000000000E+00 0.  1.
         14    1    4    4    0    0 -0.21421715831E+02 -0.42680514144E+01  0.25724740340E+02  0.33747124879E+02  0.00000000000E+00 0. -1.
         -5    1    5    5    0  501 -0.97648316852E+01  0.11962117378E+03 -0.91437066523E+02  0.15095497437E+03  0.47000000000E+01 0.  1.
         11    1    6    6    0    0  0.79967484988E+01  0.27491288265E+02 -0.19279846749E+03  0.19491271888E+03  0.00000000000E+00 0. -1.
        -12    1    6    6    0    0  0.33687999095E+02  0.97053307923E+01 -0.22867104823E+02  0.41856650748E+02  0.00000000000E+00 0.  1.
</event>
<event>
12    1  0.1345781E-002  0.1870689E+03  0.7818608E-02  0.1161132E+00
          2   -1    0    0  502    0  0.00000000000E+00  0.00000000000E+00  0.63734031523E+03  0.63734031523E+03  0.00000000000E+00 0.  1.
         -2   -1    0    0    0  501 -0.00000000000E+00 -0.00000000000E+00 -0.11180504085E+03  0.11180504085E+03  0.00000000000E+00 0. -1.
          6    2    1    2  502    0 -0.61040111808E+02 -0.35327168758E+02  0.52974852757E+03  0.56169811019E+03  0.17290853199E+03 0.  0.
         24    2    3    3    0    0 -0.25355181350E+01 -0.75723308174E+02  0.26800559376E+03  0.29043055047E+03  0.82355680473E+02 0.  0.
         -6    2    1    2    0  501  0.61040111808E+02  0.35327168758E+02 -0.42132531882E+01  0.18744724589E+03  0.17362262061E+03 0.  0.
        -24    2    5    5    0    0  0.15907021723E+02  0.46487121269E+02 -0.65928149539E+02  0.11003691847E+03  0.73126717007E+02 0.  0.
          5    1    3    3  502    0 -0.58504593673E+02  0.40396139417E+02  0.26174293381E+03  0.27126755972E+03  0.47000000000E+01 0. -1.
        -11    1    4    4    0    0 -0.38806266137E+01 -0.35994003356E+02  0.23770759159E+03  0.24044859459E+03  0.00000000000E+00 0.  1.
         12    1    4    4    0    0  0.13451084788E+01 -0.39729304818E+02  0.30298002171E+02  0.49981955881E+02  0.00000000000E+00 0. -1.
         -5    1    5    5    0  501  0.45133090085E+02 -0.11159952512E+02  0.61714896351E+02  0.77410327427E+02  0.47000000000E+01 0.  1.
         11    1    6    6    0    0  0.32929482947E+02  0.39681144075E+01 -0.52868708335E+02  0.62411514163E+02  0.00000000000E+00 0. -1.
        -12    1    6    6    0    0 -0.17022461224E+02  0.42519006862E+02 -0.13059441204E+02  0.47625404305E+02  0.00000000000E+00 0.  1.
</event>
<event>
12    1  0.1345781E-002  0.5286163E+03  0.7818608E-02  0.1006568E+00
          1   -1    0    0  502    0  0.00000000000E+00  0.00000000000E+00  0.27512346837E+03  0.27512346837E+03  0.00000000000E+00 0. -1.
         -1   -1    0    0    0  501 -0.00000000000E+00 -0.00000000000E+00 -0.10180479491E+04  0.10180479491E+04  0.00000000000E+00 0.  1.
          6    2    1    2  502    0  0.28172904985E+03  0.41331302239E+03 -0.34014660548E+03  0.62850118034E+03  0.17063149904E+03 0.  0.
         24    2    3    3    0    0  0.11594041979E+03  0.27745710963E+03 -0.17327628989E+03  0.35682031772E+03  0.82894136559E+02 0.  0.
         -6    2    1    2    0  501 -0.28172904985E+03 -0.41331302239E+03 -0.40277787527E+03  0.66467023714E+03  0.17134058286E+03 0.  0.
        -24    2    5    5    0    0 -0.29957545008E+03 -0.37941172950E+03 -0.36607425600E+03  0.61140639080E+03  0.78158192301E+02 0.  0.
          5    1    3    3  502    0  0.16578863006E+03  0.13585591276E+03 -0.16687031559E+03  0.27168086262E+03  0.47000000000E+01 0. -1.
        -11    1    4    4    0    0  0.53973454293E+02  0.11923469052E+03 -0.12301582563E+03  0.17961887024E+03  0.00000000000E+00 0.  1.
         12    1    4    4    0    0  0.61966965496E+02  0.15822241911E+03 -0.50260464266E+02  0.17720144748E+03  0.00000000000E+00 0. -1.
         -5    1    5    5    0  501  0.17846400232E+02 -0.33901292882E+02 -0.36703619263E+02  0.53263846344E+02  0.47000000000E+01 0.  1.
         13    1    6    6    0    0 -0.10093666940E+03 -0.78390753906E+02 -0.77053299204E+02  0.14923314794E+03  0.00000000000E+00 0. -1.
        -14    1    6    6    0    0 -0.19863878068E+03 -0.30102097560E+03 -0.28902095680E+03  0.46217324285E+03  0.00000000000E+00 0.  1.
</event>
<event>
12    1  0.1345781E-002  0.2169811E+03  0.7818608E-02  0.1136154E+00
          2   -1    0    0  502    0  0.00000000000E+00  0.00000000000E+00  0.39776299044E+03  0.39776299044E+03  0.00000000000E+00 0.  1.
         -2   -1    0    0    0  501 -0.00000000000E+00 -0.00000000000E+00 -0.11893228576E+03  0.11893228576E+03  0.00000000000E+00 0. -1.
          6    2    1    2  502    0 -0.17456214290E+02 -0.12294451038E+03  0.11921794467E+03  0.24050694993E+03  0.16796012201E+03 0.  0.
         24    2    3    3    0    0  0.12605031809E+02 -0.12754356980E+03  0.13766995009E+03  0.20462664380E+03  0.80577907456E+02 0.  0.
         -6    2    1    2    0  501  0.17456214290E+02  0.12294451038E+03  0.15961276001E+03  0.27618832626E+03  0.18810551920E+03 0.  0.
        -24    2    5    5    0    0 -0.48929168443E+02  0.12057087482E+03  0.13969365095E+03  0.20667923267E+03  0.79187055264E+02 0.  0.
          5    1    3    3  502    0 -0.30061246099E+02  0.45990594133E+01 -0.18452005419E+02  0.35880306137E+02  0.47000000000E+01 0. -1.
        -11    1    4    4    0    0  0.44725746858E+02 -0.62416327584E+02  0.54192949853E+02  0.93984393358E+02  0.00000000000E+00 0.  1.
         12    1    4    4    0    0 -0.32120715049E+02 -0.65127242213E+02  0.83477000238E+02  0.11064225044E+03  0.00000000000E+00 0. -1.
         -5    1    5    5    0  501  0.66385382733E+02  0.23736355656E+01  0.19919109063E+02  0.69509093594E+02  0.47000000000E+01 0.  1.
         11    1    6    6    0    0  0.80588871515E+01  0.69123556602E+02  0.38101378831E+02  0.79339314392E+02  0.00000000000E+00 0. -1.
        -12    1    6    6    0    0 -0.56988055594E+02  0.51447318216E+02  0.10159227212E+03  0.12733991828E+03  0.00000000000E+00 0.  1.
</event>
<event>
12    1  0.1345781E-002  0.1762552E+03  0.7818608E-02  0.1171477E+00
          2   -1    0    0  502    0  0.00000000000E+00  0.00000000000E+00  0.28829476445E+04  0.28829476445E+04  0.00000000000E+00 0. -1.
         -2   -1    0    0    0  501 -0.00000000000E+00 -0.00000000000E+00 -0.21927560890E+02  0.21927560890E+02  0.00000000000E+00 0.  1.
          6    2    1    2  502    0  0.45635254574E+01 -0.90372270305E+01  0.24537943265E+04  0.24598995539E+04  0.17290668285E+03 0.  0.
         24    2    3    3    0    0  0.25579009477E+02 -0.28215378621E+02  0.23596211719E+04  0.23614103406E+04  0.83644059817E+02 0.  0.
         -6    2    1    2    0  501 -0.45635254574E+01  0.90372270305E+01  0.40722575712E+03  0.44497565156E+03  0.17907544774E+03 0.  0.
        -24    2    5    5    0    0  0.21490180511E+02 -0.54031161377E+02  0.30968792227E+03  0.32584489802E+03  0.82988517950E+02 0.  0.
          5    1    3    3  502    0 -0.21015484020E+02  0.19178151591E+02  0.94173154626E+02  0.98489213213E+02  0.47000000000E+01 0. -1.
        -13    1    4    4    0    0  0.52331603348E+02 -0.36464998160E+02  0.16957828923E+04  0.16969820007E+04  0.00000000000E+00 0.  1.
         14    1    4    4    0    0 -0.26752593871E+02  0.82496195391E+01  0.66383827959E+03  0.66442833997E+03  0.00000000000E+00 0. -1.
         -5    1    5    5    0  501 -0.26053705968E+02  0.63068388407E+02  0.97537834855E+02  0.11913075354E+03  0.47000000000E+01 0.  1.
         13    1    6    6    0    0  0.24592507150E+01 -0.45066918621E+02  0.59038892100E+02  0.74314640875E+02  0.00000000000E+00 0. -1.
        -14    1    6    6    0    0  0.19030929796E+02 -0.89642427558E+01  0.25064903017E+03  0.25153025715E+03  0.00000000000E+00 0.  1.
</event>
<event>
12    1  0.1345781E-002  0.1898150E+03  0.7818608E-02  0.1158628E+00
          1   -1    0    0  502    0  0.00000000000E+00  0.00000000000E+00  0.12745652717E+04  0.12745652717E+04  0.00000000000E+00 0.  1.
         -1   -1    0    0    0  501 -0.00000000000E+00 -0.00000000000E+00 -0.28339476319E+02  0.28339476319E+02  0.00000000000E+00 0. -1.
          6    2    1    2  502    0  0.46252174672E+02 -0.60966931230E+02  0.58394956618E+03  0.61332958107E+03  0.17123039686E+03 0.  0.
         24    2    3    3    0    0  0.50566161579E+02 -0.10327061289E+03  0.38257251216E+03  0.40745821383E+03  0.80241590031E+02 0.  0.
         -6    2    1    2    0  501 -0.46252174672E+02  0.60966931230E+02  0.66227622921E+03  0.68957516696E+03  0.17620407698E+03 0.  0.
        -24    2    5    5    0    0  0.59932131433E+01  0.12525409580E+02  0.15913947130E+03  0.18139719742E+03  0.85946305423E+02 0.  0.
          5    1    3    3  502    0 -0.43139869068E+01  0.42303681658E+02  0.20137705402E+03  0.20587136725E+03  0.47000000000E+01 0. -1.
        -11    1    4    4    0    0 -0.20327745350E+02 -0.13453980750E+02  0.47553955859E+02  0.53437866226E+02  0.00000000000E+00 0.  1.
         12    1    4    4    0    0  0.70893906929E+02 -0.89816632139E+02  0.33501855630E+03  0.35402034760E+03  0.00000000000E+00 0. -1.
         -5    1    5    5    0  501 -0.52245387815E+02  0.48441521650E+02  0.50313675791E+03  0.50817796955E+03  0.47000000000E+01 0.  1.
         11    1    6    6    0    0 -0.38913106544E+02  0.15034541703E+02  0.84926019503E+02  0.94618687867E+02  0.00000000000E+00 0. -1.
        -12    1    6    6    0    0  0.44906319687E+02 -0.25091321230E+01  0.74213451796E+02  0.86778509548E+02  0.00000000000E+00 0.  1.
</event>
<event>
12    1  0.1345781E-002  0.2055610E+03  0.7818608E-02  0.1145130E+00
         -2   -1    0    0    0  501 -0.00000000000E+00  0.00000000000E+00  0.13511760588E+03  0.13511760588E+03  0.00000000000E+00 0.  1.
          2   -1    0    0  502    0  0.00000000000E+00 -0.00000000000E+00 -0.35514979776E+03  0.35514979776E+03  0.00000000000E+00 0. -1.
          6    2    1    2  502    0  0.56305887754E+02 -0.94346699046E+02 -0.19411637942E+03  0.28180098144E+03  0.17221780327E+03 0.  0.
         24    2    3    3    0    0 -0.71443979612E+01 -0.11135299187E+03 -0.13843106875E+03  0.19555658117E+03  0.81416733078E+02 0.  0.
         -6    2    1    2    0  501 -0.56305887754E+02  0.94346699046E+02 -0.25915812469E+02  0.20846642220E+03  0.17525686073E+03 0.  0.
        -24    2    5    5    0    0 -0.35390369354E+02  0.45631326883E+02 -0.85007177193E+02  0.12893953505E+03  0.77874818067E+02 0.  0.
          5    1    3    3  502    0  0.63450285715E+02  0.17006292819E+02 -0.55685310664E+02  0.86244400262E+02  0.47000000000E+01 0. -1.
        -13    1    4    4    0    0  0.20062496652E+02 -0.16378608975E+02 -0.51225665841E+00  0.25904150454E+02  0.00000000000E+00 0.  1.
         14    1    4    4    0    0 -0.27206894613E+02 -0.94974382890E+02 -0.13791881209E+03  0.16965243072E+03  0.00000000000E+00 0. -1.
         -5    1    5    5    0  501 -0.20915518399E+02  0.48715372164E+02  0.59091364724E+02  0.79526887151E+02  0.47000000000E+01 0.  1.
         11    1    6    6    0    0 -0.57388276206E+01 -0.21419561763E+02 -0.29889704699E+02  0.37217283828E+02  0.00000000000E+00 0. -1.
        -12    1    6    6    0    0 -0.29651541734E+02  0.67050888645E+02 -0.55117472495E+02  0.91722251224E+02  0.00000000000E+00 0.  1.
</event>
<event>
12    1  0.1345781E-002  0.2088898E+03  0.7818608E-02  0.1142448E+00
          1   -1    0    0  502    0  0.00000000000E+00  0.00000000000E+00  0.49588214914E+03  0.49588214914E+03  0.00000000000E+00 0. -1.
         -1   -1    0    0    0  501 -0.00000000000E+00 -0.00000000000E+00 -0.88457343216E+02  0.88457343216E+02  0.00000000000E+00 0.  1.
          6    2    1    2  502    0  0.12163597572E+03 -0.78055601963E+01  0.22621766083E+03  0.30895274733E+03  0.17152589498E+03 0.  0.
         24    2    3    3    0    0  0.16969229920E+02  0.12098912786E+02  0.37059587933E+02  0.91802609716E+02  0.81363183555E+02 0.  0.
         -6    2    1    2    0  501 -0.12163597572E+03  0.78055601963E+01  0.18120714509E+03  0.27538674503E+03  0.16776648218E+03 0.  0.
        -24    2    5    5    0    0 -0.80481827875E+02 -0.48950968273E+02  0.62622216482E+02  0.13754827905E+03  0.78258962173E+02 0.  0.
          5    1    3    3  502    0  0.10466674580E+03 -0.19904472982E+02  0.18915807290E+03  0.21715013761E+03  0.47000000000E+01 0. -1.
        -11    1    4    4    0    0  0.41926043141E+02  0.31088966946E+02  0.18584399821E+02  0.55404845239E+02  0.00000000000E+00 0.  1.
         12    1    4    4    0    0 -0.24956813221E+02 -0.18990054160E+02  0.18475188112E+02  0.36397764477E+02  0.00000000000E+00 0. -1.
         -5    1    5    5    0  501 -0.41154147847E+02  0.56756528469E+02  0.11858492861E+03  0.13783846597E+03  0.47000000000E+01 0.  1.
         11    1    6    6    0    0 -0.14730123499E+01 -0.63380219078E+00  0.42811258684E+02  0.42841280802E+02  0.00000000000E+00 0. -1.
        -12    1    6    6    0    0 -0.79008815525E+02 -0.48317166082E+02  0.19810957798E+02  0.94706998251E+02  0.00000000000E+00 0.  1.
</event>
<event>
12    1  0.1345781E-002  0.2187822E+03  0.7818608E-02  0.1134794E+00
          2   -1    0    0  502    0  0.00000000000E+00  0.00000000000E+00  0.37238668734E+03  0.37238668734E+03  0.00000000000E+00 0.  1.
         -2   -1    0    0    0  501 -0.00000000000E+00 -0.00000000000E+00 -0.21624346824E+03  0.21624346824E+03  0.00000000000E+00 0. -1.
          6    2    1    2  502    0  0.73164401873E+02  0.11378686777E+03 -0.10925712225E+03  0.24499934713E+03  0.17258934021E+03 0.  0.
         24    2    3    3    0    0  0.66559411163E+02  0.11393044762E+03 -0.14312022830E+03  0.21017914510E+03  0.79256363624E+02 0.  0.
         -6    2    1    2    0  501 -0.73164401873E+02 -0.11378686777E+03  0.26540034135E+03  0.34363080845E+03  0.17130181070E+03 0.  0.
        -24    2    5    5    0    0 -0.18705947216E+02 -0.39305190475E+02  0.22513511969E+03  0.24285074291E+03  0.79974063008E+02 0.  0.
          5    1    3    3  502    0  0.66049907091E+01 -0.14357985583E+00  0.33863106058E+02  0.34820202029E+02  0.47000000000E+01 0. -1.
        -11    1    4    4    0    0  0.34142626443E+02  0.28341465450E+01 -0.54677397904E+02  0.64524175071E+02  0.00000000000E+00 0.  1.
         12    1    4    4    0    0  0.32416784721E+02  0.11109630108E+03 -0.88442830400E+02  0.14565497003E+03  0.00000000000E+00 0. -1.
         -5    1    5    5    0  501 -0.54458454656E+02 -0.74481677291E+02  0.40265221664E+02  0.10078006554E+03  0.47000000000E+01 0.  1.
         11    1    6    6    0    0 -0.18417996695E+00  0.10948201089E+02 -0.48541035521E+00  0.10960504211E+02  0.00000000000E+00 0. -1.
        -12    1    6    6    0    0 -0.18521767249E+02 -0.50253391563E+02  0.22562053004E+03  0.23189023870E+03  0.00000000000E+00 0.  1.
</event>
<event>
12    1  0.1345781E-002  0.1829725E+03  0.7818608E-02  0.1164957E+00
         -2   -1    0    0    0  501 -0.00000000000E+00  0.00000000000E+00  0.88577953458E+02  0.88577953458E+02  0.00000000000E+00 0. -1.
          2   -1    0    0  502    0  0.00000000000E+00 -0.00000000000E+00 -0.53614214998E+03  0.53614214998E+03  0.00000000000E+00 0.  1.
          6    2    1    2  502    0 -0.19786500103E+02 -0.65568523414E+02 -0.52331285259E+02  0.18829213476E+03  0.16740557860E+03 0.  0.
         24    2    3    3    0    0 -0.52463793335E+02 -0.16114232942E+02 -0.72302660326E+02  0.12556671598E+03  0.86759479924E+02 0.  0.
         -6    2    1    2    0  501  0.19786500103E+02  0.65568523414E+02 -0.39523291127E+03  0.43642796869E+03  0.17195807876E+03 0.  0.
        -24    2    5    5    0    0 -0.27355241800E+02 -0.35083459124E+01 -0.28977631739E+03  0.30175376590E+03  0.79526117501E+02 0.  0.
          5    1    3    3  502    0  0.32677293232E+02 -0.49454290472E+02  0.19971375067E+02  0.62725418780E+02  0.47000000000E+01 0. -1.
        -11    1    4    4    0    0  0.11334347704E+01 -0.50829219227E+01 -0.70628704148E+02  0.70820439276E+02  0.00000000000E+00 0.  1.
         12    1    4    4    0    0 -0.53597228106E+02 -0.11031311019E+02 -0.16739561785E+01  0.54746276702E+02  0.00000000000E+00 0. -1.
         -5    1    5    5    0  501  0.47141741903E+02  0.69076869326E+02 -0.10545659387E+03  0.13467420279E+03  0.47000000000E+01 0.  1.
         11    1    6    6    0    0  0.25280941655E+02 -0.16174827726E+02 -0.10661901695E+03  0.11076265543E+03  0.00000000000E+00 0. -1.
        -12    1    6    6    0    0 -0.52636183455E+02  0.12666481814E+02 -0.18315730045E+03  0.19099111047E+03  0.00000000000E+00 0.  1.
</event>
<event>
12    1  0.1345781E-002  0.1805413E+03  0.7818608E-02  0.1167280E+00
         -2   -1    0    0    0  501 -0.00000000000E+00  0.00000000000E+00  0.11810798393E+03  0.11810798393E+03  0.00000000000E+00 0.  1.
          2   -1    0    0  502    0  0.00000000000E+00 -0.00000000000E+00 -0.34416193108E+03  0.34416193108E+03  0.00000000000E+00 0. -1.
          6    2    1    2  502    0  0.11821710562E+02 -0.51827515684E+02 -0.21623401171E+03  0.28211977101E+03  0.17322982756E+03 0.  0.
         24    2    3    3    0    0  0.13502867931E+02 -0.11445041949E+01 -0.21675073577E+03  0.23118892626E+03  0.79270428520E+02 0.  0.
         -6    2    1    2    0  501 -0.11821710562E+02  0.51827515684E+02 -0.98199354435E+01  0.18015014399E+03  0.17184818598E+03 0.  0.
        -24    2    5    5    0    0 -0.59073227357E+02  0.57363485853E+02 -0.42270261745E+02  0.12237067980E+03  0.80047439359E+02 0.  0.
          5    1    3    3  502    0 -0.16811573690E+01 -0.50683011489E+02  0.51672405948E+00  0.50930844755E+02  0.47000000000E+01 0. -1.
        -11    1    4    4    0    0  0.25473171373E+02  0.33476414781E+02 -0.91800150542E+02  0.10097930702E+03  0.00000000000E+00 0.  1.
         12    1    4    4    0    0 -0.11970303441E+02 -0.34620918975E+02 -0.12495058522E+03  0.13020961924E+03  0.00000000000E+00 0. -1.
         -5    1    5    5    0  501  0.47251516795E+02 -0.55359701695E+01  0.32450326301E+02  0.57779464191E+02  0.47000000000E+01 0.  1.
         13    1    6    6    0    0  0.12356068491E+02  0.99509501413E+01 -0.32394929149E+02  0.36071114092E+02  0.00000000000E+00 0. -1.
        -14    1    6    6    0    0 -0.71429295848E+02  0.47412535712E+02 -0.98753325951E+01  0.86299565710E+02  0.00000000000E+00 0.  1.
</event>
<event>
12    1  0.1345781E-002  0.1734036E+03  0.7818608E-02  0.1174344E+00
         -1   -1    0    0    0  501 -0.00000000000E+00  0.00000000000E+00  0.97073939831E+02  0.97073939831E+02  0.00000000000E+00 0. -1.
          1   -1    0    0  502    0  0.00000000000E+00 -0.00000000000E+00 -0.39822834979E+03  0.39822834979E+03  0.00000000000E+00 0.  1.
          6    2    1    2  502    0 -0.21210466252E+02 -0.12020031413E+02 -0.26765967580E+03  0.31920583283E+03  0.17221003638E+03 0.  0.
         24    2    3    3    0    0  0.81499279448E+01 -0.58665898980E+02 -0.95176843256E+02  0.13806973143E+03  0.80600931858E+02 0.  0.
         -6    2    1    2    0  501  0.21210466252E+02  0.12020031413E+02 -0.33494734160E+02  0.17609645679E+03  0.17115402375E+03 0.  0.
        -24    2    5    5    0    0 -0.11072556722E+02 -0.68915365939E+01 -0.81908918070E+02  0.11472981943E+03  0.79270207639E+02 0.  0.
          5    1    3    3  502    0 -0.29360394197E+02  0.46645867567E+02 -0.17248283254E+03  0.18113610140E+03  0.47000000000E+01 0. -1.
        -11    1    4    4    0    0  0.14767162940E+02 -0.22898421667E+02 -0.97873544940E+02  0.10159546060E+03  0.00000000000E+00 0.  1.
         12    1    4    4    0    0 -0.66172349957E+01 -0.35767477313E+02  0.26967016841E+01  0.36474270826E+02  0.00000000000E+00 0. -1.
         -5    1    5    5    0  501  0.32283022974E+02  0.18911568007E+02  0.48414183910E+02  0.61366637357E+02  0.47000000000E+01 0.  1.
         11    1    6    6    0    0  0.53976972824E+00  0.36105213285E+01  0.15574722011E+02  0.15996849107E+02  0.00000000000E+00 0. -1.
        -12    1    6    6    0    0 -0.11612326450E+02 -0.10502057922E+02 -0.97483640082E+02  0.98732970328E+02  0.00000000000E+00 0.  1.
</event>
<event>
12    1  0.1345781E-002  0.2031935E+03  0.7818608E-02  0.1147072E+00
         -2   -1    0    0    0  501 -0.00000000000E+00  0.00000000000E+00  0.45680459666E+02  0.45680459666E+02  0.00000000000E+00 0.  1.
          2   -1    0    0  502    0  0.00000000000E+00 -0.00000000000E+00 -0.98898311845E+03  0.98898311845E+03  0.00000000000E+00 0. -1.
          6    2    1    2  502    0 -0.82215858318E+02  0.71319792296E+02 -0.32007833584E+03  0.37918407763E+03  0.17171040598E+03 0.  0.
         24    2    3    3    0    0 -0.14746759207E+02 -0.24730484517E+02 -0.14853306815E+03  0.17127158672E+03  0.80267180788E+02 0.  0.
         -6    2    1    2    0  501  0.82215858318E+02 -0.71319792296E+02 -0.62322432295E+03  0.65547950049E+03  0.17146095390E+03 0.  0.
        -24    2    5    5    0    0  0.90752977204E+02  0.93275076151E+01 -0.36294129543E+03  0.38281447927E+03  0.80606676776E+02 0.  0.
          5    1    3    3  502    0 -0.67469099111E+02  0.96050276813E+02 -0.17154526769E+03  0.20791249091E+03  0.47000000000E+01 0. -1.
        -13    1    4    4    0    0  0.45094566525E+01  0.27534471555E+01  0.88735468059E+01  0.10327463554E+02  0.00000000000E+00 0.  1.
         14    1    4    4    0    0 -0.19256215860E+02 -0.27483931673E+02 -0.15740661496E+03  0.16094412317E+03  0.00000000000E+00 0. -1.
         -5    1    5    5    0  501 -0.85371188860E+01 -0.80647299911E+02 -0.26028302752E+03  0.27266502122E+03  0.47000000000E+01 0.  1.
         11    1    6    6    0    0  0.24644141191E+01 -0.11089499802E+02 -0.16185151711E+03  0.16224969625E+03  0.00000000000E+00 0. -1.
        -12    1    6    6    0    0  0.88288563085E+02  0.20417007417E+02 -0.20108977832E+03  0.22056478302E+03  0.00000000000E+00 0.  1.
</event>
<event>
12    1  0.1345781E-002  0.4645683E+03  0.7818608E-02  0.1023465E+00
         -1   -1    0    0    0  501 -0.00000000000E+00  0.00000000000E+00  0.10815873401E+04  0.10815873401E+04  0.00000000000E+00 0.  1.
          1   -1    0    0  502    0  0.00000000000E+00 -0.00000000000E+00 -0.19986196095E+03  0.19986196095E+03  0.00000000000E+00 0. -1.
          6    2    1    2  502    0  0.38024589884E+03  0.20380603413E+03  0.46688492232E+03  0.65897751228E+03  0.17362600000E+03 0.  0.
         24    2    3    3    0    0  0.74958943879E+02  0.66400940931E+02  0.15947938318E+03  0.20444419117E+03  0.79597898349E+02 0.  0.
         -6    2    1    2    0  501 -0.38024589884E+03 -0.20380603413E+03  0.41484045682E+03  0.62247178876E+03  0.17103999549E+03 0.  0.
        -24    2    5    5    0    0 -0.24929235938E+03 -0.14036785810E+03  0.36047381224E+03  0.46706569584E+03  0.79744459877E+02 0.  0.
          5    1    3    3  502    0  0.30528695496E+03  0.13740509320E+03  0.30740553914E+03  0.45453332111E+03  0.47000000000E+01 0. -1.
        -13    1    4    4    0    0  0.89276202128E+02  0.65171633209E+02  0.15282515518E+03  0.18860835108E+03  0.00000000000E+00 0.  1.
         14    1    4    4    0    0 -0.14317258249E+02  0.12293077224E+01  0.66542280029E+01  0.15835840096E+02  0.00000000000E+00 0. -1.
         -5    1    5    5    0  501 -0.13095353946E+03 -0.63438176030E+02  0.54366644571E+02  0.15540609292E+03  0.47000000000E+01 0.  1.
         11    1    6    6    0    0 -0.22415479729E+03 -0.10913015268E+03  0.34119940076E+03  0.42257756028E+03  0.00000000000E+00 0. -1.
        -12    1    6    6    0    0 -0.25137562090E+02 -0.31237705415E+02  0.19274411488E+02  0.44488135560E+02  0.00000000000E+00 0.  1.
</event>
<event>
12    1  0.1345781E-002  0.2943377E+03  0.7818608E-02  0.1088106E+00
         -2   -1    0    0    0  501 -0.00000000000E+00  0.00000000000E+00  0.11773523653E+03  0.11773523653E+03  0.00000000000E+00 0.  1.
          2   -1    0    0  502    0  0.00000000000E+00 -0.00000000000E+00 -0.74792808628E+03  0.74792808628E+03  0.00000000000E+00 0. -1.
          6    2    1    2  502    0  0.15533962393E+03 -0.17998721109E+03 -0.36977680196E+03  0.47242162037E+03  0.17297834893E+03 0.  0.
         24    2    3    3    0    0  0.10926046818E+03 -0.43690678111E+02 -0.23568105856E+03  0.27568882723E+03  0.81314468781E+02 0.  0.
         -6    2    1    2    0  501 -0.15533962393E+03  0.17998721109E+03 -0.26041604779E+03  0.39324170245E+03  0.17405954061E+03 0.  0.
        -24    2    5    5    0    0 -0.15460918027E+03  0.16353054502E+03 -0.15130499032E+03  0.28279412090E+03  0.80206464486E+02 0.  0.
          5    1    3    3  502    0  0.46079155744E+02 -0.13629653298E+03 -0.13409574341E+03  0.19673279314E+03  0.47000000000E+01 0. -1.
        -11    1    4    4    0    0  0.89016513617E+02 -0.36720941428E+02 -0.10187853024E+03  0.14018417229E+03  0.00000000000E+00 0.  1.
         12    1    4    4    0    0  0.20243954564E+02 -0.69697366836E+01 -0.13380252832E+03  0.13550465494E+03  0.00000000000E+00 0. -1.
         -5    1    5    5    0  501 -0.73044365556E+00  0.16456666078E+02 -0.10911105747E+03  0.11044758154E+03  0.47000000000E+01 0.  1.
         11    1    6    6    0    0 -0.46315500755E+02  0.88763769948E+02 -0.10012710212E+03  0.14159650082E+03  0.00000000000E+00 0. -1.
        -12    1    6    6    0    0 -0.10829367951E+03  0.74766775067E+02 -0.51177888202E+02  0.14119762008E+03  0.00000000000E+00 0.  1.
</event>
<event>
12    1  0.1345781E-002  0.1818870E+03  0.7818608E-02  0.1165989E+00
          2   -1    0    0  502    0  0.00000000000E+00  0.00000000000E+00  0.48129796642E+02  0.48129796642E+02  0.00000000000E+00 0.  1.
         -2   -1    0    0    0  501 -0.00000000000E+00 -0.00000000000E+00 -0.70393254815E+03  0.70393254815E+03  0.00000000000E+00 0. -1.
          6    2    1    2  502    0  0.59260082855E+02  0.82977919519E+01 -0.26937169707E+03  0.32475787937E+03  0.17124823578E+03 0.  0.
         24    2    3    3    0    0 -0.20326318872E+02  0.66056830325E-01 -0.21075829782E+03  0.22546348187E+03  0.77469722825E+02 0.  0.
         -6    2    1    2    0  501 -0.59260082855E+02 -0.82977919519E+01 -0.38643105444E+03  0.42730446542E+03  0.17227749581E+03 0.  0.
        -24    2    5    5    0    0 -0.27770048645E+02 -0.24308990073E+01 -0.38568699116E+03  0.39492103883E+03  0.80194057688E+02 0.  0.
          5    1    3    3  502    0  0.79586401727E+02  0.82317351215E+01 -0.58613399247E+02  0.99294397497E+02  0.47000000000E+01 0. -1.
        -11    1    4    4    0    0 -0.14326579362E+02 -0.37784923367E+02 -0.12874654158E+03  0.13493933184E+03  0.00000000000E+00 0.  1.
         12    1    4    4    0    0 -0.59997395105E+01  0.37850980198E+02 -0.82011756246E+02  0.90524150030E+02  0.00000000000E+00 0. -1.
         -5    1    5    5    0  501 -0.31490034210E+02 -0.58668929446E+01 -0.74406327283E+00  0.32383426587E+02  0.47000000000E+01 0.  1.
         13    1    6    6    0    0 -0.63360299207E+01 -0.20807617087E+02 -0.25028447113E+02  0.33159091798E+02  0.00000000000E+00 0. -1.
        -14    1    6    6    0    0 -0.21434018724E+02  0.18376718079E+02 -0.36065854405E+03  0.36176194703E+03  0.00000000000E+00 0.  1.
</event>
<event>
12    1  0.1345781E-002  0.1858866E+03  0.7818608E-02  0.1162225E+00
         -2   -1    0    0    0  501 -0.00000000000E+00  0.00000000000E+00  0.18105307035E+03  0.18105307035E+03  0.00000000000E+00 0.  1.
          2   -1    0    0  502    0  0.00000000000E+00 -0.00000000000E+00 -0.19573682871E+03  0.19573682871E+03  0.00000000000E+00 0. -1.
          6    2    1    2  502    0  0.74349236825E+02  0.18995302614E+02  0.22218087242E+02  0.18975866298E+03  0.17212227119E+03 0.  0.
         24    2    3    3    0    0  0.10981752144E+03  0.41222175965E+02  0.34384036344E+02  0.14591652081E+03  0.79688225495E+02 0.  0.
         -6    2    1    2    0  501 -0.74349236825E+02 -0.18995302614E+02 -0.36901845601E+02  0.18703123608E+03  0.16652419200E+03 0.  0.
        -24    2    5    5    0    0  0.29831457679E+01 -0.15921205223E+02  0.26351389388E+02  0.86967210532E+02  0.81280477673E+02 0.  0.
          5    1    3    3  502    0 -0.35468284619E+02 -0.22226873351E+02 -0.12165949102E+02  0.43842142173E+02  0.47000000000E+01 0. -1.
        -11    1    4    4    0    0  0.42664277099E+02 -0.13560199474E+02  0.38655811663E+02  0.59147200487E+02  0.00000000000E+00 0.  1.
         12    1    4    4    0    0  0.67153244345E+02  0.54782375439E+02 -0.42717753194E+01  0.86769320322E+02  0.00000000000E+00 0. -1.
         -5    1    5    5    0  501 -0.77332382593E+02 -0.30740973908E+01 -0.63253234988E+02  0.10006402555E+03  0.47000000000E+01 0.  1.
         13    1    6    6    0    0 -0.10887423187E+01  0.31636127406E+02 -0.15253816460E+01  0.31691587310E+02  0.00000000000E+00 0. -1.
        -14    1    6    6    0    0  0.40718880867E+01 -0.47557332629E+02  0.27876771034E+02  0.55275623222E+02  0.00000000000E+00 0.  1.
</event>
<event>
12    1  0.1345781E-002  0.2022901E+03  0.7818608E-02  0.1147821E+00
         -1   -1    0    0    0  501 -0.00000000000E+00  0.00000000000E+00  0.10141002913E+03  0.10141002913E+03  0.00000000000E+00 0.  1.
          1   -1    0    0  502    0  0.00000000000E+00 -0.00000000000E+00 -0.51141089520E+03  0.51141089520E+03  0.00000000000E+00 0. -1.
          6    2    1    2  502    0 -0.98463659807E+02  0.40448289109E+02 -0.64369645035E+02  0.21240960011E+03  0.17217209594E+03 0.  0.
         24    2    3    3    0    0 -0.10785833669E+03  0.57436635313E+02 -0.96509491368E-01  0.14510440110E+03  0.78248897977E+02 0.  0.
         -6    2    1    2    0  501  0.98463659807E+02 -0.40448289109E+02 -0.34563122104E+03  0.40041132422E+03  0.17186369952E+03 0.  0.
        -24    2    5    5    0    0  0.52652840254E+02  0.51432204627E+00 -0.67527295073E+02  0.11555969558E+03  0.77598463570E+02 0.  0.
          5    1    3    3  502    0  0.93946768865E+01 -0.16988346204E+02 -0.64273135544E+02  0.67305199005E+02  0.47000000000E+01 0. -1.
        -11    1    4    4    0    0 -0.10799754635E+03  0.22691145947E+02  0.32494486920E+00  0.11035607691E+03  0.00000000000E+00 0.  1.
         12    1    4    4    0    0  0.13920965129E+00  0.34745489367E+02 -0.42145436057E+00  0.34748324196E+02  0.00000000000E+00 0. -1.
         -5    1    5    5    0  501  0.45810819553E+02 -0.40962611155E+02 -0.27810392597E+03  0.28485162864E+03  0.47000000000E+01 0.  1.
         11    1    6    6    0    0  0.65196621729E+02  0.65505698687E+01 -0.75137014599E+02  0.99694936749E+02  0.00000000000E+00 0. -1.
        -12    1    6    6    0    0 -0.12543781475E+02 -0.60362478225E+01  0.76097195264E+01  0.15864758830E+02  0.00000000000E+00 0.  1.
</event>
<event>
12    1  0.1345781E-002  0.2230491E+03  0.7818608E-02  0.1131630E+00
         -1   -1    0    0    0  501 -0.00000000000E+00  0.00000000000E+00  0.14870491568E+03  0.14870491568E+03  0.00000000000E+00 0.  1.
          1   -1    0    0  502    0  0.00000000000E+00 -0.00000000000E+00 -0.60496512557E+03  0.60496512557E+03  0.00000000000E+00 0. -1.
          6    2    1    2  502    0 -0.10402904128E+03  0.85276299228E+02 -0.48250567093E+03  0.53347635933E+03  0.18355166804E+03 0.  0.
         24    2    3    3    0    0 -0.82401650190E+02  0.11859401490E+03 -0.26241679261E+03  0.30978233038E+03  0.79043955179E+02 0.  0.
         -6    2    1    2    0  501  0.10402904128E+03 -0.85276299228E+02  0.26245461038E+02  0.22019368192E+03  0.17234368191E+03 0.  0.
        -24    2    5    5    0    0  0.12205189276E+03 -0.52703327773E+02 -0.22922825088E+02  0.15834360508E+03  0.82903172890E+02 0.  0.
          5    1    3    3  502    0 -0.21627391086E+02 -0.33317715674E+02 -0.22008887833E+03  0.22369402895E+03  0.47000000000E+01 0. -1.
        -13    1    4    4    0    0 -0.38619605617E+02  0.12599260363E+01 -0.49931028322E+02  0.63136114395E+02  0.00000000000E+00 0.  1.
         14    1    4    4    0    0 -0.43782044573E+02  0.11733408887E+03 -0.21248576429E+03  0.24664621599E+03  0.00000000000E+00 0. -1.
         -5    1    5    5    0  501 -0.18022851481E+02 -0.32572971456E+02  0.49168286126E+02  0.61850076843E+02  0.47000000000E+01 0.  1.
         13    1    6    6    0    0  0.49905086142E+02 -0.60093599423E+01 -0.47292784068E+02  0.69016211535E+02  0.00000000000E+00 0. -1.
        -14    1    6    6    0    0  0.72146806615E+02 -0.46693967830E+02  0.24369958980E+02  0.89327393543E+02  0.00000000000E+00 0.  1.
</event>
<event>
12    1  0.1345781E-002  0.1783359E+03  0.7818608E-02  0.1169423E+00
         -1   -1    0    0    0  501 -0.00000000000E+00  0.00000000000E+00  0.80963075235E+02  0.80963075235E+02  0.00000000000E+00 0.  1.
          1   -1    0    0  502    0  0.00000000000E+00 -0.00000000000E+00 -0.40130671337E+03  0.40130671337E+03  0.00000000000E+00 0. -1.
          6    2    1    2  502    0  0.35228666496E+02  0.31166339480E+02 -0.12371216396E+03  0.21568956880E+03  0.17030822328E+03 0.  0.
         24    2    3    3    0    0  0.65284841862E+02  0.37903123018E+01 -0.13846796245E+03  0.17218503880E+03  0.78726322909E+02 0.  0.
         -6    2    1    2    0  501 -0.35228666496E+02 -0.31166339480E+02 -0.19663147417E+03  0.26658021981E+03  0.17374889150E+03 0.  0.
        -24    2    5    5    0    0  0.26437988862E+02  0.18760534725E+02 -0.15232761304E+03  0.17558356458E+03  0.81086136540E+02 0.  0.
          5    1    3    3  502    0 -0.30056175365E+02  0.27376027178E+02  0.14755798481E+02  0.43504529999E+02  0.47000000000E+01 0. -1.
        -13    1    4    4    0    0  0.35385823612E+02  0.40698223474E+02 -0.85007606997E+02  0.10067171973E+03  0.00000000000E+00 0.  1.
         14    1    4    4    0    0  0.29899018250E+02 -0.36907911172E+02 -0.53460355449E+02  0.71513319068E+02  0.00000000000E+00 0. -1.
         -5    1    5    5    0  501 -0.61666655358E+02 -0.49926874204E+02 -0.44303861134E+02  0.90996655225E+02  0.47000000000E+01 0.  1.
         11    1    6    6    0    0  0.35529514967E+01  0.46513469605E+01 -0.14828032330E+03  0.14839579769E+03  0.00000000000E+00 0. -1.
        -12    1    6    6    0    0  0.22885037365E+02  0.14109187764E+02 -0.40472897390E+01  0.27187766896E+02  0.00000000000E+00 0.  1.
</event>
<event>
12    1  0.1345781E-002  0.2096770E+03  0.7818608E-02  0.1141822E+00
          1   -1    0    0  502    0  0.00000000000E+00  0.00000000000E+00  0.95278016075E+03  0.95278016075E+03  0.00000000000E+00 0.  1.
         -1   -1    0    0    0  501 -0.00000000000E+00 -0.00000000000E+00 -0.46971700389E+02  0.46971700389E+02  0.00000000000E+00 0. -1.
          6    2    1    2  502    0  0.84027033130E+02 -0.88102819506E+02  0.51335121719E+03  0.55352912267E+03  0.16745855711E+03 0.  0.
         24    2    3    3    0    0  0.10209657306E+03 -0.11544424649E+03  0.40990135001E+03  0.44491039996E+03  0.78581568919E+02 0.  0.
         -6    2    1    2    0  501 -0.84027033130E+02  0.88102819506E+02  0.39245724317E+03  0.44622273847E+03  0.17398102054E+03 0.  0.
        -24    2    5    5    0    0 -0.19517496456E+02  0.10887592124E+03  0.20125098863E+03  0.24330668722E+03  0.80382116977E+02 0.  0.
          5    1    3    3  502    0 -0.18069539932E+02  0.27341426989E+02  0.10344986718E+03  0.10861872271E+03  0.47000000000E+01 0. -1.
        -13    1    4    4    0    0  0.50432696489E+02 -0.11002529907E+03  0.28912668358E+03  0.31343781276E+03  0.00000000000E+00 0.  1.
         14    1    4    4    0    0  0.51663876573E+02 -0.54189474250E+01  0.12077466642E+03  0.13147258719E+03  0.00000000000E+00 0. -1.
         -5    1    5    5    0  501 -0.64509536673E+02 -0.20773101734E+02  0.19120625454E+03  0.20291605124E+03  0.47000000000E+01 0.  1.
         11    1    6    6    0    0 -0.18347706514E+02  0.73770930588E+02  0.57469491760E+02  0.95297067202E+02  0.00000000000E+00 0. -1.
        -12    1    6    6    0    0 -0.11697899422E+01  0.35104990652E+02  0.14378149687E+03  0.14800962002E+03  0.00000000000E+00 0.  1.
</event>
<event>
12    1  0.1345781E-002  0.1776374E+03  0.7818608E-02  0.1170109E+00
          4   -1    0    0  502    0  0.00000000000E+00  0.00000000000E+00  0.63491951756E+03  0.63491951756E+03  0.00000000000E+00 0.  1.
         -4   -1    0    0    0  501 -0.00000000000E+00 -0.00000000000E+00 -0.64130289133E+02  0.64130289133E+02  0.00000000000E+00 0. -1.
          6    2    1    2  502    0  0.47839358335E+02  0.14818483786E+02  0.12116393488E+03  0.21606216986E+03  0.17173808681E+03 0.  0.
         24    2    3    3    0    0 -0.21518210053E+02 -0.35154189542E+02  0.79159720972E+02  0.12069873684E+03  0.81259296351E+02 0.  0.
         -6    2    1    2    0  501 -0.47839358335E+02 -0.14818483786E+02  0.44962529355E+03  0.48298763683E+03  0.16913296860E+03 0.  0.
        -24    2    5    5    0    0  0.29252908774E+02 -0.38185358642E+02  0.19386269502E+03  0.21479773155E+03  0.79002953573E+02 0.  0.
          5    1    3    3  502    0  0.69357568388E+02  0.49972673328E+02  0.42004213907E+02  0.95363433024E+02  0.47000000000E+01 0. -1.
        -13    1    4    4    0    0 -0.19596660717E+02  0.21806545075E+02  0.97689215542E+01  0.30902853391E+02  0.00000000000E+00 0.  1.
         14    1    4    4    0    0 -0.19215493362E+01 -0.56960734617E+02  0.69390799418E+02  0.89795883446E+02  0.00000000000E+00 0. -1.
         -5    1    5    5    0  501 -0.77092267109E+02  0.23366874856E+02  0.25576259853E+03  0.26818990528E+03  0.47000000000E+01 0.  1.
         13    1    6    6    0    0  0.36549474244E+02  0.11544322649E+02  0.11556722304E+03  0.12175762192E+03  0.00000000000E+00 0. -1.
        -14    1    6    6    0    0 -0.72965654697E+01 -0.49729681291E+02  0.78295471978E+02  0.93040109636E+02  0.00000000000E+00 0.  1.
</event>
<event>
12    1  0.1345781E-002  0.2615241E+03  0.7818608E-02  0.1106231E+00
         -1   -1    0    0    0  501 -0.00000000000E+00  0.00000000000E+00  0.58491951857E+02  0.58491951857E+02  0.00000000000E+00 0. -1.
          1   -1    0    0  502    0  0.00000000000E+00 -0.00000000000E+00 -0.15821564163E+04  0.15821564163E+04  0.00000000000E+00 0.  1.
          6    2    1    2  502    0  0.22198175136E+02 -0.19729108504E+03 -0.11791600208E+04  0.12076421400E+04  0.16901080515E+03 0.  0.
         24    2    3    3    0    0  0.47389671525E+02 -0.47869384501E+02 -0.59993516196E+03  0.60890598503E+03  0.79416881770E+02 0.  0.
         -6    2    1    2    0  501 -0.22198175136E+02  0.19729108504E+03 -0.34450444357E+03  0.43300622816E+03  0.17144839097E+03 0.  0.
        -24    2    5    5    0    0 -0.41422633477E+02  0.17169859742E+03 -0.18064589936E+03  0.26598446990E+03  0.83177847723E+02 0.  0.
          5    1    3    3  502    0 -0.25191496389E+02 -0.14942170054E+03 -0.57922485888E+03  0.59873615494E+03  0.47000000000E+01 0. -1.
        -11    1    4    4    0    0  0.68944814793E+02 -0.26831193609E+02 -0.41921988796E+03  0.42569779762E+03  0.00000000000E+00 0.  1.
         12    1    4    4    0    0 -0.21555143268E+02 -0.21038190892E+02 -0.18071527400E+03  0.18320818742E+03  0.00000000000E+00 0. -1.
         -5    1    5    5    0  501  0.19224458341E+02  0.25592487620E+02 -0.16385854421E+03  0.16702175826E+03  0.47000000000E+01 0.  1.
         11    1    6    6    0    0 -0.99402851406E+01  0.77488121707E+02 -0.26287568380E+02  0.82427268096E+02  0.00000000000E+00 0. -1.
        -12    1    6    6    0    0 -0.31482348336E+02  0.94210475714E+02 -0.15435833098E+03  0.18355720181E+03  0.00000000000E+00 0.  1.
</event>
<event>
12    1  0.1345781E-002  0.2761191E+03  0.7818608E-02  0.1097828E+00
         -2   -1    0    0    0  501 -0.00000000000E+00  0.00000000000E+00  0.11597594414E+03  0.11597594414E+03  0.00000000000E+00 0. -1.
          2   -1    0    0  502    0  0.00000000000E+00 -0.00000000000E+00 -0.73021930605E+03  0.73021930605E+03  0.00000000000E+00 0.  1.
          6    2    1    2  502    0  0.17306240362E+03  0.12864337118E+03 -0.44074980986E+03  0.52010475473E+03  0.17247854506E+03 0.  0.
         24    2    3    3    0    0  0.11761998436E+03  0.90052057676E+02 -0.41230453777E+03  0.44665834682E+03  0.86975934056E+02 0.  0.
         -6    2    1    2    0  501 -0.17306240362E+03 -0.12864337118E+03 -0.17349355205E+03  0.32609049546E+03  0.17243922448E+03 0.  0.
        -24    2    5    5    0    0 -0.75319680926E+02 -0.21839892869E+02 -0.17958364292E+02  0.11354895259E+03  0.80130060097E+02 0.  0.
          5    1    3    3  502    0  0.55442419255E+02  0.38591313499E+02 -0.28445272090E+02  0.73446407909E+02  0.47000000000E+01 0. -1.
        -13    1    4    4    0    0 -0.22827031658E+01 -0.94162056652E+01 -0.68773121796E+02  0.69452270981E+02  0.00000000000E+00 0.  1.
         14    1    4    4    0    0  0.11990268753E+03  0.99468263341E+02 -0.34353141598E+03  0.37720607584E+03  0.00000000000E+00 0. -1.
         -5    1    5    5    0  501 -0.97742722690E+02 -0.10680347831E+03 -0.15553518775E+03  0.21254154287E+03  0.47000000000E+01 0.  1.
         11    1    6    6    0    0 -0.82762131304E+02 -0.39867787551E+02 -0.19749889235E+02  0.93963125677E+02  0.00000000000E+00 0. -1.
        -12    1    6    6    0    0  0.74424503782E+01  0.18027894682E+02  0.17915249434E+01  0.19585826914E+02  0.00000000000E+00 0.  1.
</event>
<event>
12    1  0.1345781E-002  0.2024650E+03  0.7818608E-02  0.1147676E+00
          2   -1    0    0  502    0  0.00000000000E+00  0.00000000000E+00  0.78554518892E+03  0.78554518892E+03  0.00000000000E+00 0. -1.
         -2   -1    0    0    0  501 -0.00000000000E+00 -0.00000000000E+00 -0.54115572946E+02  0.54115572946E+02  0.00000000000E+00 0.  1.
          6    2    1    2  502    0  0.11055039350E+03  0.18496997200E+02  0.28939774857E+03  0.35416575821E+03  0.17064231305E+03 0.  0.
         24    2    3    3    0    0  0.14874561655E+02  0.51482591609E+02  0.98659017858E+02  0.13819060309E+03  0.80568797642E+02 0.  0.
         -6    2    1    2    0  501 -0.11055039350E+03 -0.18496997200E+02  0.44203186740E+03  0.48549500365E+03  0.16658240713E+03 0.  0.
        -24    2    5    5    0    0  0.40366575788E+00 -0.25986965117E+02  0.13636403118E+03  0.16019234613E+03  0.79943439125E+02 0.  0.
          5    1    3    3  502    0  0.95675831846E+02 -0.32985594409E+02  0.19073873071E+03  0.21597515513E+03  0.47000000000E+01 0. -1.
        -11    1    4    4    0    0  0.14847741900E+02  0.41314136504E+02  0.52319919874E+01  0.44211842925E+02  0.00000000000E+00 0.  1.
         12    1    4    4    0    0  0.26819755090E-01  0.10168455105E+02  0.93427025871E+02  0.93978760162E+02  0.00000000000E+00 0. -1.
         -5    1    5    5    0  501 -0.11095405926E+03  0.74899679168E+01  0.30566783623E+03  0.32530265752E+03  0.47000000000E+01 0.  1.
         13    1    6    6    0    0 -0.24344511051E+02  0.33267710467E+01  0.11218646203E+03  0.11484565681E+03  0.00000000000E+00 0. -1.
        -14    1    6    6    0    0  0.24748176808E+02 -0.29313736164E+02  0.24177569142E+02  0.45346689326E+02  0.00000000000E+00 0.  1.
</event>
<event>
12    1  0.1345781E-002  0.2177625E+03  0.7818608E-02  0.1135562E+00
         -2   -1    0    0    0  501 -0.00000000000E+00  0.00000000000E+00  0.17556904241E+03  0.17556904241E+03  0.00000000000E+00 0.  1.
          2   -1    0    0  502    0  0.00000000000E+00 -0.00000000000E+00 -0.47858159095E+03  0.47858159095E+03  0.00000000000E+00 0. -1.
          6    2    1    2  502    0  0.11283013514E+03  0.65546924429E+02  0.63643448537E+02  0.22862535617E+03  0.17661264464E+03 0.  0.
         24    2    3    3    0    0  0.69012290966E+01  0.13587213829E+01  0.67887944882E+02  0.10460453415E+03  0.79270816937E+02 0.  0.
         -6    2    1    2    0  501 -0.11283013514E+03 -0.65546924429E+02 -0.36665599708E+03  0.42552527719E+03  0.17207005153E+03 0.  0.
        -24    2    5    5    0    0 -0.12459168489E+03 -0.19051770992E+02 -0.18377512140E+03  0.23640193639E+03  0.78908316176E+02 0.  0.
          5    1    3    3  502    0  0.10592890604E+03  0.64188203046E+02 -0.42444963450E+01  0.12402082202E+03  0.47000000000E+01 0. -1.
        -11    1    4    4    0    0 -0.31151139988E+02  0.19035149502E+02  0.22935702729E+02  0.43113534984E+02  0.00000000000E+00 0.  1.
         12    1    4    4    0    0  0.38052369085E+02 -0.17676428119E+02  0.44952242154E+02  0.61490999168E+02  0.00000000000E+00 0. -1.
         -5    1    5    5    0  501  0.11761549748E+02 -0.46495153437E+02 -0.18288087568E+03  0.18912334080E+03  0.47000000000E+01 0.  1.
         11    1    6    6    0    0 -0.90985150355E+02  0.12420550012E+02 -0.75985145728E+02  0.11919022619E+03  0.00000000000E+00 0. -1.
        -12    1    6    6    0    0 -0.33606534533E+02 -0.31472321004E+02 -0.10778997567E+03  0.11721171020E+03  0.00000000000E+00 0.  1.
</event>
<event>
12    1  0.1345781E-002  0.2543271E+03  0.7818608E-02  0.1110600E+00
         -4   -1    0    0    0  501 -0.00000000000E+00  0.00000000000E+00  0.12021376214E+03  0.12021376214E+03  0.00000000000E+00 0. -1.
          4   -1    0    0  502    0  0.00000000000E+00 -0.00000000000E+00 -0.10481294599E+04  0.10481294599E+04  0.00000000000E+00 0.  1.
          6    2    1    2  502    0 -0.11934665500E+03 -0.14437143038E+03 -0.87125392518E+03  0.90754894075E+03  0.17168268330E+03 0.  0.
         24    2    3    3    0    0 -0.14961159335E+03 -0.96586243912E+02 -0.72354832408E+03  0.74931359345E+03  0.78969314762E+02 0.  0.
         -6    2    1    2    0  501  0.11934665500E+03  0.14437143038E+03 -0.56661772599E+02  0.26079428132E+03  0.17238435754E+03 0.  0.
        -24    2    5    5    0    0  0.66793239495E+02  0.15850672950E+03 -0.73149939183E+02  0.20373625997E+03  0.81066823577E+02 0.  0.
          5    1    3    3  502    0  0.30264938346E+02 -0.47785186468E+02 -0.14770560110E+03  0.15823534730E+03  0.47000000000E+01 0. -1.
        -11    1    4    4    0    0 -0.10452538420E+03 -0.89987823457E+02 -0.41255936007E+03  0.43500412630E+03  0.00000000000E+00 0.  1.
         12    1    4    4    0    0 -0.45086209151E+02 -0.65984204555E+01 -0.31098896400E+03  0.31430946715E+03  0.00000000000E+00 0. -1.
         -5    1    5    5    0  501  0.52553415505E+02 -0.14135299124E+02  0.16488166584E+02  0.57058021346E+02  0.47000000000E+01 0.  1.
         11    1    6    6    0    0  0.14057319117E+02  0.45202625273E+02  0.16280093364E+02  0.50059234835E+02  0.00000000000E+00 0. -1.
        -12    1    6    6    0    0  0.52735920378E+02  0.11330410423E+03 -0.89430032547E+02  0.15367702514E+03  0.00000000000E+00 0.  1.
</event>
<event>
12    1  0.1345781E-002  0.1753435E+03  0.7818608E-02  0.1172387E+00
         -2   -1    0    0    0  501 -0.00000000000E+00  0.00000000000E+00  0.16122163007E+03  0.16122163007E+03  0.00000000000E+00 0. -1.
          2   -1    0    0  502    0  0.00000000000E+00 -0.00000000000E+00 -0.28822112930E+03  0.28822112930E+03  0.00000000000E+00 0.  1.
          6    2    1    2  502    0  0.23433859408E+02  0.35655339812E+02  0.67535907641E+02  0.18661593574E+03  0.16865337123E+03 0.  0.
         24    2    3    3    0    0  0.48713446941E+02  0.34788388663E+02 -0.14131059255E+02  0.10099238388E+03  0.80103326201E+02 0.  0.
         -6    2    1    2    0  501 -0.23433859408E+02 -0.35655339812E+02 -0.19453540687E+03  0.26282682363E+03  0.17150354419E+03 0.  0.
        -24    2    5    5    0    0  0.27610957163E+02 -0.49934937300E+02 -0.54643202739E+02  0.11315585457E+03  0.81009288967E+02 0.  0.
          5    1    3    3  502    0 -0.25279587532E+02  0.86695114879E+00  0.81666966896E+02  0.85623551854E+02  0.47000000000E+01 0. -1.
        -13    1    4    4    0    0  0.77072596669E+01 -0.22113092056E+02 -0.19744290970E+02  0.30630503061E+02  0.00000000000E+00 0.  1.
         14    1    4    4    0    0  0.41006187274E+02  0.56901480719E+02  0.56132317150E+01  0.70361880824E+02  0.00000000000E+00 0. -1.
         -5    1    5    5    0  501 -0.51044816571E+02  0.14279597488E+02 -0.13989220413E+03  0.14967096906E+03  0.47000000000E+01 0.  1.
         11    1    6    6    0    0  0.24145508049E+02  0.17372666739E+02 -0.68252859787E+01  0.30518840693E+02  0.00000000000E+00 0. -1.
        -12    1    6    6    0    0  0.34654491140E+01 -0.67307604039E+02 -0.47817916761E+02  0.82637013876E+02  0.00000000000E+00 0.  1.
</event>
<event>
12    1  0.1345781E-002  0.1798797E+03  0.7818608E-02  0.1167919E+00
         -2   -1    0    0    0  501 -0.00000000000E+00  0.00000000000E+00  0.49206199282E+02  0.49206199282E+02  0.00000000000E+00 0.  1.
          2   -1    0    0  502    0  0.00000000000E+00 -0.00000000000E+00 -0.97678930524E+03  0.97678930524E+03  0.00000000000E+00 0. -1.
          6    2    1    2  502    0  0.38418170726E+02 -0.32770359391E+02 -0.75831137218E+03  0.77952283134E+03  0.17340661784E+03 0.  0.
         24    2    3    3    0    0 -0.32051087921E+01 -0.66210736568E+02 -0.29296959608E+03  0.31110441282E+03  0.80997759794E+02 0.  0.
         -6    2    1    2    0  501 -0.38418170726E+02  0.32770359391E+02 -0.16927173377E+03  0.24647267317E+03  0.17188951821E+03 0.  0.
        -24    2    5    5    0    0 -0.47862498960E+02  0.21865635118E+02 -0.19473543060E+03  0.21683151592E+03  0.79530456791E+02 0.  0.
          5    1    3    3  502    0  0.41623279519E+02  0.33440377178E+02 -0.46534177611E+03  0.46841841852E+03  0.47000000000E+01 0. -1.
        -11    1    4    4    0    0  0.31972820591E+02 -0.68571547688E+01 -0.62618942824E+02  0.70642861129E+02  0.00000000000E+00 0.  1.
         12    1    4    4    0    0 -0.35177929383E+02 -0.59353581800E+02 -0.23035065325E+03  0.24046155169E+03  0.00000000000E+00 0. -1.
         -5    1    5    5    0  501  0.94443282337E+01  0.10904724272E+02  0.25463696830E+02  0.29641157256E+02  0.47000000000E+01 0.  1.
         13    1    6    6    0    0  0.10898881254E+02  0.59995686644E+00 -0.11504239258E+03  0.11555906564E+03  0.00000000000E+00 0. -1.
        -14    1    6    6    0    0 -0.58761380214E+02  0.21265678252E+02 -0.79693038023E+02  0.10127245028E+03  0.00000000000E+00 0.  1.
</event>
<event>
12    1  0.1345781E-002  0.1770897E+03  0.7818608E-02  0.1170650E+00
          2   -1    0    0  502    0  0.00000000000E+00  0.00000000000E+00  0.17080780679E+03  0.17080780679E+03  0.00000000000E+00 0.  1.
         -2   -1    0    0    0  501 -0.00000000000E+00 -0.00000000000E+00 -0.18834216022E+03  0.18834216022E+03  0.00000000000E+00 0. -1.
          6    2    1    2  502    0  0.41067928205E+02 -0.23821207527E+01 -0.37230593678E+02  0.18055610161E+03  0.17182007885E+03 0.  0.
         24    2    3    3    0    0 -0.41617271531E+02 -0.70532217048E+01 -0.35147172850E+02  0.97579646626E+02  0.80651834760E+02 0.  0.
         -6    2    1    2    0  501 -0.41067928205E+02  0.23821207527E+01  0.19696240246E+02  0.17859386539E+03  0.17267187857E+03 0.  0.
        -24    2    5    5    0    0 -0.31866508209E+02  0.40242815451E+02 -0.41888448153E+02  0.10556741691E+03  0.82188070202E+02 0.  0.
          5    1    3    3  502    0  0.82685199736E+02  0.46711009521E+01 -0.20834208278E+01  0.82976454985E+02  0.47000000000E+01 0. -1.
        -13    1    4    4    0    0  0.91617189474E+01  0.27439204283E+02 -0.56518110711E+01  0.29475243750E+02  0.00000000000E+00 0.  1.
         14    1    4    4    0    0 -0.50778990478E+02 -0.34492425988E+02 -0.29495361779E+02  0.68104402875E+02  0.00000000000E+00 0. -1.
         -5    1    5    5    0  501 -0.92014199961E+01 -0.37860694698E+02  0.61584688399E+02  0.73026448484E+02  0.47000000000E+01 0.  1.
         13    1    6    6    0    0 -0.49774939074E+01  0.16339350900E+02  0.24612126874E+02  0.29958414890E+02  0.00000000000E+00 0. -1.
        -14    1    6    6    0    0 -0.26889014301E+02  0.23903464550E+02 -0.66500575027E+02  0.75609002020E+02  0.00000000000E+00 0.  1.
</event>
<event>
12    1  0.1345781E-002  0.3053117E+03  0.7818608E-02  0.1082615E+00
         -2   -1    0    0    0  501 -0.00000000000E+00  0.00000000000E+00  0.72149647193E+02  0.72149647193E+02  0.00000000000E+00 0.  1.
          2   -1    0    0  502    0  0.00000000000E+00 -0.00000000000E+00 -0.16236209359E+04  0.16236209359E+04  0.00000000000E+00 0. -1.
          6    2    1    2  502    0 -0.10052565412E+03 -0.23071168059E+03 -0.39951906016E+03  0.50490770886E+03  0.17883799465E+03 0.  0.
         24    2    3    3    0    0 -0.57568119859E+02 -0.49089657558E+02 -0.84574682440E+02  0.13878756456E+03  0.79907623311E+02 0.  0.
         -6    2    1    2    0  501  0.10052565412E+03  0.23071168059E+03 -0.11519522285E+04  0.11908628742E+04  0.16681475262E+03 0.  0.
        -24    2    5    5    0    0  0.75650114506E+02  0.24716383414E+03 -0.99417324710E+03  0.10302211523E+04  0.78500170432E+02 0.  0.
          5    1    3    3  502    0 -0.42957534262E+02 -0.18162202303E+03 -0.31494437772E+03  0.36612014430E+03  0.47000000000E+01 0. -1.
        -11    1    4    4    0    0 -0.41499449781E+02 -0.62756812583E+02 -0.31299319241E+02  0.81487847208E+02  0.00000000000E+00 0.  1.
         12    1    4    4    0    0 -0.16068670078E+02  0.13667155025E+02 -0.53275363199E+02  0.57299717351E+02  0.00000000000E+00 0. -1.
         -5    1    5    5    0  501  0.24875539615E+02 -0.16452153547E+02 -0.15777898143E+03  0.16064172188E+03  0.47000000000E+01 0.  1.
         11    1    6    6    0    0  0.70358816216E+02  0.12790909486E+03 -0.64122955053E+03  0.65763700933E+03  0.00000000000E+00 0. -1.
        -12    1    6    6    0    0  0.52912982900E+01  0.11925473927E+03 -0.35294369657E+03  0.37258414301E+03  0.00000000000E+00 0.  1.
</event>
<event>
12    1  0.1345781E-002  0.1834709E+03  0.7818608E-02  0.1164486E+00
         -2   -1    0    0    0  501 -0.00000000000E+00  0.00000000000E+00  0.12451182527E+03  0.12451182527E+03  0.00000000000E+00 0. -1.
          2   -1    0    0  502    0  0.00000000000E+00 -0.00000000000E+00 -0.45875697418E+03  0.45875697418E+03  0.00000000000E+00 0.  1.
          6    2    1    2  502    0 -0.64895297040E+02 -0.39005518209E+01 -0.35385591346E+03  0.39845405021E+03  0.17124546345E+03 0.  0.
         24    2    3    3    0    0 -0.36563828102E+02 -0.46667439307E+02 -0.32389920097E+03  0.33886232746E+03  0.80013881052E+02 0.  0.
         -6    2    1    2    0  501  0.64895297040E+02  0.39005518209E+01  0.19610764547E+02  0.18481474924E+03  0.17188745029E+03 0.  0.
        -24    2    5    5    0    0  0.14005402157E+02  0.43563523065E+02  0.59137159693E+02  0.10900341366E+03  0.79313357652E+02 0.  0.
          5    1    3    3  502    0 -0.28331468938E+02  0.42766887486E+02 -0.29956712491E+02  0.59591722753E+02  0.47000000000E+01 0. -1.
        -13    1    4    4    0    0 -0.21771368488E+02  0.19028663819E+02 -0.14161994364E+03  0.14454165825E+03  0.00000000000E+00 0.  1.
         14    1    4    4    0    0 -0.14792459614E+02 -0.65696103126E+02 -0.18227925733E+03  0.19432066921E+03  0.00000000000E+00 0. -1.
         -5    1    5    5    0  501  0.50889894883E+02 -0.39662971244E+02 -0.39526395146E+02  0.75811335580E+02  0.47000000000E+01 0.  1.
         13    1    6    6    0    0  0.38388533683E+02  0.34455546037E+02  0.64334555998E+02  0.82460895378E+02  0.00000000000E+00 0. -1.
        -14    1    6    6    0    0 -0.24383131525E+02  0.91079770279E+01 -0.51973963052E+01  0.26542518284E+02  0.00000000000E+00 0.  1.
</event>
<event>
12    1  0.1345781E-002  0.1815810E+03  0.7818608E-02  0.1166282E+00
          3   -1    0    0  502    0  0.00000000000E+00  0.00000000000E+00  0.57086711024E+03  0.57086711024E+03  0.00000000000E+00 0.  1.
         -3   -1    0    0    0  501 -0.00000000000E+00 -0.00000000000E+00 -0.58837764761E+02  0.58837764761E+02  0.00000000000E+00 0. -1.
          6    2    1    2  502    0 -0.48400904949E+02  0.32720676187E+02  0.21316517180E+03  0.27993484238E+03  0.17178718013E+03 0.  0.
         24    2    3    3    0    0 -0.34114309349E+02  0.62111424612E+01  0.23055262882E+03  0.24484530186E+03  0.74781968379E+02 0.  0.
         -6    2    1    2    0  501  0.48400904949E+02 -0.32720676187E+02  0.29886417368E+03  0.34977003263E+03  0.17206391593E+03 0.  0.
        -24    2    5    5    0    0  0.49672068448E+01 -0.78984767340E+02  0.22802046081E+03  0.25454517288E+03  0.80849538480E+02 0.  0.
          5    1    3    3  502    0 -0.14286595600E+02  0.26509533726E+02 -0.17387457014E+02  0.35089540516E+02  0.47000000000E+01 0. -1.
        -11    1    4    4    0    0 -0.93789433829E+01 -0.27842089428E+02  0.16013772000E+03  0.16281042931E+03  0.00000000000E+00 0.  1.
         12    1    4    4    0    0 -0.24735365966E+02  0.34053231889E+02  0.70414908814E+02  0.82034872553E+02  0.00000000000E+00 0. -1.
         -5    1    5    5    0  501  0.43433698104E+02  0.46264091153E+02  0.70843712867E+02  0.95224859748E+02  0.47000000000E+01 0.  1.
         11    1    6    6    0    0  0.32381336592E+02 -0.34808726911E+02  0.49603363943E+02  0.68707293230E+02  0.00000000000E+00 0. -1.
        -12    1    6    6    0    0 -0.27414129747E+02 -0.44176040429E+02  0.17841709687E+03  0.18583787965E+03  0.00000000000E+00 0.  1.
</event>
<event>
12    1  0.1345781E-002  0.2273135E+03  0.7818608E-02  0.1128545E+00
          3   -1    0    0  502    0  0.00000000000E+00  0.00000000000E+00  0.85384593745E+03  0.85384593745E+03  0.00000000000E+00 0. -1.
         -3   -1    0    0    0  501 -0.00000000000E+00 -0.00000000000E+00 -0.61126069602E+02  0.61126069602E+02  0.00000000000E+00 0.  1.
          6    2    1    2  502    0  0.48301593116E+02 -0.14305642669E+03  0.35115561576E+03  0.41846313288E+03  0.17030250140E+03 0.  0.
         24    2    3    3    0    0  0.14815562756E+02 -0.16548608158E+03  0.25330477910E+03  0.31253259015E+03  0.76864586741E+02 0.  0.
         -6    2    1    2    0  501 -0.48301593116E+02  0.14305642669E+03  0.44156425209E+03  0.49650887417E+03  0.16954022619E+03 0.  0.
        -24    2    5    5    0    0 -0.74059753766E+02  0.14982004572E+03  0.30228381393E+03  0.35462737491E+03  0.80337896660E+02 0.  0.
          5    1    3    3  502    0  0.33486030359E+02  0.22429654887E+02  0.97850836662E+02  0.10593054273E+03  0.47000000000E+01 0. -1.
        -13    1    4    4    0    0  0.12660200290E+02 -0.11859251570E+03  0.23225133649E+03  0.26108456245E+03  0.00000000000E+00 0.  1.
         14    1    4    4    0    0  0.21553624669E+01 -0.46893565874E+02  0.21053442612E+02  0.51448027694E+02  0.00000000000E+00 0. -1.
         -5    1    5    5    0  501  0.25758160651E+02 -0.67636190270E+01  0.13928043815E+03  0.14188149927E+03  0.47000000000E+01 0.  1.
         11    1    6    6    0    0 -0.56789754992E+02  0.45692848586E+02  0.17300555302E+03  0.18773341221E+03  0.00000000000E+00 0. -1.
        -12    1    6    6    0    0 -0.17269998774E+02  0.10412719713E+03  0.12927826092E+03  0.16689396270E+03  0.00000000000E+00 0.  1.
</event>
<event>
12    1  0.1345781E-002  0.1817007E+03  0.7818608E-02  0.1166167E+00
          2   -1    0    0  502    0  0.00000000000E+00  0.00000000000E+00  0.60040281698E+03  0.60040281698E+03  0.00000000000E+00 0. -1.
         -2   -1    0    0    0  501 -0.00000000000E+00 -0.00000000000E+00 -0.55378364220E+02  0.55378364220E+02  0.00000000000E+00 0.  1.
          6    2    1    2  502    0 -0.34609619908E+02  0.47270066565E+02  0.30057197299E+03  0.35141589861E+03  0.17238717431E+03 0.  0.
         24    2    3    3    0    0 -0.72288364703E+02  0.78285210859E+02  0.20171543522E+03  0.24106948025E+03  0.77917877225E+02 0.  0.
         -6    2    1    2    0  501  0.34609619908E+02 -0.47270066565E+02  0.24445247977E+03  0.30436528259E+03  0.17160689205E+03 0.  0.
        -24    2    5    5    0    0 -0.38499530075E+02 -0.25185106310E+02  0.68338951881E+02  0.11234768448E+03  0.76389046773E+02 0.  0.
          5    1    3    3  502    0  0.37678744795E+02 -0.31015144294E+02  0.98856537769E+02  0.11034641836E+03  0.47000000000E+01 0. -1.
        -11    1    4    4    0    0 -0.46385413958E+02  0.77214294196E+02  0.93652167174E+02  0.12993991793E+03  0.00000000000E+00 0.  1.
         12    1    4    4    0    0 -0.25902950745E+02  0.10709166626E+01  0.10806326804E+03  0.11112956231E+03  0.00000000000E+00 0. -1.
         -5    1    5    5    0  501  0.73109149983E+02 -0.22084960255E+02  0.17611352789E+03  0.19201759812E+03  0.47000000000E+01 0.  1.
         11    1    6    6    0    0 -0.34283811729E+02 -0.46059162827E+02  0.70522062545E+02  0.90940571433E+02  0.00000000000E+00 0. -1.
        -12    1    6    6    0    0 -0.42157183455E+01  0.20874056517E+02 -0.21831106636E+01  0.21407113042E+02  0.00000000000E+00 0.  1.
</event>
<event>
12    1  0.1345781E-002  0.4241457E+03  0.7818608E-02  0.1035725E+00
         -2   -1    0    0    0  501 -0.00000000000E+00  0.00000000000E+00  0.16339432365E+03  0.16339432365E+03  0.00000000000E+00 0.  1.
          2   -1    0    0  502    0  0.00000000000E+00 -0.00000000000E+00 -0.11073911673E+04  0.11073911673E+04  0.00000000000E+00 0. -1.
          6    2    1    2  502    0 -0.38523595685E+03 -0.45630614398E+02 -0.52029246366E+03  0.67131609423E+03  0.17167456191E+03 0.  0.
         24    2    3    3    0    0 -0.26911934356E+03 -0.26577635979E+02 -0.25169950741E+03  0.37804088216E+03  0.80191487946E+02 0.  0.
         -6    2    1    2    0  501  0.38523595685E+03  0.45630614398E+02 -0.42370437994E+03  0.59946939668E+03  0.17131625886E+03 0.  0.
        -24    2    5    5    0    0  0.14231486555E+03 -0.40692064108E+02 -0.16311525467E+03  0.23287555653E+03  0.75598105042E+02 0.  0.
          5    1    3    3  502    0 -0.11611661330E+03 -0.19052978419E+02 -0.26859295625E+03  0.29327521207E+03  0.47000000000E+01 0. -1.
        -11    1    4    4    0    0 -0.23046858929E+03 -0.82596056495E+01 -0.17237079384E+03  0.28791610290E+03  0.00000000000E+00 0.  1.
         12    1    4    4    0    0 -0.38650754264E+02 -0.18318030330E+02 -0.79328713568E+02  0.90124779260E+02  0.00000000000E+00 0. -1.
         -5    1    5    5    0  501  0.24292109130E+03  0.86322678506E+02 -0.26058912527E+03  0.36659384014E+03  0.47000000000E+01 0.  1.
         11    1    6    6    0    0 -0.54629003403E+01 -0.40032311915E+01 -0.29599146768E+02  0.30364101000E+02  0.00000000000E+00 0. -1.
        -12    1    6    6    0    0  0.14777776589E+03 -0.36688832916E+02 -0.13351610790E+03  0.20251145553E+03  0.00000000000E+00 0.  1.
</event>
<event>
12    1  0.1345781E-002  0.1798065E+03  0.7818608E-02  0.1167990E+00
          2   -1    0    0  502    0  0.00000000000E+00  0.00000000000E+00  0.11746374467E+04  0.11746374467E+04  0.00000000000E+00 0. -1.
         -2   -1    0    0    0  501 -0.00000000000E+00 -0.00000000000E+00 -0.31125512503E+02  0.31125512503E+02  0.00000000000E+00 0.  1.
          6    2    1    2  502    0 -0.39971507887E+02  0.30104580236E+02  0.77675349204E+03  0.79728615872E+03  0.17267085538E+03 0.  0.
         24    2    3    3    0    0  0.30246578112E+02 -0.15884354103E+02  0.26479962819E+03  0.27847558597E+03  0.79136847938E+02 0.  0.
         -6    2    1    2    0  501  0.39971507887E+02 -0.30104580236E+02  0.36675844212E+03  0.40847680044E+03  0.17273544639E+03 0.  0.
        -24    2    5    5    0    0  0.16725243936E+02 -0.43982762936E+01  0.36525553797E+03  0.37346892174E+03  0.75949646937E+02 0.  0.
          5    1    3    3  502    0 -0.70218085999E+02  0.45988934339E+02  0.51195386385E+03  0.51881057275E+03  0.47000000000E+01 0. -1.
        -13    1    4    4    0    0  0.17936594656E+02 -0.22895751315E+02  0.26252044815E+03  0.26412671685E+03  0.00000000000E+00 0.  1.
         14    1    4    4    0    0  0.12309983456E+02  0.70113972114E+01  0.22791800397E+01  0.14348869126E+02  0.00000000000E+00 0. -1.
         -5    1    5    5    0  501  0.23246263952E+02 -0.25706303942E+02  0.15029041463E+01  0.35007878698E+02  0.47000000000E+01 0.  1.
         11    1    6    6    0    0  0.38658177645E+01 -0.37863524055E+02  0.12862295635E+03  0.13413596050E+03  0.00000000000E+00 0. -1.
        -12    1    6    6    0    0  0.12859426171E+02  0.33465247761E+02  0.23663258162E+03  0.23933296124E+03  0.00000000000E+00 0.  1.
</event>
<event>
12    1  0.1345781E-002  0.2062689E+03  0.7818608E-02  0.1144555E+00
         -2   -1    0    0    0  501 -0.00000000000E+00  0.00000000000E+00  0.78070580370E+02  0.78070580370E+02  0.00000000000E+00 0. -1.
          2   -1    0    0  502    0  0.00000000000E+00 -0.00000000000E+00 -0.64558299081E+03  0.64558299081E+03  0.00000000000E+00 0.  1.
          6    2    1    2  502    0  0.66937591688E+02 -0.84860364753E+02 -0.43004328926E+03  0.47829324056E+03  0.17929102220E+03 0.  0.
         24    2    3    3    0    0  0.25665792907E+02  0.20372285223E+02 -0.26179391522E+03  0.27554410034E+03  0.79465302208E+02 0.  0.
         -6    2    1    2    0  501 -0.66937591688E+02  0.84860364753E+02 -0.13746912118E+03  0.24536033062E+03  0.17211045836E+03 0.  0.
        -24    2    5    5    0    0 -0.22899723359E+02  0.77098089413E+02 -0.13860603200E+02  0.11382804377E+03  0.79348563361E+02 0.  0.
          5    1    3    3  502    0  0.41271798782E+02 -0.10523264998E+03 -0.16824937404E+03  0.20274914022E+03  0.47000000000E+01 0. -1.
        -13    1    4    4    0    0  0.18954236467E+02  0.15125676293E+02 -0.26524609566E+03  0.26635228632E+03  0.00000000000E+00 0.  1.
         14    1    4    4    0    0  0.67115564395E+01  0.52466089302E+01  0.34521804451E+01  0.91918140175E+01  0.00000000000E+00 0. -1.
         -5    1    5    5    0  501 -0.44037868329E+02  0.77622753401E+01 -0.12360851798E+03  0.13153228684E+03  0.47000000000E+01 0.  1.
         11    1    6    6    0    0 -0.34751312349E+02  0.52872284816E+02 -0.41138646394E+02  0.75468671902E+02  0.00000000000E+00 0. -1.
        -12    1    6    6    0    0  0.11851588989E+02  0.24225804597E+02  0.27278043194E+02  0.38359371873E+02  0.00000000000E+00 0.  1.
</event>
<event>
12    1  0.1345781E-002  0.1758625E+03  0.7818608E-02  0.1171868E+00
          4   -1    0    0  502    0  0.00000000000E+00  0.00000000000E+00  0.39459675013E+03  0.39459675013E+03  0.00000000000E+00 0. -1.
         -4   -1    0    0    0  501 -0.00000000000E+00 -0.00000000000E+00 -0.78957467298E+02  0.78957467298E+02  0.00000000000E+00 0.  1.
          6    2    1    2  502    0 -0.28633633413E+02 -0.24284681216E+02  0.13767410466E+03  0.22346675094E+03  0.17196976182E+03 0.  0.
         24    2    3    3    0    0  0.20026976479E+02  0.11341768193E+02  0.11433068013E+02  0.83481079587E+02  0.79427074176E+02 0.  0.
         -6    2    1    2    0  501  0.28633633413E+02  0.24284681216E+02  0.17796517817E+03  0.25008746648E+03  0.17164645509E+03 0.  0.
        -24    2    5    5    0    0  0.29463704409E+01 -0.43132813531E+02  0.14299065535E+03  0.16977394755E+03  0.80670595924E+02 0.  0.
          5    1    3    3  502    0 -0.48660609892E+02 -0.35626449409E+02  0.12624103664E+03  0.13998567136E+03  0.47000000000E+01 0. -1.
        -11    1    4    4    0    0  0.50669229951E+02  0.11482163240E+02  0.52254640321E+01  0.52216055106E+02  0.00000000000E+00 0.  1.
         12    1    4    4    0    0 -0.30642253472E+02 -0.14039504654E+00  0.62076039813E+01  0.31265024481E+02  0.00000000000E+00 0. -1.
         -5    1    5    5    0  501  0.25687262972E+02  0.67417494747E+02  0.34974522826E+02  0.80313518936E+02  0.47000000000E+01 0.  1.
         11    1    6    6    0    0  0.37243189010E+02 -0.44762800010E+01  0.41884480127E+02  0.56226345122E+02  0.00000000000E+00 0. -1.
        -12    1    6    6    0    0 -0.34296818569E+02 -0.38656533530E+02  0.10110617522E+03  0.11354760242E+03  0.00000000000E+00 0.  1.
</event>
<event>
12    1  0.1345781E-002  0.2613112E+03  0.7818608E-02  0.1106358E+00
          2   -1    0    0  502    0  0.00000000000E+00  0.00000000000E+00  0.21657791837E+03  0.21657791837E+03  0.00000000000E+00 0.  1.
         -2   -1    0    0    0  501 -0.00000000000E+00 -0.00000000000E+00 -0.46576566860E+03  0.46576566860E+03  0.00000000000E+00 0. -1.
          6    2    1    2  502    0 -0.18205510670E+03 -0.75263907135E+02 -0.31868196401E+03  0.41244359687E+03  0.17246103566E+03 0.  0.
         24    2    3    3    0    0 -0.14785451984E+03 -0.21469011556E+02 -0.13842590516E+03  0.22119008008E+03  0.86263797814E+02 0.  0.
         -6    2    1    2    0  501  0.18205510670E+03  0.75263907135E+02  0.69494213772E+02  0.26989999010E+03  0.17090301727E+03 0.  0.
        -24    2    5    5    0    0  0.66014272178E+02  0.83776185976E+02 -0.37149123917E+01  0.13235145204E+03  0.78273704493E+02 0.  0.
          5    1    3    3  502    0 -0.34200586863E+02 -0.53794895579E+02 -0.18025605884E+03  0.19125351678E+03  0.47000000000E+01 0. -1.
        -13    1    4    4    0    0 -0.49365213217E+02  0.33555171532E+02 -0.46603346953E+02  0.75728104160E+02  0.00000000000E+00 0.  1.
         14    1    4    4    0    0 -0.98489306624E+02 -0.55024183087E+02 -0.91822558209E+02  0.14546197592E+03  0.00000000000E+00 0. -1.
         -5    1    5    5    0  501  0.11604083453E+03 -0.85122788415E+01  0.73209126163E+02  0.13754853806E+03  0.47000000000E+01 0.  1.
         13    1    6    6    0    0  0.39764978043E+02  0.73288678128E+02  0.29764660088E+02  0.88534845178E+02  0.00000000000E+00 0. -1.
        -14    1    6    6    0    0  0.26249294135E+02  0.10487507848E+02 -0.33479572480E+02  0.43816606862E+02  0.00000000000E+00 0.  1.
</event>
<event>
12    1  0.1345781E-002  0.1927280E+03  0.7818608E-02  0.1156024E+00
         -1   -1    0    0    0  501 -0.00000000000E+00  0.00000000000E+00  0.20517629912E+02  0.20517629912E+02  0.00000000000E+00 0. -1.
          1   -1    0    0  502    0  0.00000000000E+00 -0.00000000000E+00 -0.18697622456E+04  0.18697622456E+04  0.00000000000E+00 0.  1.
          6    2    1    2  502    0  0.14656955162E+02  0.85852323360E+02 -0.10888742847E+04  0.11056433089E+04  0.17092241226E+03 0.  0.
         24    2    3    3    0    0  0.60084661236E+02  0.57542709305E+02 -0.94517772244E+03  0.95222915468E+03  0.80362342707E+02 0.  0.
         -6    2    1    2    0  501 -0.14656955162E+02 -0.85852323360E+02 -0.76037033099E+03  0.78463656655E+03  0.17293366808E+03 0.  0.
        -24    2    5    5    0    0  0.38270163842E+02 -0.67528026378E+02 -0.66287693105E+03  0.67210162612E+03  0.79310341877E+02 0.  0.
          5    1    3    3  502    0 -0.45427706074E+02  0.28309614055E+02 -0.14369656223E+03  0.15341415425E+03  0.47000000000E+01 0. -1.
        -13    1    4    4    0    0  0.24147091727E+02  0.69330542602E+02 -0.73664946855E+03  0.74029875435E+03  0.00000000000E+00 0.  1.
         14    1    4    4    0    0  0.35937569508E+02 -0.11787833296E+02 -0.20852825389E+03  0.21193040034E+03  0.00000000000E+00 0. -1.
         -5    1    5    5    0  501 -0.52927119003E+02 -0.18324296983E+02 -0.97493399946E+02  0.11253494044E+03  0.47000000000E+01 0.  1.
         13    1    6    6    0    0 -0.80832465646E+01 -0.26877099878E+02 -0.61842043381E+02  0.67912853735E+02  0.00000000000E+00 0. -1.
        -14    1    6    6    0    0  0.46353410406E+02 -0.40650926500E+02 -0.60103488767E+03  0.60418877238E+03  0.00000000000E+00 0.  1.
</event>
<event>
12    1  0.1345781E-002  0.2508147E+03  0.7818608E-02  0.1112791E+00
         -1   -1    0    0    0  501 -0.00000000000E+00  0.00000000000E+00  0.28506376174E+03  0.28506376174E+03  0.00000000000E+00 0. -1.
          1   -1    0    0  502    0  0.00000000000E+00 -0.00000000000E+00 -0.22258977523E+03  0.22258977523E+03  0.00000000000E+00 0.  1.
          6    2    1    2  502    0  0.12136265579E+03 -0.13146343669E+03  0.86660248184E+01  0.25529732662E+03  0.18190683216E+03 0.  0.
         24    2    3    3    0    0  0.29693383525E+02 -0.16091136484E+01 -0.29520866012E+02  0.91756110650E+02  0.81629749722E+02 0.  0.
         -6    2    1    2    0  501 -0.12136265579E+03  0.13146343669E+03  0.53807961694E+02  0.25235621035E+03  0.16963735070E+03 0.  0.
        -24    2    5    5    0    0 -0.10317542249E+03  0.66456983018E+02  0.93315768759E+02  0.17400079386E+03  0.80664398375E+02 0.  0.
          5    1    3    3  502    0  0.91669272263E+02 -0.12985432304E+03  0.38186890830E+02  0.16354121597E+03  0.47000000000E+01 0. -1.
        -11    1    4    4    0    0 -0.73160982365E+01 -0.32182094895E+02 -0.28712657690E+02  0.43745048141E+02  0.00000000000E+00 0.  1.
         12    1    4    4    0    0  0.37009481761E+02  0.30572981247E+02 -0.80820832231E+00  0.48011062509E+02  0.00000000000E+00 0. -1.
         -5    1    5    5    0  501 -0.18187233297E+02  0.65006453674E+02 -0.39507807065E+02  0.78355416490E+02  0.47000000000E+01 0.  1.
         13    1    6    6    0    0 -0.54105219524E+02  0.73147467771E+02  0.83544784078E+02  0.12352189186E+03  0.00000000000E+00 0. -1.
        -14    1    6    6    0    0 -0.49070202966E+02 -0.66904847533E+01  0.97709846813E+01  0.50478901999E+02  0.00000000000E+00 0.  1.
</event>
<event>
12    1  0.1345781E-002  0.1745848E+03  0.7818608E-02  0.1173149E+00
         -2   -1    0    0    0  501 -0.00000000000E+00  0.00000000000E+00  0.31484671496E+02  0.31484671496E+02  0.00000000000E+00 0.  1.
          2   -1    0    0  502    0  0.00000000000E+00 -0.00000000000E+00 -0.96907796435E+03  0.96907796435E+03  0.00000000000E+00 0. -1.
          6    2    1    2  502    0  0.24111365580E+02  0.17149330895E+02 -0.48491994592E+03  0.51540429334E+03  0.17210105791E+03 0.  0.
         24    2    3    3    0    0  0.13437867467E+02 -0.51654915826E+02 -0.35132410996E+03  0.36467975878E+03  0.81938328134E+02 0.  0.
         -6    2    1    2    0  501 -0.24111365580E+02 -0.17149330895E+02 -0.45267334693E+03  0.48515834251E+03  0.17201744326E+03 0.  0.
        -24    2    5    5    0    0 -0.45372691365E+02 -0.67508670614E+02 -0.24057179715E+03  0.26607556251E+03  0.79406005148E+02 0.  0.
          5    1    3    3  502    0  0.10673498113E+02  0.68804246721E+02 -0.13359583597E+03  0.15072453455E+03  0.47000000000E+01 0. -1.
        -13    1    4    4    0    0 -0.20995647456E+02  0.10148684720E+02 -0.50138667297E+02  0.55296464371E+02  0.00000000000E+00 0.  1.
         14    1    4    4    0    0  0.34433514923E+02 -0.61803600546E+02 -0.30118544266E+03  0.30938329441E+03  0.00000000000E+00 0. -1.
         -5    1    5    5    0  501  0.21261325785E+02  0.50359339719E+02 -0.21210154978E+03  0.21908277999E+03  0.47000000000E+01 0.  1.
         13    1    6    6    0    0 -0.41825910904E+02 -0.12367863812E+02 -0.17487301048E+03  0.18023024350E+03  0.00000000000E+00 0. -1.
        -14    1    6    6    0    0 -0.35467804615E+01 -0.55140806802E+02 -0.65698786666E+02  0.85845319009E+02  0.00000000000E+00 0.  1.
</event>
<event>
12    1  0.1345781E-002  0.1840380E+03  0.7818608E-02  0.1163951E+00
         -1   -1    0    0    0  501 -0.00000000000E+00  0.00000000000E+00  0.24995598395E+02  0.24995598395E+02  0.00000000000E+00 0.  1.
          1   -1    0    0  502    0  0.00000000000E+00 -0.00000000000E+00 -0.16311399783E+04  0.16311399783E+04  0.00000000000E+00 0. -1.
          6    2    1    2  502    0 -0.44427586469E+02 -0.38858926881E+02 -0.46820602279E+03  0.50366211427E+03  0.17599664469E+03 0.  0.
         24    2    3    3    0    0 -0.26611076919E+02 -0.46206042783E+02 -0.47278365570E+03  0.48330399924E+03  0.84942467439E+02 0.  0.
         -6    2    1    2    0  501  0.44427586469E+02  0.38858926881E+02 -0.11379383571E+04  0.11524734624E+04  0.17264863262E+03 0.  0.
        -24    2    5    5    0    0  0.38340617755E+02  0.32094960062E+02 -0.11382809874E+04  0.11422260320E+04  0.80601566143E+02 0.  0.
          5    1    3    3  502    0 -0.17816509550E+02  0.73471159017E+01  0.45776329184E+01  0.20358115035E+02  0.47000000000E+01 0. -1.
        -13    1    4    4    0    0 -0.41471225767E+02  0.85901427903E+01 -0.23912489681E+03  0.24284639053E+03  0.00000000000E+00 0.  1.
         14    1    4    4    0    0  0.14860148848E+02 -0.54796185573E+02 -0.23365875889E+03  0.24045760871E+03  0.00000000000E+00 0. -1.
         -5    1    5    5    0  501  0.60869687136E+01  0.67639668193E+01  0.34263025915E+00  0.10247430446E+02  0.47000000000E+01 0.  1.
         13    1    6    6    0    0 -0.24171143917E+02 -0.61727627253E+00 -0.31609955736E+03  0.31702295720E+03  0.00000000000E+00 0. -1.
        -14    1    6    6    0    0  0.62511761672E+02  0.32712236335E+02 -0.82218143003E+03  0.82520307479E+03  0.00000000000E+00 0.  1.
</event>
<event>
12    1  0.1345781E-002  0.2212200E+03  0.7818608E-02  0.1132977E+00
          1   -1    0    0  502    0  0.00000000000E+00  0.00000000000E+00  0.51868412783E+03  0.51868412783E+03  0.00000000000E+00 0. -1.
         -1   -1    0    0    0  501 -0.00000000000E+00 -0.00000000000E+00 -0.11297562045E+03  0.11297562045E+03  0.00000000000E+00 0.  1.
          6    2    1    2  502    0 -0.13239466897E+03 -0.19715243681E+02  0.33161738347E+03  0.39901973768E+03  0.17700175941E+03 0.  0.
         24    2    3    3    0    0 -0.78864614180E+02 -0.50447685717E+02  0.30978292077E+03  0.33337841289E+03  0.80069418714E+02 0.  0.
         -6    2    1    2    0  501  0.13239466897E+03  0.19715243681E+02  0.74091123904E+02  0.23264001060E+03  0.17525649969E+03 0.  0.
        -24    2    5    5    0    0  0.82481359395E+02  0.21102186326E+02  0.11292869859E+03  0.16920729593E+03  0.92896399894E+02 0.  0.
          5    1    3    3  502    0 -0.53530054792E+02  0.30732442036E+02  0.21834462697E+02  0.65641324795E+02  0.47000000000E+01 0. -1.
        -11    1    4    4    0    0 -0.31511952548E+02 -0.11215180073E+02  0.24288978250E+02  0.41336882827E+02  0.00000000000E+00 0.  1.
         12    1    4    4    0    0 -0.47352661632E+02 -0.39232505644E+02  0.28549394252E+03  0.29204153006E+03  0.00000000000E+00 0. -1.
         -5    1    5    5    0  501  0.49913309578E+02 -0.13869426444E+01 -0.38837574691E+02  0.63432714673E+02  0.47000000000E+01 0.  1.
         11    1    6    6    0    0 -0.25050243926E+01  0.39054707053E+02  0.33999303043E+02  0.51841083106E+02  0.00000000000E+00 0. -1.
        -12    1    6    6    0    0  0.84986383787E+02 -0.17952520727E+02  0.78929395551E+02  0.11736621282E+03  0.00000000000E+00 0.  1.
</event>
<event>
12    1  0.1345781E-002  0.1763402E+03  0.7818608E-02  0.1171393E+00
          2   -1    0    0  502    0  0.00000000000E+00  0.00000000000E+00  0.45530858696E+03  0.45530858696E+03  0.00000000000E+00 0.  1.
         -2   -1    0    0    0  501 -0.00000000000E+00 -0.00000000000E+00 -0.68828381879E+02  0.68828381879E+02  0.00000000000E+00 0. -1.
          6    2    1    2  502    0  0.26193559043E+02 -0.28498265708E+02  0.16960856773E+03  0.24426999113E+03  0.17147159717E+03 0.  0.
         24    2    3    3    0    0 -0.51323454774E+01 -0.49054794118E+02  0.18172580907E+03  0.20461143982E+03  0.80055342262E+02 0.  0.
         -6    2    1    2    0  501 -0.26193559043E+02  0.28498265708E+02  0.21687163735E+03  0.27986697771E+03  0.17260928260E+03 0.  0.
        -24    2    5    5    0    0 -0.41558806570E+02 -0.43959502595E+02  0.10415120071E+03  0.14490696194E+03  0.80566635390E+02 0.  0.
          5    1    3    3  502    0  0.31325904521E+02  0.20556528410E+02 -0.12117241345E+02  0.39658551311E+02  0.47000000000E+01 0. -1.
        -13    1    4    4    0    0  0.11405265402E+02  0.99667698080E+01  0.10651810370E+03  0.10758960450E+03  0.00000000000E+00 0.  1.
         14    1    4    4    0    0 -0.16537610880E+02 -0.59021563926E+02  0.75207705369E+02  0.97021835320E+02  0.00000000000E+00 0. -1.
         -5    1    5    5    0  501  0.15365247527E+02  0.72457768303E+02  0.11272043664E+03  0.13496001577E+03  0.47000000000E+01 0.  1.
         13    1    6    6    0    0 -0.53151595074E+02 -0.30119565648E+01  0.35005926428E+02  0.63714824227E+02  0.00000000000E+00 0. -1.
        -14    1    6    6    0    0  0.11592788503E+02 -0.40947546030E+02  0.69145274283E+02  0.81192137715E+02  0.00000000000E+00 0.  1.
</event>
<event>
12    1  0.1345781E-002  0.1870588E+03  0.7818608E-02  0.1161141E+00
         -2   -1    0    0    0  501 -0.00000000000E+00  0.00000000000E+00  0.23205996876E+03  0.23205996876E+03  0.00000000000E+00 0.  1.
          2   -1    0    0  502    0  0.00000000000E+00 -0.00000000000E+00 -0.19036533644E+03  0.19036533644E+03  0.00000000000E+00 0. -1.
          6    2    1    2  502    0 -0.33176543247E+02 -0.75257265333E+02  0.11668439854E+03  0.21701420715E+03  0.16344900806E+03 0.  0.
         24    2    3    3    0    0 -0.51104755876E+02 -0.10108766213E+02  0.11373745731E+03  0.14921655079E+03  0.81335641669E+02 0.  0.
         -6    2    1    2    0  501  0.33176543247E+02  0.75257265333E+02 -0.74989766212E+02  0.20541109805E+03  0.17264389697E+03 0.  0.
        -24    2    5    5    0    0  0.58178055533E+02  0.60062853173E+01 -0.41919455662E+00  0.10051289022E+03  0.81742912642E+02 0.  0.
          5    1    3    3  502    0  0.17928212629E+02 -0.65148499120E+02  0.29469412273E+01  0.67797656362E+02  0.47000000000E+01 0. -1.
        -13    1    4    4    0    0  0.16423750646E+02 -0.20820031446E+02  0.20107470710E+02  0.33279478257E+02  0.00000000000E+00 0.  1.
         14    1    4    4    0    0 -0.67528506522E+02  0.10711265233E+02  0.93629986600E+02  0.11593707253E+03  0.00000000000E+00 0. -1.
         -5    1    5    5    0  501 -0.25001512286E+02  0.69250980016E+02 -0.74570571655E+02  0.10489820783E+03  0.47000000000E+01 0.  1.
         13    1    6    6    0    0  0.50392494786E+02  0.11952845693E+02 -0.36347706973E+02  0.63272662763E+02  0.00000000000E+00 0. -1.
        -14    1    6    6    0    0  0.77855607467E+01 -0.59465603757E+01  0.35928512417E+02  0.37240227455E+02  0.00000000000E+00 0.  1.
</event>
<event>
12    1  0.1345781E-002  0.1768077E+03  0.7818608E-02  0.1170929E+00
         -3   -1    0    0    0  501 -0.00000000000E+00  0.00000000000E+00  0.62459450864E+02  0.62459450864E+02  0.00000000000E+00 0. -1.
          3   -1    0    0  502    0  0.00000000000E+00 -0.00000000000E+00 -0.50289649195E+03  0.50289649195E+03  0.00000000000E+00 0.  1.
          6    2    1    2  502    0  0.28826507346E+02 -0.27376557554E+02 -0.23878096419E+03  0.29667685439E+03  0.17152365330E+03 0.  0.
         24    2    3    3    0    0  0.40099905357E+02  0.34593172943E+02 -0.20099564082E+03  0.22307551158E+03  0.80986086552E+02 0.  0.
         -6    2    1    2    0  501 -0.28826507346E+02  0.27376557554E+02 -0.20165607690E+03  0.26867908843E+03  0.17303998318E+03 0.  0.
        -24    2    5    5    0    0  0.17434647565E+02 -0.38965468027E+02 -0.84475503393E+02  0.12621949550E+03  0.83504345608E+02 0.  0.
          5    1    3    3  502    0 -0.11273398011E+02 -0.61969730497E+02 -0.37785323369E+02  0.73601342805E+02  0.47000000000E+01 0. -1.
        -13    1    4    4    0    0 -0.19369981835E+02 -0.28368928038E+01 -0.16333291124E+02  0.25495500701E+02  0.00000000000E+00 0.  1.
         14    1    4    4    0    0  0.59469887192E+02  0.37430065747E+02 -0.18466234969E+03  0.19758001088E+03  0.00000000000E+00 0. -1.
         -5    1    5    5    0  501 -0.46261154911E+02  0.66342025581E+02 -0.11718057351E+03  0.14245959294E+03  0.47000000000E+01 0.  1.
         11    1    6    6    0    0  0.17136949428E+02  0.22531417921E+02 -0.44931335110E+02  0.53105222945E+02  0.00000000000E+00 0. -1.
        -12    1    6    6    0    0  0.29769813695E+00 -0.61496885948E+02 -0.39544168283E+02  0.73114272551E+02  0.00000000000E+00 0.  1.
</event>
<event>
12    1  0.1345781E-002  0.1780534E+03  0.7818608E-02  0.1169700E+00
          3   -1    0    0  502    0  0.00000000000E+00  0.00000000000E+00  0.38860342211E+03  0.38860342211E+03  0.00000000000E+00 0.  1.
         -3   -1    0    0    0  501 -0.00000000000E+00 -0.00000000000E+00 -0.10441110583E+03  0.10441110583E+03  0.00000000000E+00 0. -1.
          6    2    1    2  502    0 -0.21048964104E+02  0.47324498177E+02  0.25882961864E+03  0.31555073208E+03  0.17290698659E+03 0.  0.
         24    2    3    3    0    0 -0.16604425871E+02  0.96590382379E+02  0.15405793571E+03  0.19959351234E+03  0.80612118723E+02 0.  0.
         -6    2    1    2    0  501  0.21048964104E+02 -0.47324498177E+02  0.25362697634E+02  0.17746379586E+03  0.16783165790E+03 0.  0.
        -24    2    5    5    0    0  0.60628807461E+02 -0.77657100892E+02  0.12966488433E+02  0.12586547428E+03  0.77249661357E+02 0.  0.
          5    1    3    3  502    0 -0.44445382331E+01 -0.49265884201E+02  0.10477168293E+03  0.11595721974E+03  0.47000000000E+01 0. -1.
        -13    1    4    4    0    0 -0.31827068126E+02  0.49430681942E+02  0.13363309910E+03  0.14599369766E+03  0.00000000000E+00 0.  1.
         14    1    4    4    0    0  0.15222642256E+02  0.47159700437E+02  0.20424836614E+02  0.53599814676E+02  0.00000000000E+00 0. -1.
         -5    1    5    5    0  501 -0.39579843357E+02  0.30332602715E+02  0.12396209201E+02  0.51598321583E+02  0.47000000000E+01 0.  1.
         11    1    6    6    0    0  0.16227446562E+02 -0.69049344561E+02  0.30694536076E+02  0.77287104688E+02  0.00000000000E+00 0. -1.
        -12    1    6    6    0    0  0.44401360899E+02 -0.86077563317E+01 -0.17728047643E+02  0.48578369590E+02  0.00000000000E+00 0.  1.
</event>
<event>
12    1  0.1345781E-002  0.1961633E+03  0.7818608E-02  0.1153017E+00
         -1   -1    0    0    0  501 -0.00000000000E+00  0.00000000000E+00  0.12855379266E+03  0.12855379266E+03  0.00000000000E+00 0. -1.
          1   -1    0    0  502    0  0.00000000000E+00 -0.00000000000E+00 -0.41544406734E+03  0.41544406734E+03  0.00000000000E+00 0.  1.
          6    2    1    2  502    0  0.55651470569E+01  0.95699685274E+02  0.16553471085E+01  0.19363898773E+03  0.16823767940E+03 0.  0.
         24    2    3    3    0    0 -0.18342592095E+02 -0.12486156027E+02  0.17134205405E+01  0.82743317742E+02  0.79694203327E+02 0.  0.
         -6    2    1    2    0  501 -0.55651470569E+01 -0.95699685274E+02 -0.28854562179E+03  0.35035887228E+03  0.17407861128E+03 0.  0.
        -24    2    5    5    0    0  0.46518537602E+02 -0.10731505434E+03 -0.16495925113E+03  0.21566177498E+03  0.74952994785E+02 0.  0.
          5    1    3    3  502    0  0.23907739152E+02  0.10818584130E+03 -0.58073432036E-01  0.11089566999E+03  0.47000000000E+01 0. -1.
        -11    1    4    4    0    0  0.29964531432E+02 -0.24508441303E+01  0.11952848312E+02  0.32353521658E+02  0.00000000000E+00 0.  1.
         12    1    4    4    0    0 -0.48307123527E+02 -0.10035311897E+02 -0.10239427772E+02  0.50389796084E+02  0.00000000000E+00 0. -1.
         -5    1    5    5    0  501 -0.52083684659E+02  0.11615369067E+02 -0.12358637066E+03  0.13469709729E+03  0.47000000000E+01 0.  1.
         11    1    6    6    0    0  0.30408209416E+02 -0.16833237135E+02 -0.11176692815E+02  0.36509389677E+02  0.00000000000E+00 0. -1.
        -12    1    6    6    0    0  0.16110328186E+02 -0.90481817207E+02 -0.15378255831E+03  0.17915238531E+03  0.00000000000E+00 0.  1.
</event>
<event>
12    1  0.1345781E-002  0.1761014E+03  0.7818608E-02  0.1171630E+00
          2   -1    0    0  502    0  0.00000000000E+00  0.00000000000E+00  0.93580512430E+03  0.93580512430E+03  0.00000000000E+00 0.  1.
         -2   -1    0    0    0  501 -0.00000000000E+00 -0.00000000000E+00 -0.35495986280E+02  0.35495986280E+02  0.00000000000E+00 0. -1.
          6    2    1    2  502    0  0.71473261569E+01  0.39671779199E+02  0.57305218382E+03  0.59922839731E+03  0.17047267354E+03 0.  0.
         24    2    3    3    0    0 -0.54184438592E+02  0.27644855339E+02  0.32309737376E+03  0.34153530594E+03  0.92489247289E+02 0.  0.
         -6    2    1    2    0  501 -0.71473261569E+01 -0.39671779199E+02  0.32725695420E+03  0.37207271327E+03  0.17238345498E+03 0.  0.
        -24    2    5    5    0    0 -0.29740707751E+02 -0.82516210492E+02  0.17191239565E+03  0.20928411399E+03  0.80947723248E+02 0.  0.
          5    1    3    3  502    0  0.61331764749E+02  0.12026923860E+02  0.24995481006E+03  0.25769309136E+03  0.47000000000E+01 0. -1.
        -11    1    4    4    0    0  0.39865356021E+01  0.48239258918E+02  0.15967309384E+03  0.16684848056E+03  0.00000000000E+00 0.  1.
         12    1    4    4    0    0 -0.58170974194E+02 -0.20594403579E+02  0.16342427992E+03  0.17468682539E+03  0.00000000000E+00 0. -1.
         -5    1    5    5    0  501  0.22593381594E+02  0.42844431293E+02  0.15534455855E+03  0.16278859928E+03  0.47000000000E+01 0.  1.
         13    1    6    6    0    0  0.16181872324E+02 -0.42423007287E+02  0.28902763147E+02  0.53823175833E+02  0.00000000000E+00 0. -1.
        -14    1    6    6    0    0 -0.45922580076E+02 -0.40093203204E+02  0.14300963251E+03  0.15546093816E+03  0.00000000000E+00 0.  1.
</event>
<event>
12    1  0.1345781E-002  0.1922808E+03  0.7818608E-02  0.1156420E+00
         -2   -1    0    0    0  501 -0.00000000000E+00  0.00000000000E+00  0.55530554218E+03  0.55530554218E+03  0.00000000000E+00 0.  1.
          2   -1    0    0  502    0  0.00000000000E+00 -0.00000000000E+00 -0.67477220239E+02  0.67477220239E+02  0.00000000000E+00 0. -1.
          6    2    1    2  502    0  0.19496558899E+02  0.86058805929E+02  0.20614761533E+03  0.28085398902E+03  0.16910319321E+03 0.  0.
         24    2    3    3    0    0  0.77791135496E+02  0.55272875859E+02  0.14359008107E+03  0.18985087784E+03  0.79490206118E+02 0.  0.
         -6    2    1    2    0  501 -0.19496558899E+02 -0.86058805929E+02  0.28168070661E+03  0.34192877340E+03  0.17258340510E+03 0.  0.
        -24    2    5    5    0    0  0.12557335566E+02  0.10444536897E+02  0.17609188827E+03  0.19526099955E+03  0.82775176260E+02 0.  0.
          5    1    3    3  502    0 -0.58294576596E+02  0.30785930071E+02  0.62557534269E+02  0.91003111181E+02  0.47000000000E+01 0. -1.
        -11    1    4    4    0    0  0.10983955732E+02  0.25613290331E+02  0.10202808122E+03  0.10576586067E+03  0.00000000000E+00 0.  1.
         12    1    4    4    0    0  0.66807179764E+02  0.29659585527E+02  0.41561999843E+02  0.84085017171E+02  0.00000000000E+00 0. -1.
         -5    1    5    5    0  501 -0.32053894465E+02 -0.96503342826E+02  0.10558881834E+03  0.14666777385E+03  0.47000000000E+01 0.  1.
         11    1    6    6    0    0  0.38007722627E+02  0.24979966005E+02  0.58657984775E+02  0.74224961157E+02  0.00000000000E+00 0. -1.
        -12    1    6    6    0    0 -0.25450387061E+02 -0.14535429108E+02  0.11743390349E+03  0.12103603839E+03  0.00000000000E+00 0.  1.
</event>
<event>
12    1  0.1345781E-002  0.2655198E+03  0.7818608E-02  0.1103871E+00
          2   -1    0    0  502    0  0.00000000000E+00  0.00000000000E+00  0.15588324625E+03  0.15588324625E+03  0.00000000000E+00 0. -1.
         -2   -1    0    0    0  501 -0.00000000000E+00 -0.00000000000E+00 -0.45335243644E+03  0.45335243644E+03  0.00000000000E+00 0.  1.
          6    2    1    2  502    0  0.37712266355E+02  0.19808457193E+03 -0.16334719650E+03  0.31130763688E+03  0.17196053472E+03 0.  0.
         24    2    3    3    0    0  0.74907510944E+02  0.67099322683E+02 -0.89204983892E+02  0.15619548574E+03  0.79536446443E+02 0.  0.
         -6    2    1    2    0  501 -0.37712266355E+02 -0.19808457193E+03 -0.13412199369E+03  0.29792804581E+03  0.17353010868E+03 0.  0.
        -24    2    5    5    0    0  0.34620374308E+02 -0.58096982026E+02 -0.37177928580E+02  0.11286379212E+03  0.82354159343E+02 0.  0.
          5    1    3    3  502    0 -0.37195244589E+02  0.13098524925E+03 -0.74142212604E+02  0.15511215114E+03  0.47000000000E+01 0. -1.
        -11    1    4    4    0    0  0.26645773726E+02 -0.13803091396E+02 -0.39730865941E+02  0.49790202831E+02  0.00000000000E+00 0.  1.
         12    1    4    4    0    0  0.48261737218E+02  0.80902414078E+02 -0.49474117951E+02  0.10640528290E+03  0.00000000000E+00 0. -1.
         -5    1    5    5    0  501 -0.72332640663E+02 -0.13998758991E+03 -0.96944065107E+02  0.18506425369E+03  0.47000000000E+01 0.  1.
         13    1    6    6    0    0  0.58291710626E+00 -0.16211340989E+01  0.23315475409E+02  0.23379034661E+02  0.00000000000E+00 0. -1.
        -14    1    6    6    0    0  0.34037457202E+02 -0.56475847927E+02 -0.60493403990E+02  0.89484757462E+02  0.00000000000E+00 0.  1.
</event>
<event>
12    1  0.1345781E-002  0.1750478E+03  0.7818608E-02  0.1172684E+00
         -2   -1    0    0    0  501 -0.00000000000E+00  0.00000000000E+00  0.21955038479E+02  0.21955038479E+02  0.00000000000E+00 0. -1.
          2   -1    0    0  502    0  0.00000000000E+00 -0.00000000000E+00 -0.14039508014E+04  0.14039508014E+04  0.00000000000E+00 0.  1.
          6    2    1    2  502    0  0.74832779565E+00  0.31346069405E+02 -0.63496361696E+03  0.65856560147E+03  0.17189159523E+03 0.  0.
         24    2    3    3    0    0  0.29195807455E+01  0.97506452727E+01 -0.13621730381E+03  0.15932512678E+03  0.82010628161E+02 0.  0.
         -6    2    1    2    0  501 -0.74832779565E+00 -0.31346069405E+02 -0.74703214598E+03  0.76734023843E+03  0.17254239574E+03 0.  0.
        -24    2    5    5    0    0 -0.51230283646E+02 -0.65859779810E+02 -0.42441920105E+03  0.43894896829E+03  0.74716035623E+02 0.  0.
          5    1    3    3  502    0 -0.21712529498E+01  0.21595424132E+02 -0.49874631315E+03  0.49924047469E+03  0.47000000000E+01 0. -1.
        -11    1    4    4    0    0  0.25910617750E+02  0.38028874982E+02 -0.70792412657E+02  0.84434123046E+02  0.00000000000E+00 0.  1.
         12    1    4    4    0    0 -0.22991037005E+02 -0.28278229710E+02 -0.65424891149E+02  0.74891003732E+02  0.00000000000E+00 0. -1.
         -5    1    5    5    0  501  0.50481955850E+02  0.34513710405E+02 -0.32261294493E+03  0.32839127014E+03  0.47000000000E+01 0.  1.
         11    1    6    6    0    0 -0.60433450113E+02 -0.18050776374E+02 -0.22504543677E+03  0.23371666828E+03  0.00000000000E+00 0. -1.
        -12    1    6    6    0    0  0.92031664677E+01 -0.47809003436E+02 -0.19937376428E+03  0.20523230001E+03  0.00000000000E+00 0.  1.
</event>
<event>
12    1  0.1345781E-002  0.2553262E+03  0.7818608E-02  0.1109984E+00
         -1   -1    0    0    0  501 -0.00000000000E+00  0.00000000000E+00  0.71867301779E+02  0.71867301779E+02  0.00000000000E+00 0.  1.
          1   -1    0    0  502    0  0.00000000000E+00 -0.00000000000E+00 -0.14386819473E+04  0.14386819473E+04  0.00000000000E+00 0. -1.
          6    2    1    2  502    0  0.69804448294E+02 -0.17766559244E+03 -0.11400279867E+04  0.11679536045E+04  0.16737409641E+03 0.  0.
         24    2    3    3    0    0  0.54159551964E+02 -0.68690361198E+02 -0.33936614700E+03  0.35974457504E+03  0.81210558122E+02 0.  0.
         -6    2    1    2    0  501 -0.69804448294E+02  0.17766559244E+03 -0.22678665882E+03  0.34259564455E+03  0.17176106458E+03 0.  0.
        -24    2    5    5    0    0 -0.99934373821E+02  0.18463058940E+03 -0.20778886122E+03  0.30599878801E+03  0.79898146407E+02 0.  0.
          5    1    3    3  502    0  0.15644896330E+02 -0.10897523124E+03 -0.80066183969E+03  0.80820902949E+03  0.47000000000E+01 0. -1.
        -11    1    4    4    0    0  0.95807549121E+01 -0.84815684735E+01 -0.20895937811E+03  0.20935078115E+03  0.00000000000E+00 0.  1.
         12    1    4    4    0    0  0.44578797052E+02 -0.60208792725E+02 -0.13040676889E+03  0.15039379389E+03  0.00000000000E+00 0. -1.
         -5    1    5    5    0  501  0.30129925527E+02 -0.69649969659E+01 -0.18997797602E+02  0.36596856542E+02  0.47000000000E+01 0.  1.
         13    1    6    6    0    0 -0.16045338975E+02  0.10798137106E+03 -0.12133630194E+03  0.16321742421E+03  0.00000000000E+00 0. -1.
        -14    1    6    6    0    0 -0.83889034846E+02  0.76649218342E+02 -0.86452559286E+02  0.14278136379E+03  0.00000000000E+00 0.  1.
</event>
<event>
12    1  0.1345781E-002  0.1876317E+03  0.7818608E-02  0.1160615E+00
         -4   -1    0    0    0  501 -0.00000000000E+00  0.00000000000E+00  0.61481613286E+03  0.61481613286E+03  0.00000000000E+00 0.  1.
          4   -1    0    0  502    0  0.00000000000E+00 -0.00000000000E+00 -0.78410818612E+02  0.78410818612E+02  0.00000000000E+00 0. -1.
          6    2    1    2  502    0  0.25413454231E+02 -0.68765686466E+02  0.88090902129E+02  0.20719434473E+03  0.17261206841E+03 0.  0.
         24    2    3    3    0    0  0.21460088370E+02  0.24522520508E+02  0.21584534807E+02  0.92462023407E+02  0.83794058410E+02 0.  0.
         -6    2    1    2    0  501 -0.25413454231E+02  0.68765686466E+02  0.44831441212E+03  0.48603260674E+03  0.17282164046E+03 0.  0.
        -24    2    5    5    0    0 -0.35373445903E+02 -0.10642307311E+02  0.33769427273E+03  0.34941732155E+03  0.81795497328E+02 0.  0.
          5    1    3    3  502    0  0.39533658607E+01 -0.93288206974E+02  0.66506367322E+02  0.11473232132E+03  0.47000000000E+01 0. -1.
        -13    1    4    4    0    0 -0.91936026144E+01  0.43028490878E+02 -0.95362928738E+01  0.45021264288E+02  0.00000000000E+00 0.  1.
         14    1    4    4    0    0  0.30653690985E+02 -0.18505970370E+02  0.31120827681E+02  0.47440759120E+02  0.00000000000E+00 0. -1.
         -5    1    5    5    0  501  0.99599916717E+01  0.79407993777E+02  0.11062013939E+03  0.13661528519E+03  0.47000000000E+01 0.  1.
         13    1    6    6    0    0 -0.48813159373E+01 -0.41938038110E+02  0.11567972314E+03  0.12314391837E+03  0.00000000000E+00 0. -1.
        -14    1    6    6    0    0 -0.30492129965E+02  0.31295730799E+02  0.22201454959E+03  0.22627340318E+03  0.00000000000E+00 0.  1.
</event>
<event>
12    1  0.1345781E-002  0.4230794E+03  0.7818608E-02  0.1036069E+00
         -1   -1    0    0    0  501 -0.00000000000E+00  0.00000000000E+00  0.13426504587E+03  0.13426504587E+03  0.00000000000E+00 0.  1.
          1   -1    0    0  502    0  0.00000000000E+00 -0.00000000000E+00 -0.14250905838E+04  0.14250905838E+04  0.00000000000E+00 0. -1.
          6    2    1    2  502    0  0.33527017793E+03  0.18860569284E+03 -0.84084936162E+03  0.94048297787E+03  0.17176257783E+03 0.  0.
         24    2    3    3    0    0  0.21062786744E+03  0.10911855140E+03 -0.66549694487E+03  0.71108273532E+03  0.80507863251E+02 0.  0.
         -6    2    1    2    0  501 -0.33527017793E+03 -0.18860569284E+03 -0.44997617633E+03  0.61887265183E+03  0.18040676354E+03 0.  0.
        -24    2    5    5    0    0 -0.15986765739E+03 -0.16955787908E+03 -0.29961762748E+03  0.38701354238E+03  0.75506404020E+02 0.  0.
          5    1    3    3  502    0  0.12464231049E+03  0.79487141439E+02 -0.17535241675E+03  0.22940024255E+03  0.47000000000E+01 0. -1.
        -13    1    4    4    0    0  0.12068145491E+03  0.17586640515E+02 -0.30943700643E+03  0.33260271261E+03  0.00000000000E+00 0.  1.
         14    1    4    4    0    0  0.89946412530E+02  0.91531910881E+02 -0.35605993843E+03  0.37848002271E+03  0.00000000000E+00 0. -1.
         -5    1    5    5    0  501 -0.17540252054E+03 -0.19047813751E+02 -0.15035854885E+03  0.23185910945E+03  0.47000000000E+01 0.  1.
         13    1    6    6    0    0 -0.12377241852E+03 -0.10671740166E+03 -0.25181512084E+03  0.30019838522E+03  0.00000000000E+00 0. -1.
        -14    1    6    6    0    0 -0.36095238869E+02 -0.62840477420E+02 -0.47802506640E+02  0.86815157158E+02  0.00000000000E+00 0.  1.
</event>
<event>
12    1  0.1345781E-002  0.1859029E+03  0.7818608E-02  0.1162209E+00
          2   -1    0    0  502    0  0.00000000000E+00  0.00000000000E+00  0.13438774081E+04  0.13438774081E+04  0.00000000000E+00 0. -1.
         -2   -1    0    0    0  501 -0.00000000000E+00 -0.00000000000E+00 -0.27816595378E+02  0.27816595378E+02  0.00000000000E+00 0.  1.
          6    2    1    2  502    0  0.25639356748E+02  0.66536031961E+02  0.46976360060E+03  0.50523084836E+03  0.17174384858E+03 0.  0.
         24    2    3    3    0    0 -0.26238292237E+02  0.93734718734E+02  0.34422853966E+03  0.36662276580E+03  0.80276518424E+02 0.  0.
         -6    2    1    2    0  501 -0.25639356748E+02 -0.66536031961E+02  0.84629721213E+03  0.86646315513E+03  0.17162461293E+03 0.  0.
        -24    2    5    5    0    0 -0.65800842777E+02 -0.90579661332E+02  0.68741301619E+03  0.70076065426E+03  0.77423599589E+02 0.  0.
          5    1    3    3  502    0  0.51877648985E+02 -0.27198686774E+02  0.12553506094E+03  0.13860808256E+03  0.47000000000E+01 0. -1.
        -11    1    4    4    0    0 -0.25077167206E+02  0.27938373332E+01  0.28540829663E+02  0.38095259547E+02  0.00000000000E+00 0.  1.
         12    1    4    4    0    0 -0.11611250312E+01  0.90940881401E+02  0.31568771000E+03  0.32852750625E+03  0.00000000000E+00 0. -1.
         -5    1    5    5    0  501  0.40161486029E+02  0.24043629372E+02  0.15888419595E+03  0.16570250087E+03  0.47000000000E+01 0.  1.
         11    1    6    6    0    0 -0.56540824708E+02 -0.38104823203E+02  0.22008367316E+03  0.23040326734E+03  0.00000000000E+00 0. -1.
        -12    1    6    6    0    0 -0.92600180688E+01 -0.52474838129E+02  0.46732934303E+03  0.47035738692E+03  0.00000000000E+00 0.  1.
</event>
<event>
12    1  0.1345781E-002  0.2118735E+03  0.7818608E-02  0.1140091E+00
          1   -1    0    0  502    0  0.00000000000E+00  0.00000000000E+00  0.64564145190E+03  0.64564145190E+03  0.00000000000E+00 0.  1.
         -1   -1    0    0    0  501 -0.00000000000E+00 -0.00000000000E+00 -0.69804995026E+02  0.69804995026E+02  0.00000000000E+00 0. -1.
          6    2    1    2  502    0 -0.41336086487E+02  0.10882487469E+03  0.30341977682E+03  0.36765403236E+03  0.17191393529E+03 0.  0.
         24    2    3    3    0    0 -0.36659763840E+02  0.95100337511E+02  0.31996770338E+03  0.34515614829E+03  0.79783601187E+02 0.  0.
         -6    2    1    2    0  501  0.41336086487E+02 -0.10882487469E+03  0.27241668005E+03  0.34779241456E+03  0.18220096229E+03 0.  0.
        -24    2    5    5    0    0  0.49613877227E+02  0.54391063736E+01  0.85886913415E+02  0.12883985571E+03  0.82048923398E+02 0.  0.
          5    1    3    3  502    0 -0.46763226475E+01  0.13724537180E+02 -0.16547926557E+02  0.22497884070E+02  0.47000000000E+01 0. -1.
        -11    1    4    4    0    0  0.20969522199E+02  0.31779346090E+02  0.15109986525E+03  0.15582303096E+03  0.00000000000E+00 0.  1.
         12    1    4    4    0    0 -0.57629286039E+02  0.63320991421E+02  0.16886783813E+03  0.18933311733E+03  0.00000000000E+00 0. -1.
         -5    1    5    5    0  501 -0.82777907398E+01 -0.11426398106E+03  0.18652976664E+03  0.21895255886E+03  0.47000000000E+01 0.  1.
         13    1    6    6    0    0  0.22679295346E+02 -0.24158739503E+02 -0.10306064711E+01  0.33152032841E+02  0.00000000000E+00 0. -1.
        -14    1    6    6    0    0  0.26934581881E+02  0.29597845876E+02  0.86917519886E+02  0.95687822866E+02  0.00000000000E+00 0.  1.
</event>
<event>
12    1  0.1345781E-002  0.3555073E+03  0.7818608E-02  0.1060377E+00
         -1   -1    0    0    0  501 -0.00000000000E+00  0.00000000000E+00  0.12842223123E+04  0.12842223123E+04  0.00000000000E+00 0.  1.
          1   -1    0    0  502    0  0.00000000000E+00 -0.00000000000E+00 -0.10301576950E+03  0.10301576950E+03  0.00000000000E+00 0. -1.
          6    2    1    2  502    0  0.24847149580E+03  0.18706016390E+03  0.73718507220E+03  0.81842486696E+03  0.17218549021E+03 0.  0.
         24    2    3    3    0    0  0.10551105115E+03  0.12891309134E+03  0.52439820988E+03  0.55551973282E+03  0.76534462770E+02 0.  0.
         -6    2    1    2    0  501 -0.24847149580E+03 -0.18706016390E+03  0.44402147064E+03  0.56881321488E+03  0.17223187244E+03 0.  0.
        -24    2    5    5    0    0 -0.16156017016E+03 -0.93661799599E+02  0.16701227186E+03  0.26380006895E+03  0.82602397899E+02 0.  0.
          5    1    3    3  502    0  0.14296044465E+03  0.58147072557E+02  0.21278686232E+03  0.26290513414E+03  0.47000000000E+01 0. -1.
        -11    1    4    4    0    0  0.67292062888E+02  0.11220045553E+03  0.30015312275E+03  0.32742794787E+03  0.00000000000E+00 0.  1.
         12    1    4    4    0    0  0.38218988261E+02  0.16712635812E+02  0.22424508713E+03  0.22809178495E+03  0.00000000000E+00 0. -1.
         -5    1    5    5    0  501 -0.86911325636E+02 -0.93398364303E+02  0.27700919879E+03  0.30501314593E+03  0.47000000000E+01 0.  1.
         13    1    6    6    0    0 -0.93553130016E+02 -0.10265409474E+02  0.98482042643E+02  0.13622143550E+03  0.00000000000E+00 0. -1.
        -14    1    6    6    0    0 -0.68007040148E+02 -0.83396390125E+02  0.68530229214E+02  0.12757863344E+03  0.00000000000E+00 0.  1.
</event>
<event>
12    1  0.1345781E-002  0.2517259E+03  0.7818608E-02  0.1112219E+00
          3   -1    0    0  502    0  0.00000000000E+00  0.00000000000E+00  0.42616988092E+03  0.42616988092E+03  0.00000000000E+00 0. -1.
         -3   -1    0    0    0  501 -0.00000000000E+00 -0.00000000000E+00 -0.17350313358E+03  0.17350313358E+03  0.00000000000E+00 0.  1.
          6    2    1    2  502    0 -0.17744549996E+02 -0.18489140251E+03  0.24037972058E+03  0.34918700948E+03  0.17219017901E+03 0.  0.
         24    2    3    3    0    0 -0.69278043360E+02 -0.15725237274E+03  0.21168687238E+03  0.28388014580E+03  0.79049663016E+02 0.  0.
         -6    2    1    2    0  501  0.17744549996E+02  0.18489140251E+03  0.12287026755E+02  0.25048600502E+03  0.16760837661E+03 0.  0.
        -24    2    5    5    0    0  0.41607470799E+02  0.45041951611E+02 -0.24101218023E+02  0.10394760642E+03  0.80400728477E+02 0.  0.
          5    1    3    3  502    0  0.51533493364E+02 -0.27639029773E+02  0.28692848205E+02  0.65306863676E+02  0.47000000000E+01 0. -1.
        -11    1    4    4    0    0  0.85088907019E+01 -0.19856226582E+02  0.24268515706E+01  0.21738458170E+02  0.00000000000E+00 0.  1.
         12    1    4    4    0    0 -0.77786934062E+02 -0.13739614615E+03  0.20926002080E+03  0.26214168763E+03  0.00000000000E+00 0. -1.
         -5    1    5    5    0  501 -0.23862920803E+02  0.13984945090E+03  0.36388244778E+02  0.14653839860E+03  0.47000000000E+01 0.  1.
         11    1    6    6    0    0 -0.32900001326E+01  0.19136495234E+01  0.24608032172E+02  0.24900630570E+02  0.00000000000E+00 0. -1.
        -12    1    6    6    0    0  0.44897470931E+02  0.43128302087E+02 -0.48709250195E+02  0.79046975853E+02  0.00000000000E+00 0.  1.
</event>
<event>
12    1  0.1345781E-002  0.1868710E+03  0.7818608E-02  0.1161314E+00
         -2   -1    0    0    0  501 -0.00000000000E+00  0.00000000000E+00  0.22015602689E+02  0.22015602689E+02  0.00000000000E+00 0.  1.
          2   -1    0    0  502    0  0.00000000000E+00 -0.00000000000E+00 -0.18986002854E+04  0.18986002854E+04  0.00000000000E+00 0. -1.
          6    2    1    2  502    0 -0.74506689614E+02 -0.11778252590E+02 -0.55387480997E+03  0.58493918907E+03  0.17229792732E+03 0.  0.
         24    2    3    3    0    0 -0.44876746624E+02  0.95613030627E+01 -0.12973261232E+03  0.15920217637E+03  0.80058986733E+02 0.  0.
         -6    2    1    2    0  501  0.74506689614E+02  0.11778252590E+02 -0.13227098727E+04  0.13356766990E+04  0.16964923468E+03 0.  0.
        -24    2    5    5    0    0  0.76306872875E+01 -0.35337079313E+02 -0.95367994518E+03  0.95765893274E+03  0.79361559048E+02 0.  0.
          5    1    3    3  502    0 -0.29629942990E+02 -0.21339555653E+02 -0.42414219765E+03  0.42573701270E+03  0.47000000000E+01 0. -1.
        -13    1    4    4    0    0  0.16963673067E+02 -0.58049514417E+01 -0.41877053117E+01  0.18411967330E+02  0.00000000000E+00 0.  1.
         14    1    4    4    0    0 -0.61840419691E+02  0.15366254504E+02 -0.12554490701E+03  0.14079020904E+03  0.00000000000E+00 0. -1.
         -5    1    5    5    0  501  0.66876002326E+02  0.47115331904E+02 -0.36902992755E+03  0.37801776627E+03  0.47000000000E+01 0.  1.
         11    1    6    6    0    0  0.16913622566E+02 -0.40541643529E+02 -0.24550919568E+03  0.24940822090E+03  0.00000000000E+00 0. -1.
        -12    1    6    6    0    0 -0.92829352782E+01  0.52045642151E+01 -0.70817074950E+03  0.70825071184E+03  0.00000000000E+00 0.  1.
</event>
<event>
12    1  0.1345781E-002  0.1964521E+03  0.7818608E-02  0.1152767E+00
         -2   -1    0    0    0  501 -0.00000000000E+00  0.00000000000E+00  0.30061669311E+03  0.30061669311E+03  0.00000000000E+00 0. -1.
          2   -1    0    0  502    0  0.00000000000E+00 -0.00000000000E+00 -0.12905623852E+03  0.12905623852E+03  0.00000000000E+00 0.  1.
          6    2    1    2  502    0  0.68498243352E+02  0.67828849104E+02  0.70125984166E+02  0.20834199396E+03  0.17086828459E+03 0.  0.
         24    2    3    3    0    0  0.19542246859E+02  0.10867196400E+02 -0.26300834443E+02  0.86024616541E+02  0.78794069503E+02 0.  0.
         -6    2    1    2    0  501 -0.68498243352E+02 -0.67828849104E+02  0.10143447043E+03  0.22133093767E+03  0.17148081545E+03 0.  0.
        -24    2    5    5    0    0 -0.84639108272E+02 -0.16637041272E+02  0.11626582498E+03  0.16544544951E+03  0.80086733684E+02 0.  0.
          5    1    3    3  502    0  0.48955996493E+02  0.56961652704E+02  0.96426818609E+02  0.12231737742E+03  0.47000000000E+01 0. -1.
        -11    1    4    4    0    0 -0.29238770864E+02 -0.10184066492E+01  0.18868365340E+00  0.29257109824E+02  0.00000000000E+00 0.  1.
         12    1    4    4    0    0  0.48781017723E+02  0.11885603049E+02 -0.26489518097E+02  0.56767506717E+02  0.00000000000E+00 0. -1.
         -5    1    5    5    0  501  0.16140864921E+02 -0.51191807833E+02 -0.14831354553E+02  0.55885488165E+02  0.47000000000E+01 0.  1.
         11    1    6    6    0    0 -0.27634836842E+02 -0.39225749862E+02  0.21515989153E+02  0.52585943452E+02  0.00000000000E+00 0. -1.
        -12    1    6    6    0    0 -0.57004271430E+02  0.22588708590E+02  0.94749835829E+02  0.11285950605E+03  0.00000000000E+00 0.  1.
</event>
<event>
12    1  0.1345781E-002  0.2432394E+03  0.7818608E-02  0.1117653E+00
          2   -1    0    0  502    0  0.00000000000E+00  0.00000000000E+00  0.16812801323E+03  0.16812801323E+03  0.00000000000E+00 0.  1.
         -2   -1    0    0    0  501 -0.00000000000E+00 -0.00000000000E+00 -0.35308821753E+03  0.35308821753E+03  0.00000000000E+00 0. -1.
          6    2    1    2  502    0  0.41925374228E+02  0.16911693131E+03 -0.10701814211E+03  0.26459336784E+03  0.16792407244E+03 0.  0.
         24    2    3    3    0    0 -0.32048756203E+02  0.10770394095E+03 -0.38080815937E+02  0.14619500510E+03  0.85414104837E+02 0.  0.
         -6    2    1    2    0  501 -0.41925374228E+02 -0.16911693131E+03 -0.77942062192E+02  0.25662286292E+03  0.17152858437E+03 0.  0.
        -24    2    5    5    0    0  0.88432691935E+01 -0.10196531642E+03 -0.10815112579E+03  0.16706019179E+03  0.75745049389E+02 0.  0.
          5    1    3    3  502    0  0.73974130431E+02  0.61412990363E+02 -0.68937326173E+02  0.11839836273E+03  0.47000000000E+01 0. -1.
        -11    1    4    4    0    0 -0.24762624362E+02  0.57720699453E+02  0.23042346578E+02  0.66901542931E+02  0.00000000000E+00 0.  1.
         12    1    4    4    0    0 -0.72861318416E+01  0.49983241492E+02 -0.61123162516E+02  0.79293462172E+02  0.00000000000E+00 0. -1.
         -5    1    5    5    0  501 -0.50768643421E+02 -0.67151614887E+02  0.30209063599E+02  0.89562671132E+02  0.47000000000E+01 0.  1.
         11    1    6    6    0    0 -0.20813770369E+02 -0.58034741102E+02 -0.93624141178E+02  0.11210140063E+03  0.00000000000E+00 0. -1.
        -12    1    6    6    0    0  0.29657039562E+02 -0.43930575320E+02 -0.14526984613E+02  0.54958791157E+02  0.00000000000E+00 0.  1.
</event>
<event>
12    1  0.1345781E-002  0.2745724E+03  0.7818608E-02  0.1098691E+00
         -2   -1    0    0    0  501 -0.00000000000E+00  0.00000000000E+00  0.37829348696E+02  0.37829348696E+02  0.00000000000E+00 0. -1.
          2   -1    0    0  502    0  0.00000000000E+00 -0.00000000000E+00 -0.24851540576E+04  0.24851540576E+04  0.00000000000E+00 0.  1.
          6    2    1    2  502    0 -0.20616612275E+03  0.46634796887E+02 -0.17777318591E+04  0.17985015645E+04  0.17204080960E+03 0.  0.
         24    2    3    3    0    0 -0.17975744817E+03  0.92492882980E+02 -0.15270381114E+04  0.15422403164E+04  0.76106019426E+02 0.  0.
         -6    2    1    2    0  501  0.20616612275E+03 -0.46634796887E+02 -0.66959284982E+03  0.72448184182E+03  0.17843788877E+03 0.  0.
        -24    2    5    5    0    0  0.15186419775E+03 -0.10767710032E+02 -0.27581176662E+03  0.32533177171E+03  0.81178525141E+02 0.  0.
          5    1    3    3  502    0 -0.26408674572E+02 -0.45858086093E+02 -0.25069374770E+03  0.25626124813E+03  0.47000000000E+01 0. -1.
        -11    1    4    4    0    0 -0.14174210688E+03  0.80326833882E+02 -0.13897658481E+04  0.13992827940E+04  0.00000000000E+00 0.  1.
         12    1    4    4    0    0 -0.38015341290E+02  0.12166049098E+02 -0.13727226332E+03  0.14295752236E+03  0.00000000000E+00 0. -1.
         -5    1    5    5    0  501  0.54301924997E+02 -0.35867086855E+02 -0.39378108320E+03  0.39915007010E+03  0.47000000000E+01 0.  1.
         11    1    6    6    0    0  0.63735936115E+02  0.29346031150E+02 -0.15767997118E+03  0.17258746307E+03  0.00000000000E+00 0. -1.
        -12    1    6    6    0    0  0.88128261634E+02 -0.40113741182E+02 -0.11813179543E+03  0.15274430864E+03  0.00000000000E+00 0.  1.
</event>
<event>
12    1  0.1345781E-002  0.1774330E+03  0.7818608E-02  0.1170311E+00
          1   -1    0    0  502    0  0.00000000000E+00  0.00000000000E+00  0.11281828391E+04  0.11281828391E+04  0.00000000000E+00 0.  1.
         -1   -1    0    0    0  501 -0.00000000000E+00 -0.00000000000E+00 -0.31951364521E+02  0.31951364521E+02  0.00000000000E+00 0. -1.
          6    2    1    2  502    0  0.65891995072E+01  0.42008409244E+02  0.33983852022E+03  0.38304967487E+03  0.17154798046E+03 0.  0.
         24    2    3    3    0    0  0.39555969591E+02  0.72707335156E+02  0.15568703755E+03  0.19341030515E+03  0.79486232515E+02 0.  0.
         -6    2    1    2    0  501 -0.65891995072E+01 -0.42008409244E+02  0.75639295434E+03  0.77708452872E+03  0.17297959248E+03 0.  0.
        -24    2    5    5    0    0  0.35536274696E+02 -0.78483732427E+02  0.42077217556E+03  0.43683696896E+03  0.79716940796E+02 0.  0.
          5    1    3    3  502    0 -0.32966770084E+02 -0.30698925912E+02  0.18415148267E+03  0.18963936973E+03  0.47000000000E+01 0. -1.
        -11    1    4    4    0    0  0.17652625675E+02  0.73758760557E+02  0.64304614516E+02  0.99433663314E+02  0.00000000000E+00 0.  1.
         12    1    4    4    0    0  0.21903343917E+02 -0.10514254009E+01  0.91382423036E+02  0.93976641832E+02  0.00000000000E+00 0. -1.
         -5    1    5    5    0  501 -0.42125474203E+02  0.36475323183E+02  0.33562077878E+03  0.34024755977E+03  0.47000000000E+01 0.  1.
         13    1    6    6    0    0  0.21153506067E+01 -0.85605122648E+01 -0.17035799146E+00  0.88196428652E+01  0.00000000000E+00 0. -1.
        -14    1    6    6    0    0  0.33420924089E+02 -0.69923220162E+02  0.42094253355E+03  0.42801732609E+03  0.00000000000E+00 0.  1.
</event>
<event>
12    1  0.1345781E-002  0.1836645E+03  0.7818608E-02  0.1164303E+00
         -1   -1    0    0    0  501 -0.00000000000E+00  0.00000000000E+00  0.72854839705E+02  0.72854839705E+02  0.00000000000E+00 0.  1.
          1   -1    0    0  502    0  0.00000000000E+00 -0.00000000000E+00 -0.50612348612E+03  0.50612348612E+03  0.00000000000E+00 0. -1.
          6    2    1    2  502    0  0.56404045285E+02 -0.29779219468E+02 -0.30187293873E+03  0.35372091961E+03  0.17298265692E+03 0.  0.
         24    2    3    3    0    0  0.86868462718E+02 -0.54808615515E+02 -0.20997481346E+03  0.25361144541E+03  0.98383071741E+02 0.  0.
         -6    2    1    2    0  501 -0.56404045285E+02  0.29779219468E+02 -0.13139570769E+03  0.22525740622E+03  0.17148716810E+03 0.  0.
        -24    2    5    5    0    0 -0.61883015427E+02  0.80549306984E+02 -0.11633721300E+03  0.17181146005E+03  0.75280357470E+02 0.  0.
          5    1    3    3  502    0 -0.30464417433E+02  0.25029396046E+02 -0.91898125274E+02  0.10010947420E+03  0.47000000000E+01 0. -1.
        -11    1    4    4    0    0  0.24771886109E+02 -0.29674339685E+02 -0.62524558156E+01  0.39157451154E+02  0.00000000000E+00 0.  1.
         12    1    4    4    0    0  0.62096576609E+02 -0.25134275830E+02 -0.20372235764E+03  0.21445399425E+03  0.00000000000E+00 0. -1.
         -5    1    5    5    0  501  0.54789701417E+01 -0.50770087515E+02 -0.15058494687E+02  0.53445946173E+02  0.47000000000E+01 0.  1.
         13    1    6    6    0    0 -0.11166392853E+02  0.37960348054E+02 -0.93884341077E+02  0.10188201928E+03  0.00000000000E+00 0. -1.
        -14    1    6    6    0    0 -0.50716622574E+02  0.42588958930E+02 -0.22452871926E+02  0.69929440765E+02  0.00000000000E+00 0.  1.
</event>
<event>
12    1  0.1345781E-002  0.1843747E+03  0.7818608E-02  0.1163635E+00
          2   -1    0    0  502    0  0.00000000000E+00  0.00000000000E+00  0.11545797777E+04  0.11545797777E+04  0.00000000000E+00 0.  1.
         -2   -1    0    0    0  501 -0.00000000000E+00 -0.00000000000E+00 -0.32792615718E+02  0.32792615718E+02  0.00000000000E+00 0. -1.
          6    2    1    2  502    0  0.62681115474E+02  0.28766118489E+02  0.36789983507E+03  0.41097924027E+03  0.16969748223E+03 0.  0.
         24    2    3    3    0    0  0.83985911555E+02  0.48055523971E+02  0.35907451557E+03  0.38054978473E+03  0.80750629739E+02 0.  0.
         -6    2    1    2    0  501 -0.62681115474E+02 -0.28766118489E+02  0.75388732694E+03  0.77639315318E+03  0.17228991490E+03 0.  0.
        -24    2    5    5    0    0 -0.70184815878E+02 -0.51854328083E+02  0.73709715970E+03  0.74650384643E+03  0.79630334560E+02 0.  0.
          5    1    3    3  502    0 -0.21304796081E+02 -0.19289405482E+02  0.88253195018E+01  0.30429455536E+02  0.47000000000E+01 0. -1.
        -13    1    4    4    0    0 -0.64652276177E+01  0.12639301003E+02  0.14229831338E+03  0.14300475897E+03  0.00000000000E+00 0.  1.
         14    1    4    4    0    0  0.90451139173E+02  0.35416222968E+02  0.21677620220E+03  0.23754502577E+03  0.00000000000E+00 0. -1.
         -5    1    5    5    0  501  0.75037004041E+01  0.23088209594E+02  0.16790167247E+02  0.29889306753E+02  0.47000000000E+01 0.  1.
         13    1    6    6    0    0 -0.98476691455E+01 -0.55160330710E+02  0.41760814142E+03  0.42135044613E+03  0.00000000000E+00 0. -1.
        -14    1    6    6    0    0 -0.60337146733E+02  0.33060026275E+01  0.31948901827E+03  0.32515340030E+03  0.00000000000E+00 0.  1.
</event>
<event>
12    1  0.1345781E-002  0.1977291E+03  0.7818608E-02  0.1151669E+00
          2   -1    0    0  502    0  0.00000000000E+00  0.00000000000E+00  0.19026249890E+04  0.19026249890E+04  0.00000000000E+00 0.  1.
         -2   -1    0    0    0  501 -0.00000000000E+00 -0.00000000000E+00 -0.20550596442E+02  0.20550596442E+02  0.00000000000E+00 0. -1.
          6    2    1    2  502    0 -0.96080607867E+02 -0.19565422257E+02  0.95150669631E+03  0.97191563751E+03  0.17216481741E+03 0.  0.
         24    2    3    3    0    0 -0.37489297374E+02 -0.63840242089E+02  0.74257953528E+03  0.75040751136E+03  0.78778442182E+02 0.  0.
         -6    2    1    2    0  501  0.96080607867E+02  0.19565422257E+02  0.93056769622E+03  0.95125994790E+03  0.17124532777E+03 0.  0.
        -24    2    5    5    0    0  0.11900036591E+03  0.41039695412E+01  0.50769361852E+03  0.52745698965E+03  0.79247309100E+02 0.  0.
          5    1    3    3  502    0 -0.58591310493E+02  0.44274819832E+02  0.20892716103E+03  0.22150812615E+03  0.47000000000E+01 0. -1.
        -11    1    4    4    0    0 -0.44968703790E+02 -0.26679934997E+01  0.37522967893E+03  0.37792408558E+03  0.00000000000E+00 0.  1.
         12    1    4    4    0    0  0.74794064168E+01 -0.61172248589E+02  0.36734985635E+03  0.37248342578E+03  0.00000000000E+00 0. -1.
         -5    1    5    5    0  501 -0.22919758044E+02  0.15461452716E+02  0.42287407770E+03  0.42380295825E+03  0.47000000000E+01 0.  1.
         13    1    6    6    0    0 -0.65627491436E+01  0.13301383088E+02  0.89578548050E+02  0.90798197885E+02  0.00000000000E+00 0. -1.
        -14    1    6    6    0    0  0.12556311505E+03 -0.91974135470E+01  0.41811507047E+03  0.43665879177E+03  0.00000000000E+00 0.  1.
</event>
<event>
12    1  0.1345781E-002  0.2075445E+03  0.7818608E-02  0.1143525E+00
          2   -1    0    0  502    0  0.00000000000E+00  0.00000000000E+00  0.11435842635E+03  0.11435842635E+03  0.00000000000E+00 0.  1.
         -2   -1    0    0    0  501 -0.00000000000E+00 -0.00000000000E+00 -0.55860098106E+03  0.55860098106E+03  0.00000000000E+00 0. -1.
          6    2    1    2  502    0  0.12236376868E+03 -0.61440635253E+01 -0.31285285805E+02  0.21150887716E+03  0.16954820733E+03 0.  0.
         24    2    3    3    0    0  0.13597391676E+03 -0.40072754525E+02 -0.25351505515E+00  0.16332741807E+03  0.81123668118E+02 0.  0.
         -6    2    1    2    0  501 -0.12236376868E+03  0.61440635253E+01 -0.41295726891E+03  0.46145053025E+03  0.16550602564E+03 0.  0.
        -24    2    5    5    0    0 -0.13605486815E+03  0.10083183131E+01 -0.23407086843E+03  0.28190594982E+03  0.78548387919E+02 0.  0.
          5    1    3    3  502    0 -0.13610148089E+02  0.33928691000E+02 -0.31031770750E+02  0.48181459088E+02  0.47000000000E+01 0. -1.
        -11    1    4    4    0    0  0.19187020565E+00  0.55107649735E+01  0.18105290648E+02  0.18926354488E+02  0.00000000000E+00 0.  1.
         12    1    4    4    0    0  0.13578204656E+03 -0.45583519498E+02 -0.18358805703E+02  0.14440106358E+03  0.00000000000E+00 0. -1.
         -5    1    5    5    0  501  0.13691099480E+02  0.51357452122E+01 -0.17888640048E+03  0.17954458043E+03  0.47000000000E+01 0.  1.
         11    1    6    6    0    0 -0.10122700934E+03 -0.34630268399E+01 -0.22326754975E+03  0.24516789910E+03  0.00000000000E+00 0. -1.
        -12    1    6    6    0    0 -0.34827858810E+02  0.44713451530E+01 -0.10803318678E+02  0.36738050728E+02  0.00000000000E+00 0.  1.
</event>
<event>
12    1  0.1345781E-002  0.1839071E+03  0.7818608E-02  0.1164074E+00
          1   -1    0    0  502    0  0.00000000000E+00  0.00000000000E+00  0.20090043071E+03  0.20090043071E+03  0.00000000000E+00 0. -1.
         -1   -1    0    0    0  501 -0.00000000000E+00 -0.00000000000E+00 -0.16960780310E+03  0.16960780310E+03  0.00000000000E+00 0.  1.
          6    2    1    2  502    0  0.72766464683E+00 -0.66421690427E+02 -0.31572597855E+00  0.18369694648E+03  0.17126616131E+03 0.  0.
         24    2    3    3    0    0 -0.33179077536E+01 -0.94148026691E+02 -0.44935592946E+02  0.13079950886E+03  0.78831748447E+02 0.  0.
         -6    2    1    2    0  501 -0.72766464683E+00  0.66421690427E+02  0.31608353585E+02  0.18681128732E+03  0.17171778766E+03 0.  0.
        -24    2    5    5    0    0 -0.65989717720E+02  0.48597257082E+02  0.30837555213E+02  0.11899145154E+03  0.80570928302E+02 0.  0.
          5    1    3    3  502    0  0.40455724004E+01  0.27726336264E+02  0.44619866967E+02  0.52897437620E+02  0.47000000000E+01 0. -1.
        -13    1    4    4    0    0 -0.96101511908E+01 -0.50049412866E+01 -0.39842537699E+02  0.41289614354E+02  0.00000000000E+00 0.  1.
         14    1    4    4    0    0  0.62922434372E+01 -0.89143085404E+02 -0.50930552465E+01  0.89509894507E+02  0.00000000000E+00 0. -1.
         -5    1    5    5    0  501  0.65262053074E+02  0.17824433345E+02  0.77079837263E+00  0.67819835783E+02  0.47000000000E+01 0.  1.
         13    1    6    6    0    0 -0.13835525443E+02 -0.20675268114E+02  0.19363044770E+02  0.31524847004E+02  0.00000000000E+00 0. -1.
        -14    1    6    6    0    0 -0.52154192277E+02  0.69272525196E+02  0.11474510442E+02  0.87466604536E+02  0.00000000000E+00 0.  1.
</event>
<event>
12    1  0.1345781E-002  0.2162725E+03  0.7818608E-02  0.1136693E+00
          2   -1    0    0  502    0  0.00000000000E+00  0.00000000000E+00  0.21939077205E+04  0.21939077205E+04  0.00000000000E+00 0. -1.
         -2   -1    0    0    0  501 -0.00000000000E+00 -0.00000000000E+00 -0.30672138056E+02  0.30672138056E+02  0.00000000000E+00 0.  1.
          6    2    1    2  502    0 -0.12054221818E+03 -0.58531917812E+02  0.47389668446E+03  0.52168542298E+03  0.17210810917E+03 0.  0.
         24    2    3    3    0    0 -0.13075770258E+03 -0.11377631066E+02  0.25580052819E+03  0.29826674368E+03  0.79385848170E+02 0.  0.
         -6    2    1    2    0  501  0.12054221818E+03  0.58531917812E+02  0.16893388980E+04  0.17028944355E+04  0.16741306613E+03 0.  0.
        -24    2    5    5    0    0  0.37347967328E+02 -0.14569334239E+02  0.10675430288E+04  0.10712954573E+04  0.80116804285E+02 0.  0.
          5    1    3    3  502    0  0.10215484406E+02 -0.47154286746E+02  0.21809615626E+03  0.22341867929E+03  0.47000000000E+01 0. -1.
        -11    1    4    4    0    0 -0.10115372135E+02 -0.10333828241E+02 -0.10436318379E+01  0.14498204267E+02  0.00000000000E+00 0.  1.
         12    1    4    4    0    0 -0.12064233045E+03 -0.10438028254E+01  0.25684416003E+03  0.28376853942E+03  0.00000000000E+00 0. -1.
         -5    1    5    5    0  501  0.83194250850E+02  0.73101252051E+02  0.62179586916E+03  0.63159897825E+03  0.47000000000E+01 0.  1.
         11    1    6    6    0    0  0.35053091062E+02 -0.48639798101E+01  0.16752089313E+03  0.17121806893E+03  0.00000000000E+00 0. -1.
        -12    1    6    6    0    0  0.22948762651E+01 -0.97053544288E+01  0.90002213566E+03  0.90007738836E+03  0.00000000000E+00 0.  1.
</event>
<event>
12    1  0.1345781E-002  0.1732973E+03  0.7818608E-02  0.1174452E+00
         -1   -1    0    0    0  501 -0.00000000000E+00  0.00000000000E+00  0.12774532037E+02  0.12774532037E+02  0.00000000000E+00 0. -1.
          1   -1    0    0  502    0  0.00000000000E+00 -0.00000000000E+00 -0.26711609835E+04  0.26711609835E+04  0.00000000000E+00 0.  1.
          6    2    1    2  502    0 -0.10897375588E+02 -0.17218487765E+02 -0.17938013071E+04  0.18021522757E+04  0.17208854223E+03 0.  0.
         24    2    3    3    0    0  0.33960745640E+02  0.45015909875E+02 -0.95136816672E+03  0.95622021147E+03  0.77948314889E+02 0.  0.
         -6    2    1    2    0  501  0.10897375588E+02  0.17218487765E+02 -0.86458514441E+03  0.88178323987E+03  0.17210165914E+03 0.  0.
        -24    2    5    5    0    0 -0.33587898043E+02  0.63898064412E+02 -0.59280302259E+03  0.60241693162E+03  0.79244093688E+02 0.  0.
          5    1    3    3  502    0 -0.44858121228E+02 -0.62234397640E+02 -0.84243314036E+03  0.84593206422E+03  0.47000000000E+01 0. -1.
        -13    1    4    4    0    0  0.26820912898E+02  0.33366008640E+02 -0.92915764397E+03  0.93014331114E+03  0.00000000000E+00 0.  1.
         14    1    4    4    0    0  0.71398327427E+01  0.11649901235E+02 -0.22210522748E+02  0.26076900336E+02  0.00000000000E+00 0. -1.
         -5    1    5    5    0  501  0.44485273631E+02 -0.46679576647E+02 -0.27178212182E+03  0.27936630825E+03  0.47000000000E+01 0.  1.
         13    1    6    6    0    0 -0.16001446678E+02 -0.10966535447E+02 -0.41905663290E+02  0.46177871446E+02  0.00000000000E+00 0. -1.
        -14    1    6    6    0    0 -0.17586451365E+02  0.74864599859E+02 -0.55089735930E+03  0.55623906018E+03  0.00000000000E+00 0.  1.
</event>
<event>
12    1  0.1345781E-002  0.1859240E+03  0.7818608E-02  0.1162190E+00
         -1   -1    0    0    0  501 -0.00000000000E+00  0.00000000000E+00  0.44000851500E+02  0.44000851500E+02  0.00000000000E+00 0.  1.
          1   -1    0    0  502    0  0.00000000000E+00 -0.00000000000E+00 -0.87802521303E+03  0.87802521303E+03  0.00000000000E+00 0. -1.
          6    2    1    2  502    0 -0.67906910660E+02 -0.16428331789E+02 -0.56939887180E+03  0.59943152770E+03  0.17384430562E+03 0.  0.
         24    2    3    3    0    0 -0.24437848141E+02 -0.44067132662E+01 -0.11175068973E+03  0.13954238099E+03  0.79794936526E+02 0.  0.
         -6    2    1    2    0  501  0.67906910660E+02  0.16428331789E+02 -0.26462548973E+03  0.32259453683E+03  0.17076108097E+03 0.  0.
        -24    2    5    5    0    0 -0.76458768962E+01  0.18281267064E+02 -0.21712414196E+03  0.23320703705E+03  0.82764515030E+02 0.  0.
          5    1    3    3  502    0 -0.43469062518E+02 -0.12021618523E+02 -0.45764818207E+03  0.45988914671E+03  0.47000000000E+01 0. -1.
        -13    1    4    4    0    0 -0.47443432307E+02 -0.19920886466E+02 -0.92240034314E+02  0.10562170666E+03  0.00000000000E+00 0.  1.
         14    1    4    4    0    0  0.23005584166E+02  0.15514173200E+02 -0.19510655415E+02  0.33920674339E+02  0.00000000000E+00 0. -1.
         -5    1    5    5    0  501  0.75552787556E+02 -0.18529352746E+01 -0.47501347772E+02  0.89387499779E+02  0.47000000000E+01 0.  1.
         11    1    6    6    0    0  0.37032999792E+02  0.14938376534E+02 -0.91568574062E+02  0.99896956524E+02  0.00000000000E+00 0. -1.
        -12    1    6    6    0    0 -0.44678876688E+02  0.33428905300E+01 -0.12555556790E+03  0.13331008052E+03  0.00000000000E+00 0.  1.
</event>
<event>
12    1  0.1345781E-002  0.1838941E+03  0.7818608E-02  0.1164087E+00
          2   -1    0    0  502    0  0.00000000000E+00  0.00000000000E+00  0.97602232866E+03  0.97602232866E+03  0.00000000000E+00 0.  1.
         -2   -1    0    0    0  501 -0.00000000000E+00 -0.00000000000E+00 -0.40396957564E+02  0.40396957564E+02  0.00000000000E+00 0. -1.
          6    2    1    2  502    0  0.59126201622E+02 -0.28610302950E+02  0.65920969921E+03  0.68433905783E+03  0.17160437460E+03 0.  0.
         24    2    3    3    0    0  0.65119549174E+02 -0.39917228542E+02  0.22584288412E+03  0.25075786219E+03  0.77721015993E+02 0.  0.
         -6    2    1    2    0  501 -0.59126201622E+02  0.28610302950E+02  0.27641567188E+03  0.33208022839E+03  0.17192206745E+03 0.  0.
        -24    2    5    5    0    0 -0.80929879893E+02  0.29392157663E+02  0.95999457922E+02  0.15028883162E+03  0.77183499505E+02 0.  0.
          5    1    3    3  502    0 -0.59933475520E+01  0.11306925592E+02  0.43336681510E+03  0.43358119563E+03  0.47000000000E+01 0. -1.
        -11    1    4    4    0    0  0.15664493099E+02 -0.20951960638E+02  0.17630588786E+03  0.17823615540E+03  0.00000000000E+00 0.  1.
         12    1    4    4    0    0  0.49455056074E+02 -0.18965267904E+02  0.49536996261E+02  0.72521706795E+02  0.00000000000E+00 0. -1.
         -5    1    5    5    0  501  0.21803678271E+02 -0.78185471254E+00  0.18041621396E+03  0.18179139678E+03  0.47000000000E+01 0.  1.
         13    1    6    6    0    0 -0.41666178332E+02  0.54314977423E+02  0.64994133521E+02  0.94395045322E+02  0.00000000000E+00 0. -1.
        -14    1    6    6    0    0 -0.39263701560E+02 -0.24922819761E+02  0.31005324402E+02  0.55893786294E+02  0.00000000000E+00 0.  1.
</event>
<event>
12    1  0.1345781E-002  0.1770385E+03  0.7818608E-02  0.1170700E+00
          2   -1    0    0  502    0  0.00000000000E+00  0.00000000000E+00  0.12343794441E+04  0.12343794441E+04  0.00000000000E+00 0. -1.
         -2   -1    0    0    0  501 -0.00000000000E+00 -0.00000000000E+00 -0.26426159624E+02  0.26426159624E+02  0.00000000000E+00 0.  1.
          6    2    1    2  502    0 -0.16112571406E+02 -0.37480483690E+02  0.47887252337E+03  0.51051211527E+03  0.17216075213E+03 0.  0.
         24    2    3    3    0    0  0.39487709642E+02 -0.62148327990E+02  0.21984284116E+03  0.24439492292E+03  0.77306595153E+02 0.  0.
         -6    2    1    2    0  501  0.16112571406E+02  0.37480483690E+02  0.72908076109E+03  0.75029348844E+03  0.17238666131E+03 0.  0.
        -24    2    5    5    0    0 -0.47553153016E+01 -0.41880169722E+02  0.40333815962E+03  0.41434123824E+03  0.84973107873E+02 0.  0.
          5    1    3    3  502    0 -0.55600281048E+02  0.24667844300E+02  0.25902968221E+03  0.26611719234E+03  0.47000000000E+01 0. -1.
        -13    1    4    4    0    0  0.31318575390E+02 -0.63114075096E+02  0.22425323393E+03  0.23506116771E+03  0.00000000000E+00 0.  1.
         14    1    4    4    0    0  0.81691342520E+01  0.96574710640E+00 -0.44103927660E+01  0.93337552063E+01  0.00000000000E+00 0. -1.
         -5    1    5    5    0  501  0.20867886708E+02  0.79360653412E+02  0.32574260147E+03  0.33595225020E+03  0.47000000000E+01 0.  1.
         13    1    6    6    0    0  0.34380087784E+02 -0.10841547183E+02  0.88418128586E+02  0.95484527773E+02  0.00000000000E+00 0. -1.
        -14    1    6    6    0    0 -0.39135403086E+02 -0.31038622539E+02  0.31492003103E+03  0.31885671046E+03  0.00000000000E+00 0.  1.
</event>
<event>
12    1  0.1345781E-002  0.1728181E+03  0.7818608E-02  0.1174940E+00
          2   -1    0    0  502    0  0.00000000000E+00  0.00000000000E+00  0.11567690998E+04  0.11567690998E+04  0.00000000000E+00 0.  1.
         -2   -1    0    0    0  501 -0.00000000000E+00 -0.00000000000E+00 -0.27730907545E+02  0.27730907545E+02  0.00000000000E+00 0. -1.
          6    2    1    2  502    0 -0.18129709336E+02 -0.10498551091E+02  0.71755748972E+03  0.73788624754E+03  0.17072919293E+03 0.  0.
         24    2    3    3    0    0  0.36452766538E+02 -0.20254911531E+02  0.61115069160E+03  0.61780739875E+03  0.80260503815E+02 0.  0.
         -6    2    1    2    0  501  0.18129709336E+02  0.10498551091E+02  0.41148070252E+03  0.44661375979E+03  0.17236175896E+03 0.  0.
        -24    2    5    5    0    0  0.12781997199E+02 -0.50985200551E+02  0.20432946569E+03  0.23041344836E+03  0.92611859441E+02 0.  0.
          5    1    3    3  502    0 -0.54582475874E+02  0.97563604400E+01  0.10640679812E+03  0.12007884880E+03  0.47000000000E+01 0. -1.
        -13    1    4    4    0    0  0.57773136258E+02  0.19114749447E+01  0.45495770182E+03  0.45861519758E+03  0.00000000000E+00 0.  1.
         14    1    4    4    0    0 -0.21320369720E+02 -0.22166386476E+02  0.15619298978E+03  0.15919220116E+03  0.00000000000E+00 0. -1.
         -5    1    5    5    0  501  0.53477121372E+01  0.61483751642E+02  0.20715123683E+03  0.21620031143E+03  0.47000000000E+01 0.  1.
         11    1    6    6    0    0  0.19174168436E+02  0.11685487756E+02  0.73825777484E+01  0.23636874022E+02  0.00000000000E+00 0. -1.
        -12    1    6    6    0    0 -0.63921712371E+01 -0.62670688307E+02  0.19694688794E+03  0.20677657434E+03  0.00000000000E+00 0.  1.
</event>
<event>
12    1  0.1345781E-002  0.2415862E+03  0.7818608E-02  0.1118741E+00
         -2   -1    0    0    0  501 -0.00000000000E+00  0.00000000000E+00  0.20076554842E+04  0.20076554842E+04  0.00000000000E+00 0. -1.
          2   -1    0    0  502    0  0.00000000000E+00 -0.00000000000E+00 -0.29118061249E+02  0.29118061249E+02  0.00000000000E+00 0.  1.
          6    2    1    2  502    0  0.51062347053E+02  0.16218103481E+03  0.10299086064E+04  0.10578389706E+04  0.17146865301E+03 0.  0.
         24    2    3    3    0    0  0.83899123312E+02  0.15962644281E+03  0.73087696482E+03  0.75696226422E+03  0.79316250560E+02 0.  0.
         -6    2    1    2    0  501 -0.51062347053E+02 -0.16218103481E+03  0.94862881657E+03  0.97893457481E+03  0.17177374302E+03 0.  0.
        -24    2    5    5    0    0  0.74582769517E+01 -0.11623617388E+03  0.80353304883E+03  0.81580742963E+03  0.79435053065E+02 0.  0.
          5    1    3    3  502    0 -0.32836776259E+02  0.25545920083E+01  0.29903164156E+03  0.30087670642E+03  0.47000000000E+01 0. -1.
        -11    1    4    4    0    0  0.63531624027E+02  0.80571493049E+02  0.26857189558E+03  0.28750460143E+03  0.00000000000E+00 0.  1.
         12    1    4    4    0    0  0.20367499286E+02  0.79054949757E+02  0.46230506924E+03  0.46945766279E+03  0.00000000000E+00 0. -1.
         -5    1    5    5    0  501 -0.58520624005E+02 -0.45944860932E+02  0.14509576774E+03  0.16312714518E+03  0.47000000000E+01 0.  1.
         13    1    6    6    0    0 -0.28000422043E+02 -0.82913454787E+02  0.40715890568E+03  0.41645772786E+03  0.00000000000E+00 0. -1.
        -14    1    6    6    0    0  0.35458698995E+02 -0.33322719096E+02  0.39637414315E+03  0.39934970177E+03  0.00000000000E+00 0.  1.
</event>
<event>
12    1  0.1345781E-002  0.2488872E+03  0.7818608E-02  0.1114010E+00
         -1   -1    0    0    0  501 -0.00000000000E+00  0.00000000000E+00  0.30625896833E+02  0.30625896833E+02  0.00000000000E+00 0.  1.
          1   -1    0    0  502    0  0.00000000000E+00 -0.00000000000E+00 -0.21089347644E+04  0.21089347644E+04  0.00000000000E+00 0. -1.
          6    2    1    2  502    0  0.15908300262E+03 -0.84370673782E+02 -0.12541916795E+04  0.12785818541E+04  0.17131542948E+03 0.  0.
         24    2    3    3    0    0  0.13922104465E+03 -0.74931159238E+02 -0.12388573233E+04  0.12513635828E+04  0.78397519588E+02 0.  0.
         -6    2    1    2    0  501 -0.15908300262E+03  0.84370673782E+02 -0.82411718806E+03  0.86097880713E+03  0.17230657083E+03 0.  0.
        -24    2    5    5    0    0 -0.17190249964E+03  0.53114670435E+02 -0.78414088493E+03  0.80842909675E+03  0.79429462124E+02 0.  0.
          5    1    3    3  502    0  0.19861957971E+02 -0.94395145434E+01 -0.15334356175E+02  0.27218271227E+02  0.47000000000E+01 0. -1.
        -13    1    4    4    0    0  0.71258839407E+02 -0.41475950839E+02 -0.36344285130E+03  0.37267785399E+03  0.00000000000E+00 0.  1.
         14    1    4    4    0    0  0.67962205244E+02 -0.33455208400E+02 -0.87541447199E+03  0.87868572884E+03  0.00000000000E+00 0. -1.
         -5    1    5    5    0  501  0.12819497019E+02  0.31256003347E+02 -0.39976303129E+02  0.52549710378E+02  0.47000000000E+01 0.  1.
         13    1    6    6    0    0 -0.31671676089E+02  0.21196231163E+02 -0.67641798431E+02  0.77638831630E+02  0.00000000000E+00 0. -1.
        -14    1    6    6    0    0 -0.14023082355E+03  0.31918439272E+02 -0.71649908650E+03  0.73079026512E+03  0.00000000000E+00 0.  1.
</event>
<event>
12    1  0.1345781E-002  0.2566177E+03  0.7818608E-02  0.1109193E+00
          1   -1    0    0  502    0  0.00000000000E+00  0.00000000000E+00  0.24998219768E+04  0.24998219768E+04  0.00000000000E+00 0.  1.
         -1   -1    0    0    0  501 -0.00000000000E+00 -0.00000000000E+00 -0.34498526563E+02  0.34498526563E+02  0.00000000000E+00 0. -1.
          6    2    1    2  502    0 -0.10837066828E+03 -0.16201677571E+03  0.18191459049E+04  0.18361038113E+04  0.15489268885E+03 0.  0.
         24    2    3    3    0    0 -0.63284385414E+02 -0.15528352833E+03  0.16667476280E+04  0.16769641420E+04  0.77737961027E+02 0.  0.
         -6    2    1    2    0  501  0.10837066828E+03  0.16201677571E+03  0.64617754531E+03  0.69821669208E+03  0.17879455158E+03 0.  0.
        -24    2    5    5    0    0  0.74359065138E+02  0.18656131985E+03  0.52981351751E+03  0.57443502639E+03  0.94545436535E+02 0.  0.
          5    1    3    3  502    0 -0.45086282862E+02 -0.67332473770E+01  0.15239827691E+03  0.15913966924E+03  0.47000000000E+01 0. -1.
        -13    1    4    4    0    0 -0.76704015915E+02 -0.92197378837E+02  0.10304084564E+04  0.10373646658E+04  0.00000000000E+00 0.  1.
         14    1    4    4    0    0  0.13419630501E+02 -0.63086149494E+02  0.63633917158E+03  0.63959947626E+03  0.00000000000E+00 0. -1.
         -5    1    5    5    0  501  0.34011603138E+02 -0.24544544142E+02  0.11636402780E+03  0.12378166569E+03  0.47000000000E+01 0.  1.
         11    1    6    6    0    0  0.85282615794E+02  0.91507579271E+02  0.27013382726E+03  0.29768951317E+03  0.00000000000E+00 0. -1.
        -12    1    6    6    0    0 -0.10923550656E+02  0.95053740578E+02  0.25967969025E+03  0.27674551322E+03  0.00000000000E+00 0.  1.
</event>
<event>
12    1  0.1345781E-002  0.2401339E+03  0.7818608E-02  0.1119704E+00
         -2   -1    0    0    0  501 -0.00000000000E+00  0.00000000000E+00  0.61003774901E+02  0.61003774901E+02  0.00000000000E+00 0. -1.
          2   -1    0    0  502    0  0.00000000000E+00 -0.00000000000E+00 -0.11081224440E+04  0.11081224440E+04  0.00000000000E+00 0.  1.
          6    2    1    2  502    0  0.38618227817E+02  0.16287354479E+03 -0.74792844679E+03  0.78557598135E+03  0.17237604777E+03 0.  0.
         24    2    3    3    0    0 -0.13082987386E+02  0.66207700822E+02 -0.54487513642E+03  0.55477295300E+03  0.79558097538E+02 0.  0.
         -6    2    1    2    0  501 -0.38618227817E+02 -0.16287354479E+03 -0.29919022229E+03  0.38355023753E+03  0.17197917456E+03 0.  0.
        -24    2    5    5    0    0 -0.49701544444E+02 -0.51009811141E+02 -0.22320613994E+03  0.24778571498E+03  0.80650699243E+02 0.  0.
          5    1    3    3  502    0  0.51701215203E+02  0.96665843968E+02 -0.20305331037E+03  0.23080302835E+03  0.47000000000E+01 0. -1.
        -13    1    4    4    0    0 -0.98425261421E+01  0.78968570615E+02 -0.32865562080E+03  0.33815296472E+03  0.00000000000E+00 0.  1.
         14    1    4    4    0    0 -0.32404612439E+01 -0.12760869793E+02 -0.21621951563E+03  0.21661998829E+03  0.00000000000E+00 0. -1.
         -5    1    5    5    0  501  0.11083316626E+02 -0.11186373365E+03 -0.75984082355E+02  0.13576452256E+03  0.47000000000E+01 0.  1.
         13    1    6    6    0    0 -0.70898770150E+02 -0.27944611628E+02 -0.16195484776E+03  0.17898857406E+03  0.00000000000E+00 0. -1.
        -14    1    6    6    0    0  0.21197225707E+02 -0.23065199513E+02 -0.61251292172E+02  0.68797140922E+02  0.00000000000E+00 0.  1.
</event>
<event>
12    1  0.1345781E-002  0.2132302E+03  0.7818608E-02  0.1139033E+00
          2   -1    0    0  502    0  0.00000000000E+00  0.00000000000E+00  0.26352390455E+04  0.26352390455E+04  0.00000000000E+00 0. -1.
         -2   -1    0    0    0  501 -0.00000000000E+00 -0.00000000000E+00 -0.17624814776E+02  0.17624814776E+02  0.00000000000E+00 0.  1.
          6    2    1    2  502    0 -0.22028149116E+01 -0.11456870328E+03  0.15384350836E+04  0.15541347009E+04  0.18820553078E+03 0.  0.
         24    2    3    3    0    0 -0.14932193028E+02 -0.11959095887E+03  0.66143485264E+03  0.67701512224E+03  0.79551515453E+02 0.  0.
         -6    2    1    2    0  501  0.22028149116E+01  0.11456870328E+03  0.10791791471E+04  0.10987291594E+04  0.17160213864E+03 0.  0.
        -24    2    5    5    0    0  0.36561356766E+02  0.11878704533E+03  0.10150532388E+04  0.10257050132E+04  0.79313312887E+02 0.  0.
          5    1    3    3  502    0  0.12729378117E+02  0.50222555943E+01  0.87700023098E+03  0.87711957865E+03  0.47000000000E+01 0. -1.
        -11    1    4    4    0    0  0.10997233021E+02 -0.37738882759E+01  0.11573782008E+02  0.16405297827E+02  0.00000000000E+00 0.  1.
         12    1    4    4    0    0 -0.25929426049E+02 -0.11581707060E+03  0.64986107064E+03  0.66060982441E+03  0.00000000000E+00 0. -1.
         -5    1    5    5    0  501 -0.34358541854E+02 -0.42183420538E+01  0.64125908303E+02  0.73024146169E+02  0.47000000000E+01 0.  1.
         11    1    6    6    0    0  0.19870886472E+02  0.67991035025E+02  0.83180648047E+03  0.83481713802E+03  0.00000000000E+00 0. -1.
        -12    1    6    6    0    0  0.16690470294E+02  0.50796010306E+02  0.18324675831E+03  0.19088787519E+03  0.00000000000E+00 0.  1.
</event>
<event>
12    1  0.1345781E-002  0.2311032E+03  0.7818608E-02  0.1125866E+00
          1   -1    0    0  502    0  0.00000000000E+00  0.00000000000E+00  0.60618236245E+03  0.60618236245E+03  0.00000000000E+00 0. -1.
         -1   -1    0    0    0  501 -0.00000000000E+00 -0.00000000000E+00 -0.88228321658E+02  0.88228321658E+02  0.00000000000E+00 0.  1.
          6    2    1    2  502    0 -0.12569177888E+03  0.87781039302E+02  0.27257391529E+03  0.35778701067E+03  0.17381332390E+03 0.  0.
         24    2    3    3    0    0 -0.36062128965E+02 -0.13116644088E+02  0.59754698022E+02  0.10573954312E+03  0.78343497149E+02 0.  0.
         -6    2    1    2    0  501  0.12569177888E+03 -0.87781039302E+02  0.24538012550E+03  0.33662367344E+03  0.17204696275E+03 0.  0.
        -24    2    5    5    0    0  0.11088283207E+03 -0.89031264391E+02  0.26537411713E+03  0.31127179639E+03  0.79026202614E+02 0.  0.
          5    1    3    3  502    0 -0.89629649920E+02  0.10089768339E+03  0.21281921727E+03  0.25204746755E+03  0.47000000000E+01 0. -1.
        -13    1    4    4    0    0 -0.46760708772E+02 -0.37875152604E+02  0.39017983350E+02  0.71718157355E+02  0.00000000000E+00 0.  1.
         14    1    4    4    0    0  0.10698579807E+02  0.24758508516E+02  0.20736714672E+02  0.34021385763E+02  0.00000000000E+00 0. -1.
         -5    1    5    5    0  501  0.14808946810E+02  0.12502250894E+01 -0.19993991632E+02  0.25351877047E+02  0.47000000000E+01 0.  1.
         13    1    6    6    0    0  0.93986259085E+02 -0.59133648361E+02  0.12699405887E+03  0.16869409075E+03  0.00000000000E+00 0. -1.
        -14    1    6    6    0    0  0.16896572989E+02 -0.29897616030E+02  0.13838005826E+03  0.14257770564E+03  0.00000000000E+00 0.  1.
</event>
<event>
12    1  0.1345781E-002  0.1741438E+03  0.7818608E-02  0.1173594E+00
         -1   -1    0    0    0  501 -0.00000000000E+00  0.00000000000E+00  0.55204413205E+02  0.55204413205E+02  0.00000000000E+00 0. -1.
          1   -1    0    0  502    0  0.00000000000E+00 -0.00000000000E+00 -0.59087951078E+03  0.59087951078E+03  0.00000000000E+00 0.  1.
          6    2    1    2  502    0  0.26197515103E+02 -0.78503092478E+01 -0.35286931036E+03  0.39331048609E+03  0.17154722708E+03 0.  0.
         24    2    3    3    0    0  0.70468179540E+02  0.13479053764E+02 -0.15153475560E+03  0.18601232788E+03  0.80562737971E+02 0.  0.
         -6    2    1    2    0  501 -0.26197515103E+02  0.78503092478E+01 -0.18280578722E+03  0.25277343790E+03  0.17241959841E+03 0.  0.
        -24    2    5    5    0    0 -0.15454063627E+02  0.47081968703E+02 -0.18920956783E+03  0.21132897797E+03  0.80025849019E+02 0.  0.
          5    1    3    3  502    0 -0.44270664438E+02 -0.21329363012E+02 -0.20133455476E+03  0.20729815821E+03  0.47000000000E+01 0. -1.
        -11    1    4    4    0    0  0.23169678329E+02  0.44574245509E+02 -0.58490460760E+02  0.77102732484E+02  0.00000000000E+00 0.  1.
         12    1    4    4    0    0  0.47298501211E+02 -0.31095191745E+02 -0.93044294842E+02  0.10890959539E+03  0.00000000000E+00 0. -1.
         -5    1    5    5    0  501 -0.10743451475E+02 -0.39231659455E+02  0.64037806107E+01  0.41444459935E+02  0.47000000000E+01 0.  1.
         11    1    6    6    0    0 -0.75134421457E+01 -0.19699246778E+02 -0.19257555702E+02  0.28554607126E+02  0.00000000000E+00 0. -1.
        -12    1    6    6    0    0 -0.79406214816E+01  0.66781215481E+02 -0.16995201213E+03  0.18277437084E+03  0.00000000000E+00 0.  1.
</event>
<event>
12    1  0.1345781E-002  0.2066641E+03  0.7818608E-02  0.1144235E+00
         -2   -1    0    0    0  501 -0.00000000000E+00  0.00000000000E+00  0.26309295224E+03  0.26309295224E+03  0.00000000000E+00 0. -1.
          2   -1    0    0  502    0  0.00000000000E+00 -0.00000000000E+00 -0.22806051173E+03  0.22806051173E+03  0.00000000000E+00 0.  1.
          6    2    1    2  502    0 -0.36779088857E+01  0.11552041913E+03  0.14928712930E+03  0.25419306501E+03  0.17020274110E+03 0.  0.
         24    2    3    3    0    0  0.20324894084E+02  0.47361292851E+02  0.15479664728E+03  0.18156906186E+03  0.79681420898E+02 0.  0.
         -6    2    1    2    0  501  0.36779088857E+01 -0.11552041913E+03 -0.11425468878E+03  0.23696039896E+03  0.17244594085E+03 0.  0.
        -24    2    5    5    0    0  0.40769000480E+02 -0.10266218765E+02 -0.80886797308E+02  0.12038552194E+03  0.78628832284E+02 0.  0.
          5    1    3    3  502    0 -0.24002802969E+02  0.68159126280E+02 -0.55095179787E+01  0.72624003153E+02  0.47000000000E+01 0. -1.
        -13    1    4    4    0    0 -0.24753051257E+02  0.19185094993E+02  0.21291678882E+02  0.37869737337E+02  0.00000000000E+00 0.  1.
         14    1    4    4    0    0  0.45077945340E+02  0.28176197858E+02  0.13350496839E+03  0.14369932452E+03  0.00000000000E+00 0. -1.
         -5    1    5    5    0  501 -0.37091091595E+02 -0.10525420037E+03 -0.33367891471E+02  0.11657487702E+03  0.47000000000E+01 0.  1.
         11    1    6    6    0    0 -0.87830204085E+01  0.11094973606E+02  0.81086048045E+01  0.16309180197E+02  0.00000000000E+00 0. -1.
        -12    1    6    6    0    0  0.49552020889E+02 -0.21361192371E+02 -0.88995402113E+02  0.10407634174E+03  0.00000000000E+00 0.  1.
</event>
<event>
12    1  0.1345781E-002  0.1846966E+03  0.7818608E-02  0.1163334E+00
         -1   -1    0    0    0  501 -0.00000000000E+00  0.00000000000E+00  0.77642022422E+03  0.77642022422E+03  0.00000000000E+00 0. -1.
          1   -1    0    0  502    0  0.00000000000E+00 -0.00000000000E+00 -0.43938016166E+02  0.43938016166E+02  0.00000000000E+00 0.  1.
          6    2    1    2  502    0 -0.66149686858E+02 -0.17831462827E+02  0.36353730792E+03  0.40777546423E+03  0.17154507526E+03 0.  0.
         24    2    3    3    0    0 -0.91026409881E+02 -0.54025444654E+02  0.31697862502E+03  0.34359870347E+03  0.79875304956E+02 0.  0.
         -6    2    1    2    0  501  0.66149686858E+02  0.17831462827E+02  0.36894490014E+03  0.41258277615E+03  0.17149479789E+03 0.  0.
        -24    2    5    5    0    0  0.71260142245E+02 -0.46000197954E+02  0.27591598591E+03  0.29954708906E+03  0.80030001898E+02 0.  0.
          5    1    3    3  502    0  0.24876723024E+02  0.36193981827E+02  0.46558682897E+02  0.64176760763E+02  0.47000000000E+01 0. -1.
        -11    1    4    4    0    0  0.12325792230E+01  0.11659255212E+02  0.81072740252E+02  0.81916095461E+02  0.00000000000E+00 0.  1.
         12    1    4    4    0    0 -0.92258989104E+02 -0.65684699866E+02  0.23590588477E+03  0.26168260801E+03  0.00000000000E+00 0. -1.
         -5    1    5    5    0  501 -0.51104553874E+01  0.63831660781E+02  0.93028914232E+02  0.11303568709E+03  0.47000000000E+01 0.  1.
         13    1    6    6    0    0  0.58105539683E+02 -0.47168352711E+02  0.10964319584E+03  0.13275065963E+03  0.00000000000E+00 0. -1.
        -14    1    6    6    0    0  0.13154602562E+02  0.11681547568E+01  0.16627279007E+03  0.16679642943E+03  0.00000000000E+00 0.  1.
</event>
<event>
12    1  0.1345781E-002  0.1799181E+03  0.7818608E-02  0.1167882E+00
          2   -1    0    0  502    0  0.00000000000E+00  0.00000000000E+00  0.76215768590E+03  0.76215768590E+03  0.00000000000E+00 0. -1.
         -2   -1    0    0    0  501 -0.00000000000E+00 -0.00000000000E+00 -0.79198151448E+02  0.79198151448E+02  0.00000000000E+00 0.  1.
          6    2    1    2  502    0  0.37839337202E+02 -0.32029985640E+02  0.62888096342E+03  0.65436611466E+03  0.17391380173E+03 0.  0.
         24    2    3    3    0    0  0.18263960959E+02  0.79778462325E+01  0.58768948369E+03  0.59351671064E+03  0.80535323127E+02 0.  0.
         -6    2    1    2    0  501 -0.37839337202E+02  0.32029985640E+02  0.54078571034E+02  0.18698972270E+03  0.17199688698E+03 0.  0.
        -24    2    5    5    0    0 -0.81527239599E+02  0.56144111259E+02  0.52088501729E+02  0.13682824100E+03  0.78802940916E+02 0.  0.
          5    1    3    3  502    0  0.19575376243E+02 -0.40007831872E+02  0.41191479735E+02  0.60849404015E+02  0.47000000000E+01 0. -1.
        -11    1    4    4    0    0  0.20163313707E+01  0.13440541627E+02  0.13791635390E+02  0.19362927417E+02  0.00000000000E+00 0.  1.
         12    1    4    4    0    0  0.16247629588E+02 -0.54626953948E+01  0.57389784830E+03  0.57415378322E+03  0.00000000000E+00 0. -1.
         -5    1    5    5    0  501  0.43687902397E+02 -0.24114125619E+02  0.19900693045E+01  0.50161481697E+02  0.47000000000E+01 0.  1.
         11    1    6    6    0    0 -0.45174279818E+02  0.67808737801E+02  0.13581086900E+02  0.82602581077E+02  0.00000000000E+00 0. -1.
        -12    1    6    6    0    0 -0.36352959781E+02 -0.11664626542E+02  0.38507414829E+02  0.54225659923E+02  0.00000000000E+00 0.  1.
</event>
<event>
12    1  0.1345781E-002  0.2333950E+03  0.7818608E-02  0.1124273E+00
         -2   -1    0    0    0  501 -0.00000000000E+00  0.00000000000E+00  0.55561061006E+02  0.55561061006E+02  0.00000000000E+00 0. -1.
          2   -1    0    0  502    0  0.00000000000E+00 -0.00000000000E+00 -0.11034487922E+04  0.11034487922E+04  0.00000000000E+00 0.  1.
          6    2    1    2  502    0 -0.46159428476E+02  0.15022607708E+03 -0.32994375371E+03  0.40400384844E+03  0.17221400021E+03 0.  0.
         24    2    3    3    0    0  0.24308032663E+02  0.33254654196E+02 -0.19572493039E+03  0.21247118964E+03  0.71686857761E+02 0.  0.
         -6    2    1    2    0  501  0.46159428476E+02 -0.15022607708E+03 -0.71794397751E+03  0.75500600479E+03  0.17289287249E+03 0.  0.
        -24    2    5    5    0    0 -0.17820745602E+02 -0.82767616448E+02 -0.55630150974E+03  0.56847320882E+03  0.80761142271E+02 0.  0.
          5    1    3    3  502    0 -0.70467461139E+02  0.11697142289E+03 -0.13421882332E+03  0.19153265880E+03  0.47000000000E+01 0. -1.
        -13    1    4    4    0    0  0.33193895584E+02 -0.12872313630E+02 -0.89622060246E+02  0.96434666200E+02  0.00000000000E+00 0.  1.
         14    1    4    4    0    0 -0.88858629216E+01  0.46126967826E+02 -0.10610287014E+03  0.11603652344E+03  0.00000000000E+00 0. -1.
         -5    1    5    5    0  501  0.63980174078E+02 -0.67458460635E+02 -0.16164246777E+03  0.18653279597E+03  0.47000000000E+01 0.  1.
         11    1    6    6    0    0 -0.22911872668E+02 -0.96914167596E+02 -0.51452266876E+03  0.52407145168E+03  0.00000000000E+00 0. -1.
        -12    1    6    6    0    0  0.50911270661E+01  0.14146551148E+02 -0.41778840980E+02  0.44401757148E+02  0.00000000000E+00 0.  1.
</event>
<event>
12    1  0.1345781E-002  0.1835109E+03  0.7818608E-02  0.1164448E+00
          2   -1    0    0  502    0  0.00000000000E+00  0.00000000000E+00  0.77404600267E+03  0.77404600267E+03  0.00000000000E+00 0. -1.
         -2   -1    0    0    0  501 -0.00000000000E+00 -0.00000000000E+00 -0.51771854969E+02  0.51771854969E+02  0.00000000000E+00 0.  1.
          6    2    1    2  502    0 -0.43479602695E+02  0.59194173367E+02  0.53272745856E+03  0.56483057197E+03  0.17274433106E+03 0.  0.
         24    2    3    3    0    0  0.40521816516E+02  0.25765069830E+02  0.24169497615E+03  0.26004254856E+03  0.83065089712E+02 0.  0.
         -6    2    1    2    0  501  0.43479602695E+02 -0.59194173367E+02  0.18954668914E+03  0.26098728568E+03  0.16368258890E+03 0.  0.
        -24    2    5    5    0    0  0.50386171162E+02  0.17771901530E+02  0.76360620760E+02  0.12385722534E+03  0.81578558070E+02 0.  0.
          5    1    3    3  502    0 -0.84001419211E+02  0.33429103537E+02  0.29103248241E+03  0.30478802340E+03  0.47000000000E+01 0. -1.
        -11    1    4    4    0    0  0.38728916590E+02  0.24218800492E+02  0.47738072615E+02  0.66071195346E+02  0.00000000000E+00 0.  1.
         12    1    4    4    0    0  0.17928999262E+01  0.15462693377E+01  0.19395690354E+03  0.19397135321E+03  0.00000000000E+00 0. -1.
         -5    1    5    5    0  501 -0.69065684671E+01 -0.76966074896E+02  0.11318606838E+03  0.13713006034E+03  0.47000000000E+01 0.  1.
         11    1    6    6    0    0 -0.18569833426E+02  0.11197750553E+02  0.40301172864E+02  0.45764755709E+02  0.00000000000E+00 0. -1.
        -12    1    6    6    0    0  0.68956004588E+02  0.65741509772E+01  0.36059447895E+02  0.78092469627E+02  0.00000000000E+00 0.  1.
</event>
<event>
12    1  0.1345781E-002  0.1870301E+03  0.7818608E-02  0.1161168E+00
          2   -1    0    0  502    0  0.00000000000E+00  0.00000000000E+00  0.12250719069E+04  0.12250719069E+04  0.00000000000E+00 0. -1.
         -2   -1    0    0    0  501 -0.00000000000E+00 -0.00000000000E+00 -0.37147761949E+02  0.37147761949E+02  0.00000000000E+00 0.  1.
          6    2    1    2  502    0  0.69717364584E+02 -0.26518128330E+02  0.89841419490E+03  0.91775064085E+03  0.17191408068E+03 0.  0.
         24    2    3    3    0    0 -0.62478887416E+01 -0.17289145545E+02  0.21220538286E+03  0.22727217084E+03  0.79268937515E+02 0.  0.
         -6    2    1    2    0  501 -0.69717364584E+02  0.26518128330E+02  0.28950995004E+03  0.34446902799E+03  0.17111159520E+03 0.  0.
        -24    2    5    5    0    0 -0.97826801524E+02  0.44217281801E+02  0.27881128214E+03  0.30925607620E+03  0.79864500948E+02 0.  0.
          5    1    3    3  502    0  0.75965253325E+02 -0.92289827850E+01  0.68620881204E+03  0.69047847002E+03  0.47000000000E+01 0. -1.
        -11    1    4    4    0    0  0.33295053633E+02 -0.18859459625E+02  0.13758751434E+03  0.14280953720E+03  0.00000000000E+00 0.  1.
         12    1    4    4    0    0 -0.39542942375E+02  0.15703140803E+01  0.74617868519E+02  0.84462633634E+02  0.00000000000E+00 0. -1.
         -5    1    5    5    0  501  0.28109436940E+02 -0.17699153471E+02  0.10698667905E+02  0.35212951788E+02  0.47000000000E+01 0.  1.
         11    1    6    6    0    0 -0.10817255321E+02  0.43559351315E+02  0.12084719118E+03  0.12891265925E+03  0.00000000000E+00 0. -1.
        -12    1    6    6    0    0 -0.87009546203E+02  0.65793048566E+00  0.15796409096E+03  0.18034341694E+03  0.00000000000E+00 0.  1.
</event>
<event>
12    1  0.1345781E-002  0.2607893E+03  0.7818608E-02  0.1106670E+00
          2   -1    0    0  502    0  0.00000000000E+00  0.00000000000E+00  0.16236660270E+03  0.16236660270E+03  0.00000000000E+00 0. -1.
         -2   -1    0    0    0  501 -0.00000000000E+00 -0.00000000000E+00 -0.49519268432E+03  0.49519268432E+03  0.00000000000E+00 0.  1.
          6    2    1    2  502    0  0.88439131778E+02  0.17458414485E+03 -0.37379402940E+02  0.26352633083E+03  0.17247551599E+03 0.  0.
         24    2    3    3    0    0  0.44842858419E+02  0.97528345777E+02 -0.89225428883E+02  0.16082125974E+03  0.79872650166E+02 0.  0.
         -6    2    1    2    0  501 -0.88439131778E+02 -0.17458414485E+03 -0.29544667868E+03  0.39403295619E+03  0.17225599250E+03 0.  0.
        -24    2    5    5    0    0 -0.12533292678E+03 -0.10856290832E+03 -0.22240268422E+03  0.28878339129E+03  0.80241171109E+02 0.  0.
          5    1    3    3  502    0  0.43596273359E+02  0.77055799075E+02  0.51846025943E+02  0.10270507109E+03  0.47000000000E+01 0. -1.
        -11    1    4    4    0    0  0.64392743273E+02  0.63478226169E+02 -0.42859245368E+02  0.10006410694E+03  0.00000000000E+00 0.  1.
         12    1    4    4    0    0 -0.19549884854E+02  0.34050119608E+02 -0.46366183515E+02  0.60757152804E+02  0.00000000000E+00 0. -1.
         -5    1    5    5    0  501  0.36893795000E+02 -0.66021236534E+02 -0.73043994463E+02  0.10524956489E+03  0.47000000000E+01 0.  1.
         13    1    6    6    0    0 -0.27615243176E+02 -0.76484977091E+02 -0.95105689852E+02  0.12513051434E+03  0.00000000000E+00 0. -1.
        -14    1    6    6    0    0 -0.97717683602E+02 -0.32077931227E+02 -0.12729699437E+03  0.16365287696E+03  0.00000000000E+00 0.  1.
</event>
<event>
12    1  0.1345781E-002  0.2030593E+03  0.7818608E-02  0.1147183E+00
          2   -1    0    0  502    0  0.00000000000E+00  0.00000000000E+00  0.10284639112E+04  0.10284639112E+04  0.00000000000E+00 0.  1.
         -2   -1    0    0    0  501 -0.00000000000E+00 -0.00000000000E+00 -0.69323058919E+02  0.69323058919E+02  0.00000000000E+00 0. -1.
          6    2    1    2  502    0  0.10794684427E+03 -0.54714811332E+01  0.12245972051E+03  0.23669901118E+03  0.17131135529E+03 0.  0.
         24    2    3    3    0    0  0.82318946255E+02 -0.41313853116E+02  0.18542825947E+02  0.12372876836E+03  0.80509181799E+02 0.  0.
         -6    2    1    2    0  501 -0.10794684427E+03  0.54714811332E+01  0.83668113174E+03  0.86108795891E+03  0.17249550279E+03 0.  0.
        -24    2    5    5    0    0 -0.39233668668E+02 -0.54103481421E+02  0.56895995247E+03  0.57830288771E+03  0.79071707719E+02 0.  0.
          5    1    3    3  502    0  0.25627898017E+02  0.35842371983E+02  0.10391689456E+03  0.11297024282E+03  0.47000000000E+01 0. -1.
        -11    1    4    4    0    0  0.10203284686E+02  0.40368537758E+01  0.35247796715E+02  0.36916261729E+02  0.00000000000E+00 0.  1.
         12    1    4    4    0    0  0.72115661569E+02 -0.45350706892E+02 -0.16704970769E+02  0.86812506631E+02  0.00000000000E+00 0. -1.
         -5    1    5    5    0  501 -0.68713175604E+02  0.59574962554E+02  0.26772117926E+03  0.28278507120E+03  0.47000000000E+01 0.  1.
         13    1    6    6    0    0 -0.53160097313E+02 -0.17605788467E+02  0.21422108200E+03  0.22141958294E+03  0.00000000000E+00 0. -1.
        -14    1    6    6    0    0  0.13926428645E+02 -0.36497692953E+02  0.35473887047E+03  0.35688330478E+03  0.00000000000E+00 0.  1.
</event>
<event>
12    1  0.1345781E-002  0.2256513E+03  0.7818608E-02  0.1129739E+00
         -1   -1    0    0    0  501 -0.00000000000E+00  0.00000000000E+00  0.21543372464E+03  0.21543372464E+03  0.00000000000E+00 0.  1.
          1   -1    0    0  502    0  0.00000000000E+00 -0.00000000000E+00 -0.28128977430E+03  0.28128977430E+03  0.00000000000E+00 0. -1.
          6    2    1    2  502    0  0.14699566965E+03  0.26362213168E+02  0.66075215392E+02  0.23702209740E+03  0.17178721543E+03 0.  0.
         24    2    3    3    0    0  0.17427037471E+03  0.17197082944E+02  0.38187514157E+02  0.19667704779E+03  0.80979452493E+02 0.  0.
         -6    2    1    2    0  501 -0.14699566965E+03 -0.26362213168E+02 -0.13193126506E+03  0.25970140154E+03  0.16654208502E+03 0.  0.
        -24    2    5    5    0    0 -0.60532864370E+02  0.37738442160E+02 -0.30636245516E+02  0.11182482566E+03  0.80484746434E+02 0.  0.
          5    1    3    3  502    0 -0.27274705054E+02  0.91651302237E+01  0.27887701236E+02  0.40345049610E+02  0.47000000000E+01 0. -1.
        -11    1    4    4    0    0  0.96731585138E+02 -0.14521305793E+02 -0.12732191768E+02  0.98640643715E+02  0.00000000000E+00 0.  1.
         12    1    4    4    0    0  0.77538789569E+02  0.31718388736E+02  0.50919705924E+02  0.98036404071E+02  0.00000000000E+00 0. -1.
         -5    1    5    5    0  501 -0.86462805283E+02 -0.64100655328E+02 -0.10129501954E+03  0.14787657588E+03  0.47000000000E+01 0.  1.
         11    1    6    6    0    0 -0.32019055511E+02 -0.21280817134E+02 -0.25380883967E+02  0.46068235963E+02  0.00000000000E+00 0. -1.
        -12    1    6    6    0    0 -0.28513808858E+02  0.59019259295E+02 -0.52553615487E+01  0.65756589695E+02  0.00000000000E+00 0.  1.
</event>
<event>
12    1  0.1345781E-002  0.1761922E+03  0.7818608E-02  0.1171540E+00
         -1   -1    0    0    0  501 -0.00000000000E+00  0.00000000000E+00  0.38881760628E+02  0.38881760628E+02  0.00000000000E+00 0. -1.
          1   -1    0    0  502    0  0.00000000000E+00 -0.00000000000E+00 -0.79943378980E+03  0.79943378980E+03  0.00000000000E+00 0.  1.
          6    2    1    2  502    0 -0.19154778567E+02  0.34383100718E+02 -0.37061878792E+03  0.41127052127E+03  0.17388517058E+03 0.  0.
         24    2    3    3    0    0 -0.63089728224E+02  0.11200868635E+02 -0.33376052490E+03  0.34923571460E+03  0.80397282944E+02 0.  0.
         -6    2    1    2    0  501  0.19154778567E+02 -0.34383100718E+02 -0.38993324125E+03  0.42704502916E+03  0.16961845754E+03 0.  0.
        -24    2    5    5    0    0  0.48765529320E+02 -0.42603894672E+02 -0.38360921980E+03  0.39532025555E+03  0.70206141018E+02 0.  0.
          5    1    3    3  502    0  0.43934949657E+02  0.23182232082E+02 -0.36858263023E+02  0.62034806671E+02  0.47000000000E+01 0. -1.
        -13    1    4    4    0    0 -0.20632133989E+02  0.14858706151E+02 -0.27747586414E+03  0.27863833419E+03  0.00000000000E+00 0.  1.
         14    1    4    4    0    0 -0.42457594235E+02 -0.36578375156E+01 -0.56284660761E+02  0.70597380408E+02  0.00000000000E+00 0. -1.
         -5    1    5    5    0  501 -0.29610750753E+02  0.82207939545E+01 -0.63240214473E+01  0.31724773611E+02  0.47000000000E+01 0.  1.
         13    1    6    6    0    0  0.26235635059E+01  0.16370629637E+02 -0.34581819432E+02  0.38350786633E+02  0.00000000000E+00 0. -1.
        -14    1    6    6    0    0  0.46141965814E+02 -0.58974524309E+02 -0.34902740037E+03  0.35696946891E+03  0.00000000000E+00 0.  1.
</event>
<event>
12    1  0.1345781E-002  0.1845854E+03  0.7818608E-02  0.1163438E+00
         -2   -1    0    0    0  501 -0.00000000000E+00  0.00000000000E+00  0.42669314575E+02  0.42669314575E+02  0.00000000000E+00 0.  1.
          2   -1    0    0  502    0  0.00000000000E+00 -0.00000000000E+00 -0.10810608200E+04  0.10810608200E+04  0.00000000000E+00 0. -1.
          6    2    1    2  502    0  0.64632339943E+01 -0.59146621238E+02 -0.80841915102E+03  0.82943867673E+03  0.17574668852E+03 0.  0.
         24    2    3    3    0    0 -0.35678093333E+02 -0.69361854408E+02 -0.31985695045E+03  0.33893347158E+03  0.80519787720E+02 0.  0.
         -6    2    1    2    0  501 -0.64632339943E+01  0.59146621238E+02 -0.22997235443E+03  0.29429145787E+03  0.17372415541E+03 0.  0.
        -24    2    5    5    0    0  0.20494264803E+02  0.77643386174E+02 -0.23424355146E+03  0.26098725125E+03  0.82436603551E+02 0.  0.
          5    1    3    3  502    0  0.42141327327E+02  0.10215233170E+02 -0.48856220057E+03  0.49050520515E+03  0.47000000000E+01 0. -1.
        -11    1    4    4    0    0 -0.57167097085E+02 -0.24712044126E+02 -0.16629825885E+03  0.17757779425E+03  0.00000000000E+00 0.  1.
         12    1    4    4    0    0  0.21489003752E+02 -0.44649810282E+02 -0.15355869160E+03  0.16135567733E+03  0.00000000000E+00 0. -1.
         -5    1    5    5    0  501 -0.26957498797E+02 -0.18496764936E+02  0.42711970335E+01  0.33304206620E+02  0.47000000000E+01 0.  1.
         13    1    6    6    0    0 -0.49448740131E+01 -0.62444518254E+01 -0.10210837499E+03  0.10241857840E+03  0.00000000000E+00 0. -1.
        -14    1    6    6    0    0  0.25439138816E+02  0.83887838000E+02 -0.13213517647E+03  0.15856867285E+03  0.00000000000E+00 0.  1.
</event>
<event>
12    1  0.1345781E-002  0.2133065E+03  0.7818608E-02  0.1138974E+00
         -2   -1    0    0    0  501 -0.00000000000E+00  0.00000000000E+00  0.40465600135E+02  0.40465600135E+02  0.00000000000E+00 0.  1.
          2   -1    0    0  502    0  0.00000000000E+00 -0.00000000000E+00 -0.16982197952E+04  0.16982197952E+04  0.00000000000E+00 0. -1.
          6    2    1    2  502    0  0.12630955311E+03  0.29186557858E+01 -0.13337557155E+04  0.13506769626E+04  0.17164302207E+03 0.  0.
         24    2    3    3    0    0  0.23300864530E+02  0.25898974702E+01 -0.32251570424E+03  0.33419314655E+03  0.84374414741E+02 0.  0.
         -6    2    1    2    0  501 -0.12630955311E+03 -0.29186557858E+01 -0.32399847957E+03  0.38800843270E+03  0.17208401240E+03 0.  0.
        -24    2    5    5    0    0 -0.10105488562E+03  0.60705630662E+02 -0.18813254509E+03  0.23579972661E+03  0.79437982395E+02 0.  0.
          5    1    3    3  502    0  0.10300868858E+03  0.32875831554E+00 -0.10112400112E+04  0.10164838161E+04  0.47000000000E+01 0. -1.
        -11    1    4    4    0    0 -0.31626967620E+02 -0.53218392869E+01 -0.11979575865E+03  0.12401455900E+03  0.00000000000E+00 0.  1.
         12    1    4    4    0    0  0.54927832150E+02  0.79117367571E+01 -0.20271994560E+03  0.21017858755E+03  0.00000000000E+00 0. -1.
         -5    1    5    5    0  501 -0.25254667482E+02 -0.63624286448E+02 -0.13586593448E+03  0.15220870608E+03  0.47000000000E+01 0.  1.
         11    1    6    6    0    0 -0.46405156733E+02 -0.36220328713E+01 -0.11519936898E+03  0.12424754447E+03  0.00000000000E+00 0. -1.
        -12    1    6    6    0    0 -0.54649728891E+02  0.64327663533E+02 -0.72933176107E+02  0.11155218214E+03  0.00000000000E+00 0.  1.
</event>
<event>
12    1  0.1345781E-002  0.3051755E+03  0.7818608E-02  0.1082682E+00
          2   -1    0    0  502    0  0.00000000000E+00  0.00000000000E+00  0.23356894541E+04  0.23356894541E+04  0.00000000000E+00 0. -1.
         -2   -1    0    0    0  501 -0.00000000000E+00 -0.00000000000E+00 -0.51043724764E+02  0.51043724764E+02  0.00000000000E+00 0.  1.
          6    2    1    2  502    0  0.24917124038E+03  0.37179412426E+02  0.16996821478E+04  0.17268076266E+04  0.17168739075E+03 0.  0.
         24    2    3    3    0    0  0.24742310866E+03  0.57477350079E+02  0.13209134510E+04  0.13474622986E+04  0.79501324695E+02 0.  0.
         -6    2    1    2    0  501 -0.24917124038E+03 -0.37179412426E+02  0.58496358155E+03  0.65992555224E+03  0.17277362939E+03 0.  0.
        -24    2    5    5    0    0 -0.65625378225E+02  0.54774197028E+01  0.30772551295E+03  0.32467680053E+03  0.79895813942E+02 0.  0.
          5    1    3    3  502    0  0.17481317154E+01 -0.20297937653E+02  0.37876869676E+03  0.37934532801E+03  0.47000000000E+01 0. -1.
        -11    1    4    4    0    0  0.97327557819E+02  0.53254690948E+02  0.43565814347E+03  0.44956282497E+03  0.00000000000E+00 0.  1.
         12    1    4    4    0    0  0.15009555084E+03  0.42226591309E+01  0.88525530757E+03  0.89789947367E+03  0.00000000000E+00 0. -1.
         -5    1    5    5    0  501 -0.18354586215E+03 -0.42656832128E+02  0.27723806860E+03  0.33524875171E+03  0.47000000000E+01 0.  1.
         11    1    6    6    0    0  0.30024933327E+01 -0.23968118746E+02  0.12442003063E+03  0.12674316433E+03  0.00000000000E+00 0. -1.
        -12    1    6    6    0    0 -0.68627871557E+02  0.29445538449E+02  0.18330548232E+03  0.19793363620E+03  0.00000000000E+00 0.  1.
</event>
<event>
12    1  0.1345781E-002  0.4642099E+03  0.7818608E-02  0.1023567E+00
         -4   -1    0    0    0  501 -0.00000000000E+00  0.00000000000E+00  0.99314948609E+02  0.99314948609E+02  0.00000000000E+00 0. -1.
          4   -1    0    0  502    0  0.00000000000E+00 -0.00000000000E+00 -0.29832335822E+04  0.29832335822E+04  0.00000000000E+00 0.  1.
          6    2    1    2  502    0 -0.43023550585E+03 -0.17936376297E+02 -0.22471047993E+04  0.22945806246E+04  0.17376984575E+03 0.  0.
         24    2    3    3    0    0 -0.17340882646E+03 -0.64737269441E+02 -0.88129002277E+03  0.90403312061E+03  0.79638205489E+02 0.  0.
         -6    2    1    2    0  501  0.43023550585E+03  0.17936376297E+02 -0.63681383422E+03  0.78796790622E+03  0.17302386452E+03 0.  0.
        -24    2    5    5    0    0  0.22625102705E+03  0.14875503801E+02 -0.45496291315E+03  0.51463498829E+03  0.80293903717E+02 0.  0.
          5    1    3    3  502    0 -0.25682667938E+03  0.46800893145E+02 -0.13658147766E+04  0.13905475040E+04  0.47000000000E+01 0. -1.
        -13    1    4    4    0    0 -0.14862169312E+03 -0.19657832278E+02 -0.67068176747E+03  0.68723276352E+03  0.00000000000E+00 0.  1.
         14    1    4    4    0    0 -0.24787133347E+02 -0.45079437163E+02 -0.21060825530E+03  0.21680035709E+03  0.00000000000E+00 0. -1.
         -5    1    5    5    0  501  0.20398447880E+03  0.30608724956E+01 -0.18185092107E+03  0.27333291793E+03  0.47000000000E+01 0.  1.
         13    1    6    6    0    0  0.23014960168E+03  0.96674304446E+01 -0.41953370377E+03  0.47861344211E+03  0.00000000000E+00 0. -1.
        -14    1    6    6    0    0 -0.38985746284E+01  0.52080733567E+01 -0.35429209376E+02  0.36021546181E+02  0.00000000000E+00 0.  1.
</event>
<event>
12    1  0.1345781E-002  0.1748765E+03  0.7818608E-02  0.1172856E+00
         -2   -1    0    0    0  501 -0.00000000000E+00  0.00000000000E+00  0.79222512135E+02  0.79222512135E+02  0.00000000000E+00 0. -1.
          2   -1    0    0  502    0  0.00000000000E+00 -0.00000000000E+00 -0.46526060152E+03  0.46526060152E+03  0.00000000000E+00 0.  1.
          6    2    1    2  502    0  0.32366498054E+02 -0.29267953341E+02 -0.77992608127E+02  0.18874237868E+03  0.16624269999E+03 0.  0.
         24    2    3    3    0    0  0.67613680320E+02  0.97401618209E+01 -0.85821527324E+02  0.13538154209E+03  0.79349523421E+02 0.  0.
         -6    2    1    2    0  501 -0.32366498054E+02  0.29267953341E+02 -0.30804548126E+03  0.35574073498E+03  0.17249709768E+03 0.  0.
        -24    2    5    5    0    0 -0.44319777392E+02  0.98837164008E+01 -0.64129785734E+02  0.11071913174E+03  0.78001065357E+02 0.  0.
          5    1    3    3  502    0 -0.35247182266E+02 -0.39008115162E+02  0.78289191972E+01  0.53360836594E+02  0.47000000000E+01 0. -1.
        -11    1    4    4    0    0  0.39830464887E+02  0.43060251143E+02 -0.64017961825E+02  0.86827130540E+02  0.00000000000E+00 0.  1.
         12    1    4    4    0    0  0.27783215432E+02 -0.33320089322E+02 -0.21803565500E+02  0.48554411548E+02  0.00000000000E+00 0. -1.
         -5    1    5    5    0  501  0.11953279338E+02  0.19384236941E+02 -0.24391569553E+03  0.24502160324E+03  0.47000000000E+01 0.  1.
         11    1    6    6    0    0 -0.10351277973E+02  0.31939392249E+02  0.14890393439E+01  0.33607900427E+02  0.00000000000E+00 0. -1.
        -12    1    6    6    0    0 -0.33968499419E+02 -0.22055675849E+02 -0.65618825078E+02  0.77111231313E+02  0.00000000000E+00 0.  1.
</event>
<event>
12    1  0.1345781E-002  0.2569046E+03  0.7818608E-02  0.1109017E+00
         -2   -1    0    0    0  501 -0.00000000000E+00  0.00000000000E+00  0.13455248138E+03  0.13455248138E+03  0.00000000000E+00 0. -1.
          2   -1    0    0  502    0  0.00000000000E+00 -0.00000000000E+00 -0.49335721625E+03  0.49335721625E+03  0.00000000000E+00 0.  1.
          6    2    1    2  502    0 -0.40670211280E+02 -0.19136446898E+03 -0.20052531768E+03  0.32325874922E+03  0.16128046950E+03 0.  0.
         24    2    3    3    0    0 -0.86956133177E+02 -0.15492999974E+03 -0.15578450115E+03  0.24913933355E+03  0.78974190776E+02 0.  0.
         -6    2    1    2    0  501  0.40670211280E+02  0.19136446898E+03 -0.15827941719E+03  0.30465094841E+03  0.17171313400E+03 0.  0.
        -24    2    5    5    0    0  0.51005965634E+02  0.68507089910E+02 -0.20857946079E+02  0.11996875075E+03  0.81624857391E+02 0.  0.
          5    1    3    3  502    0  0.46285921897E+02 -0.36434469239E+02 -0.44740816529E+02  0.74119415663E+02  0.47000000000E+01 0. -1.
        -11    1    4    4    0    0 -0.74047139920E+01 -0.12532348072E+02 -0.56146165210E+02  0.58002425857E+02  0.00000000000E+00 0.  1.
         12    1    4    4    0    0 -0.79551419185E+02 -0.14239765167E+03 -0.99638335936E+02  0.19113690770E+03  0.00000000000E+00 0. -1.
         -5    1    5    5    0  501 -0.10335754354E+02  0.12285737907E+03 -0.13742147111E+03  0.18468219766E+03  0.47000000000E+01 0.  1.
         11    1    6    6    0    0  0.44198319400E+02  0.87455214457E+02 -0.16504647977E+02  0.99369559616E+02  0.00000000000E+00 0. -1.
        -12    1    6    6    0    0  0.68076462341E+01 -0.18948124547E+02 -0.43532981017E+01  0.20599191136E+02  0.00000000000E+00 0.  1.
</event>
<event>
12    1  0.1345781E-002  0.2189706E+03  0.7818608E-02  0.1134653E+00
         -2   -1    0    0    0  501 -0.00000000000E+00  0.00000000000E+00  0.32460482915E+02  0.32460482915E+02  0.00000000000E+00 0.  1.
          2   -1    0    0  502    0  0.00000000000E+00 -0.00000000000E+00 -0.15134715137E+04  0.15134715137E+04  0.00000000000E+00 0. -1.
          6    2    1    2  502    0  0.12953419815E+03 -0.44856015911E+02 -0.62602441296E+03  0.66373707307E+03  0.17276911153E+03 0.  0.
         24    2    3    3    0    0  0.15369929627E+03 -0.68441819053E+02 -0.54238723116E+03  0.57341813677E+03  0.79477636967E+02 0.  0.
         -6    2    1    2    0  501 -0.12953419815E+03  0.44856015911E+02 -0.85498661785E+03  0.88219492356E+03  0.16874417265E+03 0.  0.
        -24    2    5    5    0    0 -0.11776767190E+03  0.55007971120E+01 -0.80408953144E+03  0.81662139391E+03  0.80068989621E+02 0.  0.
          5    1    3    3  502    0 -0.24165098117E+02  0.23585803142E+02 -0.83637181794E+02  0.90318936306E+02  0.47000000000E+01 0. -1.
        -11    1    4    4    0    0  0.43895775438E+02 -0.61900549233E+02 -0.20868103442E+03  0.22205019979E+03  0.00000000000E+00 0.  1.
         12    1    4    4    0    0  0.10980352083E+03 -0.65412698202E+01 -0.33370619674E+03  0.35136793698E+03  0.00000000000E+00 0. -1.
         -5    1    5    5    0  501 -0.11766526254E+02  0.39355218799E+02 -0.50897086408E+02  0.65573529657E+02  0.47000000000E+01 0.  1.
         11    1    6    6    0    0 -0.51638769402E+02  0.35953408949E+02 -0.25127502084E+03  0.25903348475E+03  0.00000000000E+00 0. -1.
        -12    1    6    6    0    0 -0.66128902496E+02 -0.30452611837E+02 -0.55281451060E+03  0.55758790916E+03  0.00000000000E+00 0.  1.
</event>
<event>
12    1  0.1345781E-002  0.1948379E+03  0.7818608E-02  0.1154169E+00
          1   -1    0    0  502    0  0.00000000000E+00  0.00000000000E+00  0.17345218222E+04  0.17345218222E+04  0.00000000000E+00 0. -1.
         -1   -1    0    0    0  501 -0.00000000000E+00 -0.00000000000E+00 -0.25555745742E+02  0.25555745742E+02  0.00000000000E+00 0.  1.
          6    2    1    2  502    0  0.88875390737E+02 -0.21639731303E+02  0.11888936851E+04  0.12047931581E+04  0.17231148094E+03 0.  0.
         24    2    3    3    0    0  0.11997649130E+03 -0.20248109816E+01  0.10859672919E+04  0.10953950047E+04  0.78528969341E+02 0.  0.
         -6    2    1    2    0  501 -0.88875390737E+02  0.21639731303E+02  0.52007239136E+03  0.55528440977E+03  0.17175089644E+03 0.  0.
        -24    2    5    5    0    0 -0.17294270102E+02  0.47406711930E+02  0.15173499889E+03  0.17914305494E+03  0.80760362371E+02 0.  0.
          5    1    3    3  502    0 -0.31101100567E+02 -0.19614920322E+02  0.10292639319E+03  0.10939815341E+03  0.47000000000E+01 0. -1.
        -13    1    4    4    0    0  0.82081305969E+02 -0.75861223494E+01  0.40243552000E+03  0.41079099041E+03  0.00000000000E+00 0.  1.
         14    1    4    4    0    0  0.37895185334E+02  0.55613113678E+01  0.68353177187E+03  0.68460401431E+03  0.00000000000E+00 0. -1.
         -5    1    5    5    0  501 -0.71581120636E+02 -0.25766980627E+02  0.36833739247E+03  0.37614135483E+03  0.47000000000E+01 0.  1.
         11    1    6    6    0    0  0.11480040473E+02 -0.64013672499E+01 -0.24072469374E+01  0.13362771784E+02  0.00000000000E+00 0. -1.
        -12    1    6    6    0    0 -0.28774310575E+02  0.53808079180E+02  0.15414224583E+03  0.16578028315E+03  0.00000000000E+00 0.  1.
</event>
<event>
12    1  0.1345781E-002  0.1751283E+03  0.7818608E-02  0.1172603E+00
         -2   -1    0    0    0  501 -0.00000000000E+00  0.00000000000E+00  0.48438934393E+02  0.48438934393E+02  0.00000000000E+00 0. -1.
          2   -1    0    0  502    0  0.00000000000E+00 -0.00000000000E+00 -0.98681591855E+03  0.98681591855E+03  0.00000000000E+00 0.  1.
          6    2    1    2  502    0  0.16038061781E+02 -0.31001715911E+02 -0.78033882434E+03  0.79991316773E+03  0.17237769380E+03 0.  0.
         24    2    3    3    0    0 -0.45288504195E+02 -0.50336436519E+02 -0.55712050352E+03  0.56757012853E+03  0.84662801178E+02 0.  0.
         -6    2    1    2    0  501 -0.16038061781E+02  0.31001715911E+02 -0.15803815981E+03  0.23534168520E+03  0.17085468394E+03 0.  0.
        -24    2    5    5    0    0  0.33280389085E+02  0.67727184302E+02 -0.77936119302E+02  0.13425015975E+03  0.79085465866E+02 0.  0.
          5    1    3    3  502    0  0.61326565976E+02  0.19334720607E+02 -0.22321832083E+03  0.23234303921E+03  0.47000000000E+01 0. -1.
        -13    1    4    4    0    0  0.20189569880E+02  0.58952705888E+01 -0.80770989914E+02  0.83464517964E+02  0.00000000000E+00 0.  1.
         14    1    4    4    0    0 -0.65478074075E+02 -0.56231707108E+02 -0.47634951360E+03  0.48410561056E+03  0.00000000000E+00 0. -1.
         -5    1    5    5    0  501 -0.49318450865E+02 -0.36725468391E+02 -0.80102040507E+02  0.10109152545E+03  0.47000000000E+01 0.  1.
         13    1    6    6    0    0  0.44400935749E+02  0.15545306887E+02 -0.63408437729E+02  0.78953971635E+02  0.00000000000E+00 0. -1.
        -14    1    6    6    0    0 -0.11120546665E+02  0.52181877415E+02 -0.14527681572E+02  0.55296188120E+02  0.00000000000E+00 0.  1.
</event>
<event>
12    1  0.1345781E-002  0.1958470E+03  0.7818608E-02  0.1153291E+00
         -2   -1    0    0    0  501 -0.00000000000E+00  0.00000000000E+00  0.19264361444E+03  0.19264361444E+03  0.00000000000E+00 0. -1.
          2   -1    0    0  502    0  0.00000000000E+00 -0.00000000000E+00 -0.20049105389E+03  0.20049105389E+03  0.00000000000E+00 0.  1.
          6    2    1    2  502    0 -0.43513296031E+02 -0.83742841531E+02 -0.20254235288E+02  0.19631902267E+03  0.17095219851E+03 0.  0.
         24    2    3    3    0    0 -0.88520065818E+02 -0.78745943973E+02 -0.50283040834E+02  0.14178098572E+03  0.59470479832E+02 0.  0.
         -6    2    1    2    0  501  0.43513296031E+02  0.83742841531E+02  0.12406795844E+02  0.19681564566E+03  0.17226781288E+03 0.  0.
        -24    2    5    5    0    0  0.50843828606E+02  0.11878889170E+03  0.32509322335E+02  0.15548570601E+03  0.80143951957E+02 0.  0.
          5    1    3    3  502    0  0.45006769787E+02 -0.49968975575E+01  0.30028805545E+02  0.54538036950E+02  0.47000000000E+01 0. -1.
        -11    1    4    4    0    0 -0.44090389536E+02 -0.73664301213E+02 -0.21178380066E+02  0.88424631777E+02  0.00000000000E+00 0.  1.
         12    1    4    4    0    0 -0.44429676281E+02 -0.50816427599E+01 -0.29104660767E+02  0.53356353942E+02  0.00000000000E+00 0. -1.
         -5    1    5    5    0  501 -0.73305325752E+01 -0.35046050171E+02 -0.20102526491E+02  0.41329939653E+02  0.47000000000E+01 0.  1.
         11    1    6    6    0    0  0.68803131592E+02  0.62466880045E+02  0.20357035995E+02  0.95133542634E+02  0.00000000000E+00 0. -1.
        -12    1    6    6    0    0 -0.17959302986E+02  0.56322011656E+02  0.12152286340E+02  0.60352163375E+02  0.00000000000E+00 0.  1.
</event>
<event>
12    1  0.1345781E-002  0.1957981E+03  0.7818608E-02  0.1153333E+00
          2   -1    0    0  502    0  0.00000000000E+00  0.00000000000E+00  0.44687552672E+03  0.44687552672E+03  0.00000000000E+00 0.  1.
         -2   -1    0    0    0  501 -0.00000000000E+00 -0.00000000000E+00 -0.86362198898E+02  0.86362198898E+02  0.00000000000E+00 0. -1.
          6    2    1    2  502    0 -0.55979217452E+02 -0.76365390357E+02  0.15798704921E+03  0.25111285577E+03  0.17068219879E+03 0.  0.
         24    2    3    3    0    0 -0.74472750776E+02 -0.46582140342E+02  0.17238241634E+03  0.21292425340E+03  0.88909807184E+02 0.  0.
         -6    2    1    2    0  501  0.55979217452E+02  0.76365390357E+02  0.20252627861E+03  0.28212486984E+03  0.17208196601E+03 0.  0.
        -24    2    5    5    0    0  0.35009520329E+02  0.10899744933E+03  0.20009178927E+03  0.24297648279E+03  0.76777187914E+02 0.  0.
          5    1    3    3  502    0  0.18493533324E+02 -0.29783250014E+02 -0.14395367134E+02  0.38188602373E+02  0.47000000000E+01 0. -1.
        -11    1    4    4    0    0 -0.47701767701E+02 -0.15135553787E+01  0.14724920471E+03  0.15479043181E+03  0.00000000000E+00 0.  1.
         12    1    4    4    0    0 -0.26770983075E+02 -0.45068584964E+02  0.25133211631E+02  0.58133821587E+02  0.00000000000E+00 0. -1.
         -5    1    5    5    0  501  0.20969697123E+02 -0.32632058973E+02  0.24344893420E+01  0.39148387050E+02  0.47000000000E+01 0.  1.
         13    1    6    6    0    0 -0.13698412494E+02  0.36889912470E+01  0.33609785113E+01  0.14579140504E+02  0.00000000000E+00 0. -1.
        -14    1    6    6    0    0  0.48707932823E+02  0.10530845808E+03  0.19673081076E+03  0.22839734229E+03  0.00000000000E+00 0.  1.
</event>
<event>
12    1  0.1345781E-002  0.2263851E+03  0.7818608E-02  0.1129210E+00
         -2   -1    0    0    0  501 -0.00000000000E+00  0.00000000000E+00  0.61487981281E+02  0.61487981281E+02  0.00000000000E+00 0. -1.
          2   -1    0    0  502    0  0.00000000000E+00 -0.00000000000E+00 -0.11411203817E+04  0.11411203817E+04  0.00000000000E+00 0.  1.
          6    2    1    2  502    0  0.45098639485E+02 -0.13761136466E+03 -0.23014695978E+03  0.32384390180E+03  0.17588767629E+03 0.  0.
         24    2    3    3    0    0  0.22768520750E+01 -0.37756389123E+02 -0.19603254367E+02  0.86872461528E+02  0.75708705016E+02 0.  0.
         -6    2    1    2    0  501 -0.45098639485E+02  0.13761136466E+03 -0.84948544061E+03  0.87876446114E+03  0.17213567150E+03 0.  0.
        -24    2    5    5    0    0 -0.71658754880E+02  0.39368206694E+02 -0.23647280413E+03  0.25734371777E+03  0.60179474352E+02 0.  0.
          5    1    3    3  502    0  0.42821787410E+02 -0.99854975537E+02 -0.21054370541E+03  0.23697144027E+03  0.47000000000E+01 0. -1.
        -11    1    4    4    0    0 -0.27484660828E+02  0.51575453669E+01 -0.20445861544E+02  0.34641595074E+02  0.00000000000E+00 0.  1.
         12    1    4    4    0    0  0.29761512903E+02 -0.42913934490E+02  0.84260717676E+00  0.52230866454E+02  0.00000000000E+00 0. -1.
         -5    1    5    5    0  501  0.26560115395E+02  0.98243157965E+02 -0.61301263648E+03  0.62142074338E+03  0.47000000000E+01 0.  1.
         13    1    6    6    0    0  0.43012603597E+01 -0.98074458271E+01 -0.19276193397E+02  0.22051269039E+02  0.00000000000E+00 0. -1.
        -14    1    6    6    0    0 -0.75960015240E+02  0.49175652521E+02 -0.21719661073E+03  0.23529244873E+03  0.00000000000E+00 0.  1.
</event>
<event>
12    1  0.1345781E-002  0.1739476E+03  0.7818608E-02  0.1173793E+00
          2   -1    0    0  502    0  0.00000000000E+00  0.00000000000E+00  0.84241980998E+03  0.84241980998E+03  0.00000000000E+00 0. -1.
         -2   -1    0    0    0  501 -0.00000000000E+00 -0.00000000000E+00 -0.40399066898E+02  0.40399066898E+02  0.00000000000E+00 0.  1.
          6    2    1    2  502    0 -0.32849109571E+02 -0.69226364807E+01  0.25717874552E+03  0.31134412325E+03  0.17224189108E+03 0.  0.
         24    2    3    3    0    0  0.24511228069E+01 -0.51138735114E+02  0.77599413832E+02  0.12300401560E+03  0.80542787346E+02 0.  0.
         -6    2    1    2    0  501  0.32849109571E+02  0.69226364807E+01  0.54484199757E+03  0.57147475363E+03  0.16912600280E+03 0.  0.
        -24    2    5    5    0    0 -0.43297861696E+02 -0.14417560530E+02  0.27496470642E+03  0.29021045174E+03  0.80832825269E+02 0.  0.
          5    1    3    3  502    0 -0.35300232378E+02  0.44216098634E+02  0.17957933168E+03  0.18834010766E+03  0.47000000000E+01 0. -1.
        -11    1    4    4    0    0  0.35988108994E+02 -0.26237853129E+02  0.66055809537E+02  0.79667677884E+02  0.00000000000E+00 0.  1.
         12    1    4    4    0    0 -0.33536986187E+02 -0.24900881985E+02  0.11543604295E+02  0.43336337712E+02  0.00000000000E+00 0. -1.
         -5    1    5    5    0  501  0.76146971267E+02  0.21340197011E+02  0.26987729115E+03  0.28126430189E+03  0.47000000000E+01 0.  1.
         13    1    6    6    0    0  0.22285645566E+02 -0.81575409563E+01  0.11092896350E+03  0.11343910444E+03  0.00000000000E+00 0. -1.
        -14    1    6    6    0    0 -0.65583507261E+02 -0.62600195735E+01  0.16403574292E+03  0.17677134730E+03  0.00000000000E+00 0.  1.
</event>
<event>
12    1  0.1345781E-002  0.2691958E+03  0.7818608E-02  0.1101741E+00
          2   -1    0    0  502    0  0.00000000000E+00  0.00000000000E+00  0.47347284445E+04  0.47347284445E+04  0.00000000000E+00 0. -1.
         -2   -1    0    0    0  501 -0.00000000000E+00 -0.00000000000E+00 -0.15315102271E+02  0.15315102271E+02  0.00000000000E+00 0.  1.
          6    2    1    2  502    0 -0.20108837674E+03 -0.42311640180E+02  0.22902566795E+04  0.23058873287E+04  0.17208690996E+03 0.  0.
         24    2    3    3    0    0 -0.47980715309E+02  0.23991668014E+02  0.69071337657E+03  0.69765881491E+03  0.82250253942E+02 0.  0.
         -6    2    1    2    0  501  0.20108837674E+03  0.42311640180E+02  0.24291566628E+04  0.24441562181E+04  0.17570064322E+03 0.  0.
        -24    2    5    5    0    0  0.10791167477E+03 -0.31242037319E+02  0.95329880294E+03  0.96352440914E+03  0.83544508383E+02 0.  0.
          5    1    3    3  502    0 -0.15310766143E+03 -0.66303308194E+02  0.15995433029E+04  0.16082285138E+04  0.47000000000E+01 0. -1.
        -13    1    4    4    0    0 -0.33021020377E+02  0.21340371198E+02  0.11119288429E+03  0.11793920785E+03  0.00000000000E+00 0.  1.
         14    1    4    4    0    0 -0.14959694932E+02  0.26512968156E+01  0.57952049228E+03  0.57971960707E+03  0.00000000000E+00 0. -1.
         -5    1    5    5    0  501  0.93176701970E+02  0.73553677499E+02  0.14758578598E+04  0.14806318089E+04  0.47000000000E+01 0.  1.
         11    1    6    6    0    0  0.56791903764E+02 -0.14252867635E+02  0.77641432985E+03  0.77861908285E+03  0.00000000000E+00 0. -1.
        -12    1    6    6    0    0  0.51119771007E+02 -0.16989169684E+02  0.17688447309E+03  0.18490532630E+03  0.00000000000E+00 0.  1.
</event>
<event>
12    1  0.1345781E-002  0.2442502E+03  0.7818608E-02  0.1116993E+00
          1   -1    0    0  502    0  0.00000000000E+00  0.00000000000E+00  0.43396168240E+03  0.43396168240E+03  0.00000000000E+00 0. -1.
         -1   -1    0    0    0  501 -0.00000000000E+00 -0.00000000000E+00 -0.27414928691E+03  0.27414928691E+03  0.00000000000E+00 0.  1.
          6    2    1    2  502    0 -0.13178712160E+03  0.98783475657E+02 -0.17098007780E+03  0.29315733525E+03  0.17199132456E+03 0.  0.
         24    2    3    3    0    0 -0.86582227268E+02  0.10208687323E+03 -0.18843028086E+03  0.24436190007E+03  0.79300414200E+02 0.  0.
         -6    2    1    2    0  501  0.13178712160E+03 -0.98783475657E+02  0.33079247329E+03  0.41495363406E+03  0.18877721671E+03 0.  0.
        -24    2    5    5    0    0  0.13733789865E+03 -0.11602752193E+03  0.19170954202E+03  0.27461718110E+03  0.79611327118E+02 0.  0.
          5    1    3    3  502    0 -0.45204894337E+02 -0.33033975758E+01  0.17450203067E+02  0.48795435182E+02  0.47000000000E+01 0. -1.
        -13    1    4    4    0    0 -0.85535089167E+02  0.46899207783E+02 -0.14174898921E+03  0.17207138958E+03  0.00000000000E+00 0.  1.
         14    1    4    4    0    0 -0.10471381004E+01  0.55187665450E+02 -0.46681291654E+02  0.72290510487E+02  0.00000000000E+00 0. -1.
         -5    1    5    5    0  501 -0.55507770429E+01  0.17244046273E+02  0.13908293127E+03  0.14033645296E+03  0.47000000000E+01 0.  1.
         13    1    6    6    0    0  0.11648733302E+03 -0.65020416789E+02  0.16826612580E+03  0.21473342182E+03  0.00000000000E+00 0. -1.
        -14    1    6    6    0    0  0.20850565628E+02 -0.51007105141E+02  0.23443416212E+02  0.59883759280E+02  0.00000000000E+00 0.  1.
</event>
<event>
12    1  0.1345781E-002  0.1909383E+03  0.7818608E-02  0.1157618E+00
          2   -1    0    0  502    0  0.00000000000E+00  0.00000000000E+00  0.71596001865E+03  0.71596001865E+03  0.00000000000E+00 0. -1.
         -2   -1    0    0    0  501 -0.00000000000E+00 -0.00000000000E+00 -0.62560276581E+02  0.62560276581E+02  0.00000000000E+00 0.  1.
          6    2    1    2  502    0 -0.18532768822E+02  0.78850727015E+02  0.16036923026E+03  0.25020919334E+03  0.17414203900E+03 0.  0.
         24    2    3    3    0    0  0.48118699237E+02  0.83224078507E+02  0.99526771243E+02  0.15973577616E+03  0.79801525869E+02 0.  0.
         -6    2    1    2    0  501  0.18532768822E+02 -0.78850727015E+02  0.49303051181E+03  0.52831110189E+03  0.17167595678E+03 0.  0.
        -24    2    5    5    0    0 -0.24276653877E+02 -0.19945966650E+01  0.34710471095E+03  0.35785306952E+03  0.83569160939E+02 0.  0.
          5    1    3    3  502    0 -0.66651468059E+02 -0.43733514916E+01  0.60842459019E+02  0.90473417185E+02  0.47000000000E+01 0. -1.
        -11    1    4    4    0    0  0.14518212925E+02  0.39489869855E+02 -0.41748269325E+01  0.42280698996E+02  0.00000000000E+00 0.  1.
         12    1    4    4    0    0  0.33600486313E+02  0.43734208653E+02  0.10370159818E+03  0.11745507716E+03  0.00000000000E+00 0. -1.
         -5    1    5    5    0  501  0.42809422699E+02 -0.76856130350E+02  0.14592580085E+03  0.17045803237E+03  0.47000000000E+01 0.  1.
         13    1    6    6    0    0  0.43287582468E+01 -0.28921827349E+02  0.26738159633E+03  0.26897607384E+03  0.00000000000E+00 0. -1.
        -14    1    6    6    0    0 -0.28605412124E+02  0.26927230684E+02  0.79723114626E+02  0.88876995678E+02  0.00000000000E+00 0.  1.
</event>
<event>
12    1  0.1345781E-002  0.2085269E+03  0.7818608E-02  0.1142738E+00
          2   -1    0    0  502    0  0.00000000000E+00  0.00000000000E+00  0.41186573480E+03  0.41186573480E+03  0.00000000000E+00 0.  1.
         -2   -1    0    0    0  501 -0.00000000000E+00 -0.00000000000E+00 -0.10624467719E+03  0.10624467719E+03  0.00000000000E+00 0. -1.
          6    2    1    2  502    0  0.99585742108E+02 -0.60994035815E+02  0.17364221386E+03  0.27167423298E+03  0.17325610521E+03 0.  0.
         24    2    3    3    0    0  0.66681533253E+01 -0.76920732739E+02  0.69419965387E+02  0.13106233783E+03  0.79980881525E+02 0.  0.
         -6    2    1    2    0  501 -0.99585742108E+02  0.60994035815E+02  0.13197884374E+03  0.24643617902E+03  0.17226370104E+03 0.  0.
        -24    2    5    5    0    0 -0.36530423592E+02  0.22975060006E+02  0.14555103172E+03  0.17141811452E+03  0.79603655180E+02 0.  0.
          5    1    3    3  502    0  0.92917588783E+02  0.15926696924E+02  0.10422224848E+03  0.14061189515E+03  0.47000000000E+01 0. -1.
        -11    1    4    4    0    0 -0.17123996919E+02 -0.16951532073E+02 -0.12212202032E+02  0.27013396465E+02  0.00000000000E+00 0.  1.
         12    1    4    4    0    0  0.23792150244E+02 -0.59969200666E+02  0.81632167419E+02  0.10404894137E+03  0.00000000000E+00 0. -1.
         -5    1    5    5    0  501 -0.63055318516E+02  0.38018975809E+02 -0.13572187980E+02  0.75018064500E+02  0.47000000000E+01 0.  1.
         13    1    6    6    0    0  0.36797275807E+01  0.33505306298E+02  0.20064748976E+02  0.39226777802E+02  0.00000000000E+00 0. -1.
        -14    1    6    6    0    0 -0.40210151172E+02 -0.10530246293E+02  0.12548628275E+03  0.13219133671E+03  0.00000000000E+00 0.  1.
</event>
<event>
12    1  0.1345781E-002  0.1786398E+03  0.7818608E-02  0.1169126E+00
         -2   -1    0    0    0  501 -0.00000000000E+00  0.00000000000E+00  0.22074736460E+02  0.22074736460E+02  0.00000000000E+00 0. -1.
          2   -1    0    0  502    0  0.00000000000E+00 -0.00000000000E+00 -0.14865253917E+04  0.14865253917E+04  0.00000000000E+00 0.  1.
          6    2    1    2  502    0 -0.15156196697E+02 -0.38913505118E+02 -0.59993902727E+03  0.62544293379E+03  0.17177909013E+03 0.  0.
         24    2    3    3    0    0  0.21958318873E+02 -0.59155466853E+02 -0.55346768359E+03  0.56244372693E+03  0.77684825820E+02 0.  0.
         -6    2    1    2    0  501  0.15156196697E+02  0.38913505118E+02 -0.86451162800E+03  0.88315719440E+03  0.17561977081E+03 0.  0.
        -24    2    5    5    0    0 -0.39946985372E+02  0.19338025973E+02 -0.27272618956E+03  0.28847101228E+03  0.82862715169E+02 0.  0.
          5    1    3    3  502    0 -0.37114515569E+02  0.20241961734E+02 -0.46471343679E+02  0.62999206853E+02  0.47000000000E+01 0. -1.
        -11    1    4    4    0    0  0.64490168531E+01  0.18583569259E+02 -0.14782277904E+03  0.14912582898E+03  0.00000000000E+00 0.  1.
         12    1    4    4    0    0  0.15509302020E+02 -0.77739036112E+02 -0.40564490454E+03  0.41331789795E+03  0.00000000000E+00 0. -1.
         -5    1    5    5    0  501  0.55103182068E+02  0.19575479145E+02 -0.59178543844E+03  0.59468618212E+03  0.47000000000E+01 0.  1.
         11    1    6    6    0    0 -0.51115843482E+02  0.32722076313E+02 -0.25973180302E+03  0.26672865094E+03  0.00000000000E+00 0. -1.
        -12    1    6    6    0    0  0.11168858111E+02 -0.13384050339E+02 -0.12994386538E+02  0.21742361336E+02  0.00000000000E+00 0.  1.
</event>
<event>
12    1  0.1345781E-002  0.2557685E+03  0.7818608E-02  0.1109713E+00
         -2   -1    0    0    0  501 -0.00000000000E+00  0.00000000000E+00  0.86278488096E+03  0.86278488096E+03  0.00000000000E+00 0. -1.
          2   -1    0    0  502    0  0.00000000000E+00 -0.00000000000E+00 -0.79533552401E+02  0.79533552401E+02  0.00000000000E+00 0.  1.
          6    2    1    2  502    0 -0.15360378688E+03 -0.11196967622E+03  0.28848874982E+03  0.38492624012E+03  0.16973838641E+03 0.  0.
         24    2    3    3    0    0 -0.10625036201E+03 -0.65692472414E+02  0.28152221378E+03  0.31818383183E+03  0.79884626981E+02 0.  0.
         -6    2    1    2    0  501  0.15360378688E+03  0.11196967622E+03  0.49476257874E+03  0.55739219325E+03  0.17252453748E+03 0.  0.
        -24    2    5    5    0    0  0.10483665404E+03  0.18850545655E+02  0.17518206063E+03  0.22093535608E+03  0.82326241849E+02 0.  0.
          5    1    3    3  502    0 -0.47353424873E+02 -0.46277203807E+02  0.69665360387E+01  0.66742408285E+02  0.47000000000E+01 0. -1.
        -11    1    4    4    0    0 -0.51848173512E+02 -0.58985816890E+02  0.22968709059E+03  0.24274208385E+03  0.00000000000E+00 0.  1.
         12    1    4    4    0    0 -0.54402188495E+02 -0.67066555234E+01  0.51835123191E+02  0.75441747975E+02  0.00000000000E+00 0. -1.
         -5    1    5    5    0  501  0.48767132843E+02  0.93119130566E+02  0.31958051811E+03  0.33645683717E+03  0.47000000000E+01 0.  1.
         11    1    6    6    0    0  0.82507093033E+01 -0.16302017334E+02  0.75768160047E+02  0.77940002887E+02  0.00000000000E+00 0. -1.
        -12    1    6    6    0    0  0.96585944732E+02  0.35152562989E+02  0.99413900588E+02  0.14299535319E+03  0.00000000000E+00 0.  1.
</event>
<event>
12    1  0.1345781E-002  0.1947361E+03  0.7818608E-02  0.1154258E+00
          1   -1    0    0  502    0  0.00000000000E+00  0.00000000000E+00  0.18353857974E+04  0.18353857974E+04  0.00000000000E+00 0. -1.
         -1   -1    0    0    0  501 -0.00000000000E+00 -0.00000000000E+00 -0.20673399489E+02  0.20673399489E+02  0.00000000000E+00 0.  1.
          6    2    1    2  502    0  0.91110262012E+02  0.58553519505E+01  0.88220155375E+03  0.90328549989E+03  0.17120089922E+03 0.  0.
         24    2    3    3    0    0  0.93856175238E+02 -0.48062630899E+02  0.49856966651E+03  0.51584491888E+03  0.80032929765E+02 0.  0.
         -6    2    1    2    0  501 -0.91110262012E+02 -0.58553519505E+01  0.93251084421E+03  0.95277369704E+03  0.17281747080E+03 0.  0.
        -24    2    5    5    0    0 -0.87376257687E+02  0.51159037395E+02  0.61901759245E+03  0.63408153793E+03  0.92869583099E+02 0.  0.
          5    1    3    3  502    0 -0.27459132268E+01  0.53917982850E+02  0.38363188723E+03  0.38744058101E+03  0.47000000000E+01 0. -1.
        -13    1    4    4    0    0  0.85262288419E+02 -0.44809073459E+02  0.26278348417E+03  0.27987974283E+03  0.00000000000E+00 0.  1.
         14    1    4    4    0    0  0.85938868191E+01 -0.32535574400E+01  0.23578618234E+03  0.23596517605E+03  0.00000000000E+00 0. -1.
         -5    1    5    5    0  501 -0.37340043247E+01 -0.57014389345E+02  0.31349325176E+03  0.31869215911E+03  0.47000000000E+01 0.  1.
         11    1    6    6    0    0  0.10317870745E+02  0.15030110903E+01  0.22118989463E+03  0.22143551429E+03  0.00000000000E+00 0. -1.
        -12    1    6    6    0    0 -0.97694128432E+02  0.49656026304E+02  0.39782769782E+03  0.41264602364E+03  0.00000000000E+00 0.  1.
</event>
<event>
12    1  0.1345781E-002  0.1732129E+03  0.7818608E-02  0.1174538E+00
         -3   -1    0    0    0  501 -0.00000000000E+00  0.00000000000E+00  0.83652018218E+02  0.83652018218E+02  0.00000000000E+00 0.  1.
          3   -1    0    0  502    0  0.00000000000E+00 -0.00000000000E+00 -0.52326106772E+03  0.52326106772E+03  0.00000000000E+00 0. -1.
          6    2    1    2  502    0  0.15497217785E+02 -0.82767567840E+01 -0.38974141947E+03  0.42637758115E+03  0.17201976396E+03 0.  0.
         24    2    3    3    0    0 -0.37161130943E+00 -0.41022209488E+01 -0.65594944178E+02  0.10178202676E+03  0.77716909083E+02 0.  0.
         -6    2    1    2    0  501 -0.15497217785E+02  0.82767567840E+01 -0.49867630031E+02  0.18053550479E+03  0.17261986995E+03 0.  0.
        -24    2    5    5    0    0 -0.35432077662E+02 -0.43247278036E+02 -0.69195490529E+02  0.12181769664E+03  0.83221248006E+02 0.  0.
          5    1    3    3  502    0  0.15868829094E+02 -0.41745358351E+01 -0.32414647530E+03  0.32459555439E+03  0.47000000000E+01 0. -1.
        -13    1    4    4    0    0 -0.13205620645E+02 -0.36286472055E+02 -0.17224538863E+02  0.42282161839E+02  0.00000000000E+00 0.  1.
         14    1    4    4    0    0  0.12834009335E+02  0.32184251106E+02 -0.48370405315E+02  0.59499864918E+02  0.00000000000E+00 0. -1.
         -5    1    5    5    0  501  0.19934859877E+02  0.51524034820E+02  0.19327860498E+02  0.58717808150E+02  0.47000000000E+01 0.  1.
         13    1    6    6    0    0 -0.54633315881E+02 -0.26653861409E+02 -0.15969078729E+02  0.62850926864E+02  0.00000000000E+00 0. -1.
        -14    1    6    6    0    0  0.19201238219E+02 -0.16593416627E+02 -0.53226411800E+02  0.58966769774E+02  0.00000000000E+00 0.  1.
</event>
<event>
12    1  0.1345781E-002  0.1902748E+03  0.7818608E-02  0.1158214E+00
          1   -1    0    0  502    0  0.00000000000E+00  0.00000000000E+00  0.42222402231E+03  0.42222402231E+03  0.00000000000E+00 0. -1.
         -1   -1    0    0    0  501 -0.00000000000E+00 -0.00000000000E+00 -0.96562778960E+02  0.96562778960E+02  0.00000000000E+00 0.  1.
          6    2    1    2  502    0 -0.75751567555E+02 -0.30427012986E+02  0.75768436530E+02  0.20449865737E+03  0.17150726452E+03 0.  0.
         24    2    3    3    0    0  0.66028279982E+01  0.20176285165E+02  0.53494636823E+01  0.84816319540E+02  0.81942122733E+02 0.  0.
         -6    2    1    2    0  501  0.75751567555E+02  0.30427012986E+02  0.24989280682E+03  0.31428814390E+03  0.17223971491E+03 0.  0.
        -24    2    5    5    0    0  0.71511088917E+02 -0.46592841590E+01  0.25678224250E+03  0.27797582877E+03  0.78726720687E+02 0.  0.
          5    1    3    3  502    0 -0.82354395554E+02 -0.50603298150E+02  0.70418972848E+02  0.11968233783E+03  0.47000000000E+01 0. -1.
        -11    1    4    4    0    0 -0.30870898275E+02 -0.11407405874E+02 -0.83023174838E+01  0.33942152918E+02  0.00000000000E+00 0.  1.
         12    1    4    4    0    0  0.37473726273E+02  0.31583691039E+02  0.13651781166E+02  0.50874166622E+02  0.00000000000E+00 0. -1.
         -5    1    5    5    0  501  0.42404786388E+01  0.35086297145E+02 -0.68894356796E+01  0.36312315134E+02  0.47000000000E+01 0.  1.
         11    1    6    6    0    0 -0.70582488460E+01  0.91965014016E+01  0.11257494303E+03  0.11317028017E+03  0.00000000000E+00 0. -1.
        -12    1    6    6    0    0  0.78569337763E+02 -0.13855785561E+02  0.14420729947E+03  0.16480554860E+03  0.00000000000E+00 0.  1.
</event>
<event>
12    1  0.1345781E-002  0.1731955E+03  0.7818608E-02  0.1174556E+00
          1   -1    0    0  502    0  0.00000000000E+00  0.00000000000E+00  0.24473393722E+03  0.24473393722E+03  0.00000000000E+00 0.  1.
         -1   -1    0    0    0  501 -0.00000000000E+00 -0.00000000000E+00 -0.14118734847E+03  0.14118734847E+03  0.00000000000E+00 0. -1.
          6    2    1    2  502    0  0.31091733934E+01 -0.17708898631E+02 -0.18159144577E+02  0.17467274243E+03  0.17279334584E+03 0.  0.
         24    2    3    3    0    0  0.50041537474E+02  0.36732398824E+02 -0.10759056639E+02  0.10226174210E+03  0.80549872760E+02 0.  0.
         -6    2    1    2    0  501 -0.31091733934E+01  0.17708898631E+02  0.12170573333E+03  0.21124854327E+03  0.17172766073E+03 0.  0.
        -24    2    5    5    0    0  0.62474512534E+02  0.11002627819E+02  0.74715184813E+02  0.13015356452E+03  0.85635675866E+02 0.  0.
          5    1    3    3  502    0 -0.46932364080E+02 -0.54441297455E+02 -0.74000879371E+01  0.72411000326E+02  0.47000000000E+01 0. -1.
        -11    1    4    4    0    0 -0.26353918068E+01  0.31413384491E+02  0.23395079234E+02  0.39256537640E+02  0.00000000000E+00 0.  1.
         12    1    4    4    0    0  0.52676929281E+02  0.53190143334E+01 -0.34154135873E+02  0.63005204461E+02  0.00000000000E+00 0. -1.
         -5    1    5    5    0  501 -0.65583685928E+02  0.67062708128E+01  0.46990548514E+02  0.81094978745E+02  0.47000000000E+01 0.  1.
         11    1    6    6    0    0  0.77017717821E+02  0.29903470069E+02  0.55537641783E+02  0.99550871595E+02  0.00000000000E+00 0. -1.
        -12    1    6    6    0    0 -0.14543205286E+02 -0.18900842250E+02  0.19177543030E+02  0.30602692928E+02  0.00000000000E+00 0.  1.
</event>
<event>
12    1  0.1345781E-002  0.1890469E+03  0.7818608E-02  0.1159324E+00
          2   -1    0    0  502    0  0.00000000000E+00  0.00000000000E+00  0.29210481098E+04  0.29210481098E+04  0.00000000000E+00 0.  1.
         -2   -1    0    0    0  501 -0.00000000000E+00 -0.00000000000E+00 -0.12553445175E+02  0.12553445175E+02  0.00000000000E+00 0. -1.
          6    2    1    2  502    0 -0.38549519124E+02 -0.69731522095E+02  0.12151112684E+04  0.12296158951E+04  0.17062035190E+03 0.  0.
         24    2    3    3    0    0  0.11554698566E+02  0.15704244466E+02  0.38332468131E+03  0.39194011106E+03  0.79366901169E+02 0.  0.
         -6    2    1    2    0  501  0.38549519124E+02  0.69731522095E+02  0.16933833963E+04  0.17039856598E+04  0.17225345160E+03 0.  0.
        -24    2    5    5    0    0  0.44613836867E+02  0.83765254371E+01  0.47312258457E+03  0.48215926049E+03  0.81067945793E+02 0.  0.
          5    1    3    3  502    0 -0.50104217690E+02 -0.85435766561E+02  0.83178658705E+03  0.83767578408E+03  0.47000000000E+01 0. -1.
        -11    1    4    4    0    0 -0.28944116025E+02 -0.13224175229E+02  0.16062864126E+03  0.16375042307E+03  0.00000000000E+00 0.  1.
         12    1    4    4    0    0  0.40498814591E+02  0.28928419695E+02  0.22269604006E+03  0.22818968799E+03  0.00000000000E+00 0. -1.
         -5    1    5    5    0  501 -0.60643177427E+01  0.61354996658E+02  0.12202608117E+04  0.12218263993E+04  0.47000000000E+01 0.  1.
         11    1    6    6    0    0  0.23516603518E+02  0.38659834679E+02  0.14321716424E+03  0.15019577088E+03  0.00000000000E+00 0. -1.
        -12    1    6    6    0    0  0.21097233348E+02 -0.30283309241E+02  0.32990542033E+03  0.33196348961E+03  0.00000000000E+00 0.  1.
</event>
<event>
12    1  0.1345781E-002  0.2911465E+03  0.7818608E-02  0.1089752E+00
          2   -1    0    0  502    0  0.00000000000E+00  0.00000000000E+00  0.75889584381E+03  0.75889584381E+03  0.00000000000E+00 0.  1.
         -2   -1    0    0    0  501 -0.00000000000E+00 -0.00000000000E+00 -0.12604854924E+03  0.12604854924E+03  0.00000000000E+00 0. -1.
          6    2    1    2  502    0 -0.11506498833E+03  0.20396971612E+03  0.16740115016E+03  0.33609356015E+03  0.17347086056E+03 0.  0.
         24    2    3    3    0    0 -0.84912524591E+02  0.65289134463E+02  0.13669290569E+03  0.19081258728E+03  0.79067598217E+02 0.  0.
         -6    2    1    2    0  501  0.11506498833E+03 -0.20396971612E+03  0.46544614441E+03  0.54885083290E+03  0.17249210647E+03 0.  0.
        -24    2    5    5    0    0  0.12739961413E+03 -0.13336596909E+03  0.40470722941E+03  0.45478522875E+03  0.94997470297E+02 0.  0.
          5    1    3    3  502    0 -0.30152463741E+02  0.13868058165E+03  0.30708244463E+02  0.14528097286E+03  0.47000000000E+01 0. -1.
        -11    1    4    4    0    0 -0.30597627734E+00  0.55350668302E+01  0.64071498951E+02  0.64310866610E+02  0.00000000000E+00 0.  1.
         12    1    4    4    0    0 -0.84606548314E+02  0.59754067633E+02  0.72621406742E+02  0.12650172067E+03  0.00000000000E+00 0. -1.
         -5    1    5    5    0  501 -0.12334625798E+02 -0.70603747030E+02  0.60738915006E+02  0.94065604151E+02  0.47000000000E+01 0.  1.
         13    1    6    6    0    0 -0.68526709589E+01 -0.45576549785E+02  0.73060192984E+02  0.86382711166E+02  0.00000000000E+00 0. -1.
        -14    1    6    6    0    0  0.13425228509E+03 -0.87789419302E+02  0.33164703642E+03  0.36840251758E+03  0.00000000000E+00 0.  1.
</event>
<event>
12    1  0.1345781E-002  0.1839051E+03  0.7818608E-02  0.1164076E+00
          2   -1    0    0  502    0  0.00000000000E+00  0.00000000000E+00  0.10199576014E+04  0.10199576014E+04  0.00000000000E+00 0.  1.
         -2   -1    0    0    0  501 -0.00000000000E+00 -0.00000000000E+00 -0.36049666101E+02  0.36049666101E+02  0.00000000000E+00 0. -1.
          6    2    1    2  502    0 -0.55906121485E+02  0.33860038442E+02  0.63914769696E+03  0.66482354112E+03  0.17090513646E+03 0.  0.
         24    2    3    3    0    0 -0.82333130917E+02  0.34293044812E+02  0.62079113297E+03  0.63230235166E+03  0.80435537982E+02 0.  0.
         -6    2    1    2    0  501  0.55906121485E+02 -0.33860038442E+02  0.34476023833E+03  0.39118372638E+03  0.17289618049E+03 0.  0.
        -24    2    5    5    0    0  0.81994337378E+02 -0.42570685215E+02  0.34308000006E+03  0.36323048728E+03  0.75479572381E+02 0.  0.
          5    1    3    3  502    0  0.26427009432E+02 -0.43300636972E+00  0.18356563991E+02  0.32521189456E+02  0.47000000000E+01 0. -1.
        -13    1    4    4    0    0 -0.18539297320E+02  0.19229820855E+02  0.42483291725E+03  0.42567182094E+03  0.00000000000E+00 0.  1.
         14    1    4    4    0    0 -0.63793833597E+02  0.15063223957E+02  0.19595821572E+03  0.20663053073E+03  0.00000000000E+00 0. -1.
         -5    1    5    5    0  501 -0.26088215893E+02  0.87106467729E+01  0.16802382753E+01  0.27953239103E+02  0.47000000000E+01 0.  1.
         13    1    6    6    0    0  0.68655149293E+02 -0.18693205573E+02  0.31884257513E+03  0.32668571009E+03  0.00000000000E+00 0. -1.
        -14    1    6    6    0    0  0.13339188085E+02 -0.23877479642E+02  0.24237424926E+02  0.36544777190E+02  0.00000000000E+00 0.  1.
</event>
<event>
12    1  0.1345781E-002  0.2062728E+03  0.7818608E-02  0.1144552E+00
          1   -1    0    0  502    0  0.00000000000E+00  0.00000000000E+00  0.10824783337E+04  0.10824783337E+04  0.00000000000E+00 0. -1.
         -1   -1    0    0    0  501 -0.00000000000E+00 -0.00000000000E+00 -0.43890155504E+02  0.43890155504E+02  0.00000000000E+00 0.  1.
          6    2    1    2  502    0 -0.71852946918E+02 -0.86014391287E+02  0.33653546001E+03  0.39454479223E+03  0.17276618807E+03 0.  0.
         24    2    3    3    0    0  0.25150157062E+02 -0.57765948141E+02  0.21489672870E+03  0.23634982494E+03  0.75572485575E+02 0.  0.
         -6    2    1    2    0  501  0.71852946918E+02  0.86014391287E+02  0.70205271819E+03  0.73182369698E+03  0.17357010933E+03 0.  0.
        -24    2    5    5    0    0  0.11038566807E+03  0.66626351435E+02  0.43041608309E+03  0.45674331197E+03  0.82051093997E+02 0.  0.
          5    1    3    3  502    0 -0.97003103981E+02 -0.28248443146E+02  0.12163873131E+03  0.15819496729E+03  0.47000000000E+01 0. -1.
        -11    1    4    4    0    0  0.29887837821E+02 -0.45989543368E+02  0.61404736621E+02  0.82333848619E+02  0.00000000000E+00 0.  1.
         12    1    4    4    0    0 -0.47376807582E+01 -0.11776404773E+02  0.15349199208E+03  0.15401597632E+03  0.00000000000E+00 0. -1.
         -5    1    5    5    0  501 -0.38532721152E+02  0.19388039852E+02  0.27163663510E+03  0.27508038501E+03  0.47000000000E+01 0.  1.
         11    1    6    6    0    0  0.54081132121E+02  0.28393880461E+02  0.32890441326E+03  0.33452816677E+03  0.00000000000E+00 0. -1.
        -12    1    6    6    0    0  0.56304535950E+02  0.38232470973E+02  0.10151166983E+03  0.12221514521E+03  0.00000000000E+00 0.  1.
</event>
<event>
12    1  0.1345781E-002  0.2099771E+03  0.7818608E-02  0.1141584E+00
          1   -1    0    0  502    0  0.00000000000E+00  0.00000000000E+00  0.84419657338E+03  0.84419657338E+03  0.00000000000E+00 0. -1.
         -1   -1    0    0    0  501 -0.00000000000E+00 -0.00000000000E+00 -0.10402201365E+03  0.10402201365E+03  0.00000000000E+00 0.  1.
          6    2    1    2  502    0 -0.11865478313E+03 -0.11427066722E+02  0.35474010472E+02  0.21287870279E+03  0.17276979270E+03 0.  0.
         24    2    3    3    0    0 -0.19834516732E+02  0.38911428055E+02  0.44307421787E+02  0.10152553372E+03  0.80229539971E+02 0.  0.
         -6    2    1    2    0  501  0.11865478313E+03  0.11427066722E+02  0.70470054926E+03  0.73533988424E+03  0.17295185983E+03 0.  0.
        -24    2    5    5    0    0  0.11510385162E+01 -0.18241338684E+02  0.37590593934E+03  0.38488970263E+03  0.80627145770E+02 0.  0.
          5    1    3    3  502    0 -0.98820266402E+02 -0.50338494777E+02 -0.88334113151E+01  0.11135316908E+03  0.47000000000E+01 0. -1.
        -11    1    4    4    0    0 -0.15135616769E+01 -0.11938322394E+02 -0.16336999643E+02  0.20290686727E+02  0.00000000000E+00 0.  1.
         12    1    4    4    0    0 -0.18320955055E+02  0.50849750449E+02  0.60644421430E+02  0.81234846990E+02  0.00000000000E+00 0. -1.
         -5    1    5    5    0  501  0.11750374462E+03  0.29668405406E+02  0.32879460992E+03  0.35045018161E+03  0.47000000000E+01 0.  1.
         13    1    6    6    0    0  0.88416484832E+01  0.31280182940E+02  0.15461210029E+03  0.15799217116E+03  0.00000000000E+00 0. -1.
        -14    1    6    6    0    0 -0.76906099669E+01 -0.49521521625E+02  0.22129383905E+03  0.22689753147E+03  0.00000000000E+00 0.  1.
</event>
<event>
12    1  0.1345781E-002  0.1717434E+03  0.7818608E-02  0.1176042E+00
         -3   -1    0    0    0  501 -0.00000000000E+00  0.00000000000E+00  0.93705995468E+03  0.93705995468E+03  0.00000000000E+00 0.  1.
          3   -1    0    0  502    0  0.00000000000E+00 -0.00000000000E+00 -0.31887345539E+02  0.31887345539E+02  0.00000000000E+00 0. -1.
          6    2    1    2  502    0 -0.41153660272E+01  0.14213104311E+02  0.50411471708E+03  0.53215875546E+03  0.16983034023E+03 0.  0.
         24    2    3    3    0    0 -0.76511956276E+01  0.71738624308E+02  0.36203989027E+03  0.37876698920E+03  0.84773692564E+02 0.  0.
         -6    2    1    2    0  501  0.41153660272E+01 -0.14213104311E+02  0.40105789206E+03  0.43678854475E+03  0.17238866401E+03 0.  0.
        -24    2    5    5    0    0 -0.34692976010E+02 -0.39123641705E+02  0.12876628272E+03  0.16057950652E+03  0.80441036950E+02 0.  0.
          5    1    3    3  502    0  0.35358296004E+01 -0.57525519997E+02  0.14207482682E+03  0.15339176626E+03  0.47000000000E+01 0. -1.
        -13    1    4    4    0    0  0.17954540008E+02  0.93638903164E+01  0.22629037955E+03  0.22719459463E+03  0.00000000000E+00 0.  1.
         14    1    4    4    0    0 -0.25605735636E+02  0.62374733992E+02  0.13574951071E+03  0.15157239458E+03  0.00000000000E+00 0. -1.
         -5    1    5    5    0  501  0.38808342037E+02  0.24910537394E+02  0.27229160934E+03  0.27620903823E+03  0.47000000000E+01 0.  1.
         11    1    6    6    0    0 -0.89850655011E+01 -0.21984570117E+02  0.12746084811E+03  0.12965462015E+03  0.00000000000E+00 0. -1.
        -12    1    6    6    0    0 -0.25707910509E+02 -0.17139071589E+02  0.13054346067E+01  0.30924886373E+02  0.00000000000E+00 0.  1.
</event>
<event>
12    1  0.1345781E-002  0.1972504E+03  0.7818608E-02  0.1152080E+00
         -2   -1    0    0    0  501 -0.00000000000E+00  0.00000000000E+00  0.92864675626E+02  0.92864675626E+02  0.00000000000E+00 0.  1.
          2   -1    0    0  502    0  0.00000000000E+00 -0.00000000000E+00 -0.69862974061E+03  0.69862974061E+03  0.00000000000E+00 0. -1.
          6    2    1    2  502    0 -0.71799680786E+02 -0.66831193771E+02 -0.52454643703E+02  0.20406043993E+03  0.17107767498E+03 0.  0.
         24    2    3    3    0    0 -0.30287177890E+02 -0.10314757117E+03 -0.10690823638E+02  0.13471727999E+03  0.80484267003E+02 0.  0.
         -6    2    1    2    0  501  0.71799680786E+02  0.66831193771E+02 -0.55331042128E+03  0.58743397631E+03  0.17118601460E+03 0.  0.
        -24    2    5    5    0    0  0.69959264808E+02  0.10493497510E+03 -0.49956036618E+03  0.52135490469E+03  0.79653810036E+02 0.  0.
          5    1    3    3  502    0 -0.41512502896E+02  0.36316377401E+02 -0.41763820065E+02  0.69343159941E+02  0.47000000000E+01 0. -1.
        -13    1    4    4    0    0 -0.48886680621E+02 -0.46831445363E+02 -0.27503655775E+02  0.73072175949E+02  0.00000000000E+00 0.  1.
         14    1    4    4    0    0  0.18599502731E+02 -0.56316125809E+02  0.16812832137E+02  0.61645104043E+02  0.00000000000E+00 0. -1.
         -5    1    5    5    0  501  0.18404159774E+01 -0.38103781326E+02 -0.53750055106E+02  0.66079071620E+02  0.47000000000E+01 0.  1.
         13    1    6    6    0    0  0.87942814771E+02  0.87431742063E+02 -0.42093801726E+03  0.43882463760E+03  0.00000000000E+00 0. -1.
        -14    1    6    6    0    0 -0.17983549963E+02  0.17503233034E+02 -0.78622348917E+02  0.82530267086E+02  0.00000000000E+00 0.  1.
</event>
<event>
12    1  0.1345781E-002  0.2140983E+03  0.7818608E-02  0.1138361E+00
          2   -1    0    0  502    0  0.00000000000E+00  0.00000000000E+00  0.42473267557E+03  0.42473267557E+03  0.00000000000E+00 0.  1.
         -2   -1    0    0    0  501 -0.00000000000E+00 -0.00000000000E+00 -0.13409459234E+03  0.13409459234E+03  0.00000000000E+00 0. -1.
          6    2    1    2  502    0 -0.45434716831E+02 -0.11971580017E+03  0.21358601560E+02  0.21420811814E+03  0.17038996952E+03 0.  0.
         24    2    3    3    0    0  0.17468554069E+02 -0.10323463232E+03  0.50222546757E+02  0.14290827441E+03  0.83294243503E+02 0.  0.
         -6    2    1    2    0  501  0.45434716831E+02  0.11971580017E+03  0.26927948167E+03  0.34461914977E+03  0.17278522170E+03 0.  0.
        -24    2    5    5    0    0  0.93921892551E+01  0.14643543699E+03  0.18426622934E+03  0.24837806780E+03  0.78778619360E+02 0.  0.
          5    1    3    3  502    0 -0.62903270899E+02 -0.16481167849E+02 -0.28863945197E+02  0.71299843730E+02  0.47000000000E+01 0. -1.
        -11    1    4    4    0    0  0.71697491663E+01  0.14044364475E+02  0.29525007360E+01  0.16042653684E+02  0.00000000000E+00 0.  1.
         12    1    4    4    0    0  0.10298804902E+02 -0.11727899679E+03  0.47270046021E+02  0.12686562072E+03  0.00000000000E+00 0. -1.
         -5    1    5    5    0  501  0.36042527576E+02 -0.26719636821E+02  0.85013252333E+02  0.96241081967E+02  0.47000000000E+01 0.  1.
         11    1    6    6    0    0  0.98734893670E+01  0.14029677430E+03  0.19230781235E+03  0.23824979615E+03  0.00000000000E+00 0. -1.
        -12    1    6    6    0    0 -0.48130011187E+00  0.61386626861E+01 -0.80415830173E+01  0.10128271659E+02  0.00000000000E+00 0.  1.
</event>
<event>
12    1  0.1345781E-002  0.2350807E+03  0.7818608E-02  0.1123114E+00
         -1   -1    0    0    0  501 -0.00000000000E+00  0.00000000000E+00  0.43915547613E+02  0.43915547613E+02  0.00000000000E+00 0.  1.
          1   -1    0    0  502    0  0.00000000000E+00 -0.00000000000E+00 -0.12673018841E+04  0.12673018841E+04  0.00000000000E+00 0. -1.
          6    2    1    2  502    0 -0.75466507651E+02  0.14081893703E+03 -0.66818730799E+03  0.70853286933E+03  0.17326102148E+03 0.  0.
         24    2    3    3    0    0 -0.11009503567E+01  0.10228882828E+03 -0.53246501166E+03  0.54897900033E+03  0.85992660619E+02 0.  0.
         -6    2    1    2    0  501  0.75466507651E+02 -0.14081893703E+03 -0.55519902847E+03  0.60268456235E+03  0.17163202988E+03 0.  0.
        -24    2    5    5    0    0  0.14488354361E+02 -0.26698995090E+02 -0.34915009277E+03  0.35933306712E+03  0.79320344786E+02 0.  0.
          5    1    3    3  502    0 -0.74365557294E+02  0.38530108755E+02 -0.13572229633E+03  0.15955386900E+03  0.47000000000E+01 0. -1.
        -11    1    4    4    0    0 -0.93266696807E+01  0.10964612958E+03 -0.36690594305E+03  0.38305251800E+03  0.00000000000E+00 0.  1.
         12    1    4    4    0    0  0.82257193240E+01 -0.73573012996E+01 -0.16555906861E+03  0.16592648233E+03  0.00000000000E+00 0. -1.
         -5    1    5    5    0  501  0.60978153290E+02 -0.11411994194E+03 -0.20604893570E+03  0.24335149523E+03  0.47000000000E+01 0.  1.
         13    1    6    6    0    0  0.21848452686E+02  0.12242266314E+02 -0.37011602277E+02  0.44688775687E+02  0.00000000000E+00 0. -1.
        -14    1    6    6    0    0 -0.73600983248E+01 -0.38941261404E+02 -0.31213849049E+03  0.31464429144E+03  0.00000000000E+00 0.  1.
</event>
<event>
12    1  0.1345781E-002  0.1825294E+03  0.7818608E-02  0.1165377E+00
         -2   -1    0    0    0  501 -0.00000000000E+00  0.00000000000E+00  0.35627903183E+03  0.35627903183E+03  0.00000000000E+00 0.  1.
          2   -1    0    0  502    0  0.00000000000E+00 -0.00000000000E+00 -0.96646322404E+02  0.96646322404E+02  0.00000000000E+00 0. -1.
          6    2    1    2  502    0 -0.26266031419E+02  0.56260041443E+02  0.17009134134E+03  0.24897940191E+03  0.17089348000E+03 0.  0.
         24    2    3    3    0    0 -0.24044713215E+01 -0.32556850325E+02  0.87942874738E+02  0.12557650535E+03  0.83485205241E+02 0.  0.
         -6    2    1    2    0  501  0.26266031419E+02 -0.56260041443E+02  0.89541368082E+02  0.20394595232E+03  0.17239837064E+03 0.  0.
        -24    2    5    5    0    0 -0.45678796401E+02 -0.48264715570E+02  0.79936302740E+02  0.13077265961E+03  0.79345074176E+02 0.  0.
          5    1    3    3  502    0 -0.23861560098E+02  0.88816891768E+02  0.82148466606E+02  0.12340289656E+03  0.47000000000E+01 0. -1.
        -11    1    4    4    0    0  0.29678870491E+02  0.26675614215E+01  0.67395375390E+02  0.73689129873E+02  0.00000000000E+00 0.  1.
         12    1    4    4    0    0 -0.32083341812E+02 -0.35224411746E+02  0.20547499348E+02  0.51887375480E+02  0.00000000000E+00 0. -1.
         -5    1    5    5    0  501  0.71944827820E+02 -0.79953258731E+01  0.96050653421E+01  0.73173292711E+02  0.47000000000E+01 0.  1.
         13    1    6    6    0    0  0.17288020234E+02 -0.16442172495E+02 -0.39109491363E+00  0.23861551400E+02  0.00000000000E+00 0. -1.
        -14    1    6    6    0    0 -0.62966816635E+02 -0.31822543075E+02  0.80327397654E+02  0.10691110821E+03  0.00000000000E+00 0.  1.
</event>
<event>
12    1  0.1345781E-002  0.2127135E+03  0.7818608E-02  0.1139435E+00
          2   -1    0    0  502    0  0.00000000000E+00  0.00000000000E+00  0.88688533233E+03  0.88688533233E+03  0.00000000000E+00 0. -1.
         -2   -1    0    0    0  501 -0.00000000000E+00 -0.00000000000E+00 -0.56860253969E+02  0.56860253969E+02  0.00000000000E+00 0.  1.
          6    2    1    2  502    0  0.11953227999E+03  0.37995192607E+02  0.26538891388E+03  0.34069562826E+03  0.17294691350E+03 0.  0.
         24    2    3    3    0    0 -0.30257282955E+01 -0.12734030383E+02  0.10458515776E+03  0.13219177353E+03  0.79782825237E+02 0.  0.
         -6    2    1    2    0  501 -0.11953227999E+03 -0.37995192607E+02  0.56463616449E+03  0.60304995803E+03  0.17065653524E+03 0.  0.
        -24    2    5    5    0    0 -0.84270095758E+02  0.42277177388E+02  0.33516894087E+03  0.35735833886E+03  0.80485741956E+02 0.  0.
          5    1    3    3  502    0  0.12255800828E+03  0.50729222989E+02  0.16080375611E+03  0.20850385474E+03  0.47000000000E+01 0. -1.
        -11    1    4    4    0    0  0.21385628286E+02  0.20983045856E+02  0.15214332571E+02  0.33602220554E+02  0.00000000000E+00 0.  1.
         12    1    4    4    0    0 -0.24411356582E+02 -0.33717076239E+02  0.89370825192E+02  0.98589552975E+02  0.00000000000E+00 0. -1.
         -5    1    5    5    0  501 -0.35262184231E+02 -0.80272369995E+02  0.22946722361E+03  0.24569161918E+03  0.47000000000E+01 0.  1.
         11    1    6    6    0    0 -0.21901697518E+02 -0.17041352835E+02  0.15764160405E+03  0.16006550967E+03  0.00000000000E+00 0. -1.
        -12    1    6    6    0    0 -0.62368398239E+02  0.59318530223E+02  0.17752733683E+03  0.19729282918E+03  0.00000000000E+00 0.  1.
</event>
<event>
12    1  0.1345781E-002  0.1929359E+03  0.7818608E-02  0.1155840E+00
         -2   -1    0    0    0  501 -0.00000000000E+00  0.00000000000E+00  0.31349395262E+02  0.31349395262E+02  0.00000000000E+00 0.  1.
          2   -1    0    0  502    0  0.00000000000E+00 -0.00000000000E+00 -0.16510354661E+04  0.16510354661E+04  0.00000000000E+00 0. -1.
          6    2    1    2  502    0 -0.14552503593E+02  0.84650561102E+02 -0.36617420561E+03  0.41421666829E+03  0.17353502982E+03 0.  0.
         24    2    3    3    0    0  0.95030213671E+01 -0.22243968018E+02 -0.17822179587E+03  0.19660851824E+03  0.79415359939E+02 0.  0.
         -6    2    1    2    0  501  0.14552503593E+02 -0.84650561102E+02 -0.12535118652E+04  0.12681681931E+04  0.17199150215E+03 0.  0.
        -24    2    5    5    0    0  0.11409474568E+02 -0.11810535926E+03 -0.11583422959E+04  0.11671313726E+04  0.79747818890E+02 0.  0.
          5    1    3    3  502    0 -0.24055524960E+02  0.10689452912E+03 -0.18795240975E+03  0.21760815005E+03  0.47000000000E+01 0. -1.
        -13    1    4    4    0    0  0.42640906452E+02 -0.12204045392E+02 -0.12912558007E+03  0.13653058652E+03  0.00000000000E+00 0.  1.
         14    1    4    4    0    0 -0.33137885085E+02 -0.10039922626E+02 -0.49096215799E+02  0.60077931723E+02  0.00000000000E+00 0. -1.
         -5    1    5    5    0  501  0.31430290255E+01  0.33454798160E+02 -0.95169569370E+02  0.10103682044E+03  0.47000000000E+01 0.  1.
         13    1    6    6    0    0  0.43543552851E+02 -0.42921688548E+02 -0.51232519240E+03  0.51596067206E+03  0.00000000000E+00 0. -1.
        -14    1    6    6    0    0 -0.32134078283E+02 -0.75183670714E+02 -0.64601710347E+03  0.65117070059E+03  0.00000000000E+00 0.  1.
</event>
<event>
12    1  0.1345781E-002  0.2533011E+03  0.7818608E-02  0.1111236E+00
          2   -1    0    0  502    0  0.00000000000E+00  0.00000000000E+00  0.75542530400E+03  0.75542530400E+03  0.00000000000E+00 0. -1.
         -2   -1    0    0    0  501 -0.00000000000E+00 -0.00000000000E+00 -0.86815140262E+02  0.86815140262E+02  0.00000000000E+00 0.  1.
          6    2    1    2  502    0  0.18491943425E+03 -0.61665379326E+01  0.27259323823E+03  0.37225794441E+03  0.17330805028E+03 0.  0.
         24    2    3    3    0    0  0.19520123835E+03 -0.18813329533E+01  0.28527709287E+03  0.35473514082E+03  0.79667669398E+02 0.  0.
         -6    2    1    2    0  501 -0.18491943425E+03  0.61665379326E+01  0.39601692551E+03  0.46998249985E+03  0.17268735195E+03 0.  0.
        -24    2    5    5    0    0 -0.13301536634E+03 -0.23834670465E+02  0.15432751262E+03  0.22092433983E+03  0.82032942039E+02 0.  0.
          5    1    3    3  502    0 -0.10281804097E+02 -0.42852049793E+01 -0.12683854640E+02  0.17522803593E+02  0.47000000000E+01 0. -1.
        -13    1    4    4    0    0  0.27080934906E+02 -0.16341204494E+02  0.96420399435E+02  0.10147563957E+03  0.00000000000E+00 0.  1.
         14    1    4    4    0    0  0.16812030344E+03  0.14459871540E+02  0.18885669343E+03  0.25325950124E+03  0.00000000000E+00 0. -1.
         -5    1    5    5    0  501 -0.51904067912E+02  0.30001208398E+02  0.24168941289E+03  0.24905816002E+03  0.47000000000E+01 0.  1.
         11    1    6    6    0    0 -0.27550113823E+02 -0.42695469825E+02  0.53928064641E+02  0.74095533408E+02  0.00000000000E+00 0. -1.
        -12    1    6    6    0    0 -0.10546525252E+03  0.18860799359E+02  0.10039944798E+03  0.14682880642E+03  0.00000000000E+00 0.  1.
</event>
<event>
12    1  0.1345781E-002  0.2136951E+03  0.7818608E-02  0.1138673E+00
         -2   -1    0    0    0  501 -0.00000000000E+00  0.00000000000E+00  0.10487364172E+03  0.10487364172E+03  0.00000000000E+00 0.  1.
          2   -1    0    0  502    0  0.00000000000E+00 -0.00000000000E+00 -0.63074027134E+03  0.63074027134E+03  0.00000000000E+00 0. -1.
          6    2    1    2  502    0 -0.13085727772E+03  0.54968082492E+01 -0.60227488926E+02  0.22421889259E+03  0.17173502653E+03 0.  0.
         24    2    3    3    0    0 -0.93094172564E+01 -0.23313232969E+02 -0.40073852606E+00  0.85635953806E+02  0.81872974246E+02 0.  0.
         -6    2    1    2    0  501  0.13085727772E+03 -0.54968082492E+01 -0.46563914070E+03  0.51139502048E+03  0.16598558849E+03 0.  0.
        -24    2    5    5    0    0  0.15930689720E+03 -0.91679539885E+01 -0.42857689128E+03  0.46429344416E+03  0.80171763572E+02 0.  0.
          5    1    3    3  502    0 -0.12154786047E+03  0.28810041218E+02 -0.59826750399E+02  0.13858293878E+03  0.47000000000E+01 0. -1.
        -11    1    4    4    0    0 -0.37334576767E+02 -0.34701244275E+02 -0.13411734437E+02  0.52705992043E+02  0.00000000000E+00 0.  1.
         12    1    4    4    0    0  0.28025159511E+02  0.11388011307E+02  0.13010995911E+02  0.32929961763E+02  0.00000000000E+00 0. -1.
         -5    1    5    5    0  501 -0.28449619480E+02  0.36711457392E+01 -0.37062249415E+02  0.47101576315E+02  0.47000000000E+01 0.  1.
         11    1    6    6    0    0  0.32413911238E+02  0.31435632229E+02 -0.11811761704E+03  0.12645407100E+03  0.00000000000E+00 0. -1.
        -12    1    6    6    0    0  0.12689298596E+03 -0.40603586217E+02 -0.31045927424E+03  0.33783937316E+03  0.00000000000E+00 0.  1.
</event>
<event>
12    1  0.1345781E-002  0.2626877E+03  0.7818608E-02  0.1105539E+00
          2   -1    0    0  502    0  0.00000000000E+00  0.00000000000E+00  0.28123294771E+03  0.28123294771E+03  0.00000000000E+00 0. -1.
         -2   -1    0    0    0  501 -0.00000000000E+00 -0.00000000000E+00 -0.31879112645E+03  0.31879112645E+03  0.00000000000E+00 0.  1.
          6    2    1    2  502    0  0.19765974526E+03  0.18400054029E+02 -0.16277183197E+03  0.30918975277E+03  0.17232439482E+03 0.  0.
         24    2    3    3    0    0  0.20838995454E+02  0.22000905814E+02 -0.67025830566E+02  0.10802332793E+03  0.79109252471E+02 0.  0.
         -6    2    1    2    0  501 -0.19765974526E+03 -0.18400054029E+02  0.12521365323E+03  0.29083432139E+03  0.17175041968E+03 0.  0.
        -24    2    5    5    0    0 -0.17469861168E+03 -0.57229642635E+02  0.13894854445E+03  0.24344563241E+03  0.78512680597E+02 0.  0.
          5    1    3    3  502    0  0.17682074981E+03 -0.36008517849E+01 -0.95746001399E+02  0.20116642483E+03  0.47000000000E+01 0. -1.
        -13    1    4    4    0    0 -0.22887334451E+01 -0.26823720105E+02 -0.38359780545E+02  0.46863877609E+02  0.00000000000E+00 0.  1.
         14    1    4    4    0    0  0.23127728899E+02  0.48824625920E+02 -0.28666050022E+02  0.61159450325E+02  0.00000000000E+00 0. -1.
         -5    1    5    5    0  501 -0.22961133578E+02  0.38829588606E+02 -0.13734891221E+02  0.47388688981E+02  0.47000000000E+01 0.  1.
         11    1    6    6    0    0 -0.14275033890E+03 -0.69169435583E+02  0.85932616429E+02  0.18040644290E+03  0.00000000000E+00 0. -1.
        -12    1    6    6    0    0 -0.31948272782E+02  0.11939792948E+02  0.53015928024E+02  0.63039189507E+02  0.00000000000E+00 0.  1.
</event>
<event>
12    1  0.1345781E-002  0.2024158E+03  0.7818608E-02  0.1147717E+00
          1   -1    0    0  502    0  0.00000000000E+00  0.00000000000E+00  0.98044935505E+03  0.98044935505E+03  0.00000000000E+00 0.  1.
         -1   -1    0    0    0  501 -0.00000000000E+00 -0.00000000000E+00 -0.41799796764E+02  0.41799796764E+02  0.00000000000E+00 0. -1.
          6    2    1    2  502    0  0.98376877422E+02 -0.43965711364E+01  0.47114211097E+03  0.51386487167E+03  0.17995798888E+03 0.  0.
         24    2    3    3    0    0  0.78654366843E+02 -0.31822253084E+01  0.47896548228E+03  0.49209913717E+03  0.80975253051E+02 0.  0.
         -6    2    1    2    0  501 -0.98376877422E+02  0.43965711364E+01  0.46750744732E+03  0.50838428014E+03  0.17376427466E+03 0.  0.
        -24    2    5    5    0    0 -0.12437685184E+03  0.13760083360E+02  0.45088294180E+03  0.47579381812E+03  0.86170696856E+02 0.  0.
          5    1    3    3  502    0  0.19722510579E+02 -0.12143458280E+01 -0.78233713171E+01  0.21765734495E+02  0.47000000000E+01 0. -1.
        -11    1    4    4    0    0 -0.14072522389E+02  0.67898622771E+00  0.13838026393E+03  0.13909563025E+03  0.00000000000E+00 0.  1.
         12    1    4    4    0    0  0.92726889232E+02 -0.38612115361E+01  0.34058521835E+03  0.35300350693E+03  0.00000000000E+00 0. -1.
         -5    1    5    5    0  501  0.25999974413E+02 -0.93635122240E+01  0.16624505521E+02  0.32590462017E+02  0.47000000000E+01 0.  1.
         13    1    6    6    0    0  0.11337065832E+02 -0.66986710550E+01  0.23803968991E+02  0.27203496012E+02  0.00000000000E+00 0. -1.
        -14    1    6    6    0    0 -0.13571391767E+03  0.20458754415E+02  0.42707897281E+03  0.44859032211E+03  0.00000000000E+00 0.  1.
</event>
<event>
12    1  0.1345781E-002  0.2565893E+03  0.7818608E-02  0.1109210E+00
         -1   -1    0    0    0  501 -0.00000000000E+00  0.00000000000E+00  0.21361518839E+03  0.21361518839E+03  0.00000000000E+00 0. -1.
          1   -1    0    0  502    0  0.00000000000E+00 -0.00000000000E+00 -0.30893563967E+03  0.30893563967E+03  0.00000000000E+00 0.  1.
          6    2    1    2  502    0  0.17900848913E+03 -0.64887411087E+02 -0.35092620115E+02  0.25948326645E+03  0.17275896006E+03 0.  0.
         24    2    3    3    0    0  0.18548973921E+03 -0.43120449004E+02  0.11814800142E+02  0.20715542189E+03  0.80671945802E+02 0.  0.
         -6    2    1    2    0  501 -0.17900848913E+03  0.64887411087E+02 -0.60227831165E+02  0.26306756162E+03  0.17123882454E+03 0.  0.
        -24    2    5    5    0    0 -0.63430323397E+02  0.89850537025E+02 -0.28484938374E+02  0.14054747635E+03  0.82738603233E+02 0.  0.
          5    1    3    3  502    0 -0.64812500820E+01 -0.21766962083E+02 -0.46907420257E+02  0.52327844559E+02  0.47000000000E+01 0. -1.
        -11    1    4    4    0    0  0.42838015439E+02 -0.90334810976E-01 -0.30119150264E+02  0.52366658665E+02  0.00000000000E+00 0.  1.
         12    1    4    4    0    0  0.14265172378E+03 -0.43030114193E+02  0.41933950407E+02  0.15478876322E+03  0.00000000000E+00 0. -1.
         -5    1    5    5    0  501 -0.11557816574E+03 -0.24963125938E+02 -0.31742892791E+02  0.12252008527E+03  0.47000000000E+01 0.  1.
         13    1    6    6    0    0 -0.59951086082E+02  0.80706787625E+02  0.98174848638E+01  0.10101535180E+03  0.00000000000E+00 0. -1.
        -14    1    6    6    0    0 -0.34792373151E+01  0.91437493995E+01 -0.38302423238E+02  0.39532124548E+02  0.00000000000E+00 0.  1.
</event>
<event>
12    1  0.1345781E-002  0.1877249E+03  0.7818608E-02  0.1160529E+00
          2   -1    0    0  502    0  0.00000000000E+00  0.00000000000E+00  0.14877263384E+04  0.14877263384E+04  0.00000000000E+00 0. -1.
         -2   -1    0    0    0  501 -0.00000000000E+00 -0.00000000000E+00 -0.33045752745E+02  0.33045752745E+02  0.00000000000E+00 0.  1.
          6    2    1    2  502    0 -0.58816682161E+02 -0.46983835204E+02  0.11304694875E+04  0.11458615387E+04  0.17137829742E+03 0.  0.
         24    2    3    3    0    0 -0.22858070053E+02 -0.24318784316E+02  0.23213261128E+03  0.24650734846E+03  0.75937006716E+02 0.  0.
         -6    2    1    2    0  501  0.58816682161E+02  0.46983835204E+02  0.32421109819E+03  0.37491055248E+03  0.17256362103E+03 0.  0.
        -24    2    5    5    0    0 -0.36310348904E+02  0.16989252309E+02  0.15546861553E+03  0.17883673349E+03  0.78771890271E+02 0.  0.
          5    1    3    3  502    0 -0.35958612108E+02 -0.22665050888E+02  0.89833687619E+03  0.89935419020E+03  0.47000000000E+01 0. -1.
        -11    1    4    4    0    0 -0.13127919265E+02  0.24822980530E+02  0.47311108249E+02  0.55016939122E+02  0.00000000000E+00 0.  1.
         12    1    4    4    0    0 -0.97301507881E+01 -0.49141764846E+02  0.18482150303E+03  0.19149040934E+03  0.00000000000E+00 0. -1.
         -5    1    5    5    0  501  0.95127031065E+02  0.29994582896E+02  0.16874248266E+03  0.19607381900E+03  0.47000000000E+01 0.  1.
         13    1    6    6    0    0 -0.20954962807E+02 -0.31211575767E+02  0.72351128183E+02  0.81535015039E+02  0.00000000000E+00 0. -1.
        -14    1    6    6    0    0 -0.15355386097E+02  0.48200828076E+02  0.83117487349E+02  0.97301718446E+02  0.00000000000E+00 0.  1.
</event>
<event>
12    1  0.1345781E-002  0.2987316E+03  0.7818608E-02  0.1085876E+00
         -1   -1    0    0    0  501 -0.00000000000E+00  0.00000000000E+00  0.54581688581E+03  0.54581688581E+03  0.00000000000E+00 0.  1.
          1   -1    0    0  502    0  0.00000000000E+00 -0.00000000000E+00 -0.16478682727E+03  0.16478682727E+03  0.00000000000E+00 0. -1.
          6    2    1    2  502    0  0.20768342689E+03 -0.12506315621E+03  0.22196787386E+03  0.37222683998E+03  0.17467078901E+03 0.  0.
         24    2    3    3    0    0  0.73147485757E+02 -0.89341903525E+02  0.17778245328E+03  0.22610918622E+03  0.78652609627E+02 0.  0.
         -6    2    1    2    0  501 -0.20768342689E+03  0.12506315621E+03  0.15906218467E+03  0.33837687310E+03  0.17442743708E+03 0.  0.
        -24    2    5    5    0    0 -0.10235524315E+03  0.11365132106E+03  0.39795832637E+02  0.17878110561E+03  0.83580840205E+02 0.  0.
          5    1    3    3  502    0  0.13453594113E+03 -0.35721252689E+02  0.44185420574E+02  0.14611765376E+03  0.47000000000E+01 0. -1.
        -13    1    4    4    0    0  0.66529432253E+02 -0.53033741463E+02  0.16738348192E+03  0.18776573998E+03  0.00000000000E+00 0.  1.
         14    1    4    4    0    0  0.66180535043E+01 -0.36308162062E+02  0.10398971360E+02  0.38343446244E+02  0.00000000000E+00 0. -1.
         -5    1    5    5    0  501 -0.10532818374E+03  0.11411835156E+02  0.11926635204E+03  0.15959576748E+03  0.47000000000E+01 0.  1.
         13    1    6    6    0    0 -0.30075626895E+02  0.87425307220E+00 -0.15522676897E+02  0.33856478695E+02  0.00000000000E+00 0. -1.
        -14    1    6    6    0    0 -0.72279616255E+02  0.11277706799E+03  0.55318509534E+02  0.14492462692E+03  0.00000000000E+00 0.  1.
</event>
<event>
12    1  0.1345781E-002  0.2060967E+03  0.7818608E-02  0.1144695E+00
          2   -1    0    0  502    0  0.00000000000E+00  0.00000000000E+00  0.49614954444E+03  0.49614954444E+03  0.00000000000E+00 0. -1.
         -2   -1    0    0    0  501 -0.00000000000E+00 -0.00000000000E+00 -0.11039962315E+03  0.11039962315E+03  0.00000000000E+00 0.  1.
          6    2    1    2  502    0 -0.99543120171E+02  0.53900808678E+02  0.33685995654E+03  0.39510639325E+03  0.17268555736E+03 0.  0.
         24    2    3    3    0    0 -0.11076770237E+02  0.77173745281E+02  0.14543317678E+03  0.18289370122E+03  0.78872144889E+02 0.  0.
         -6    2    1    2    0  501  0.99543120171E+02 -0.53900808678E+02  0.48889964745E+02  0.21144277433E+03  0.17176637685E+03 0.  0.
        -24    2    5    5    0    0  0.10847366733E+03 -0.31882486508E+02  0.88689649076E+02  0.16485236699E+03  0.80792447649E+02 0.  0.
          5    1    3    3  502    0 -0.88466349934E+02 -0.23272936603E+02  0.19142677977E+03  0.21221269203E+03  0.47000000000E+01 0. -1.
        -11    1    4    4    0    0 -0.25064867289E+02  0.33078516105E+02  0.12610271759E+03  0.13275666155E+03  0.00000000000E+00 0.  1.
         12    1    4    4    0    0  0.13988097052E+02  0.44095229176E+02  0.19330459181E+02  0.50137039675E+02  0.00000000000E+00 0. -1.
         -5    1    5    5    0  501 -0.89305471629E+01 -0.22018322170E+02 -0.39799684331E+02  0.46590407346E+02  0.47000000000E+01 0.  1.
         13    1    6    6    0    0  0.14468700869E+02 -0.32612090552E+02  0.53849606830E+02  0.64596222109E+02  0.00000000000E+00 0. -1.
        -14    1    6    6    0    0  0.94004966465E+02  0.72960404356E+00  0.34840042246E+02  0.10025614488E+03  0.00000000000E+00 0.  1.
</event>
<event>
12    1  0.1345781E-002  0.1776258E+03  0.7818608E-02  0.1170121E+00
         -2   -1    0    0    0  501 -0.00000000000E+00  0.00000000000E+00  0.34651855447E+02  0.34651855447E+02  0.00000000000E+00 0.  1.
          2   -1    0    0  502    0  0.00000000000E+00 -0.00000000000E+00 -0.11294140390E+04  0.11294140390E+04  0.00000000000E+00 0. -1.
          6    2    1    2  502    0 -0.31298780754E+02  0.29158448642E+02 -0.29150678715E+03  0.34143717843E+03  0.17254944523E+03 0.  0.
         24    2    3    3    0    0 -0.77254743796E+02  0.54124651126E+02 -0.18365286628E+03  0.22147960237E+03  0.80168981995E+02 0.  0.
         -6    2    1    2    0  501  0.31298780754E+02 -0.29158448642E+02 -0.80325539636E+03  0.82262871598E+03  0.17224675257E+03 0.  0.
        -24    2    5    5    0    0  0.58626563624E+02  0.30449082657E+02 -0.60266864779E+03  0.61154342704E+03  0.80072739017E+02 0.  0.
          5    1    3    3  502    0  0.45955963042E+02 -0.24966202484E+02 -0.10785392087E+03  0.11995757605E+03  0.47000000000E+01 0. -1.
        -13    1    4    4    0    0 -0.10244570338E+02  0.51927563830E+02 -0.54561753642E+02  0.76015840896E+02  0.00000000000E+00 0.  1.
         14    1    4    4    0    0 -0.67010173459E+02  0.21970872962E+01 -0.12909111264E+03  0.14546376148E+03  0.00000000000E+00 0. -1.
         -5    1    5    5    0  501 -0.27327782869E+02 -0.59607531299E+02 -0.20058674857E+03  0.21108528894E+03  0.47000000000E+01 0.  1.
         13    1    6    6    0    0  0.36698206609E+02  0.12068414577E+02 -0.55202994087E+03  0.55338003272E+03  0.00000000000E+00 0. -1.
        -14    1    6    6    0    0  0.21928357014E+02  0.18380668080E+02 -0.50638706920E+02  0.58163394321E+02  0.00000000000E+00 0.  1.
</event>
<event>
12    1  0.1345781E-002  0.1742672E+03  0.7818608E-02  0.1173470E+00
          1   -1    0    0  502    0  0.00000000000E+00  0.00000000000E+00  0.21524503368E+03  0.21524503368E+03  0.00000000000E+00 0.  1.
         -1   -1    0    0    0  501 -0.00000000000E+00 -0.00000000000E+00 -0.14154109894E+03  0.14154109894E+03  0.00000000000E+00 0. -1.
          6    2    1    2  502    0  0.76659415646E+01 -0.34019910779E+02  0.46521119308E+02  0.17902846759E+03  0.16932470781E+03 0.  0.
         24    2    3    3    0    0  0.41284635384E+02 -0.31800025374E+02  0.84844186957E+02  0.12778500967E+03  0.80092508415E+02 0.  0.
         -6    2    1    2    0  501 -0.76659415646E+01  0.34019910779E+02  0.27182815428E+02  0.17775766503E+03  0.17217073222E+03 0.  0.
        -24    2    5    5    0    0  0.18562699400E+02 -0.42701714316E+01 -0.43725487901E+02  0.92880403743E+02  0.79699704731E+02 0.  0.
          5    1    3    3  502    0 -0.33618693819E+02 -0.22198854057E+01 -0.38323067648E+02  0.51243457917E+02  0.47000000000E+01 0. -1.
        -13    1    4    4    0    0  0.35654983106E+02 -0.57280664359E+02  0.48724928001E+02  0.83225422428E+02  0.00000000000E+00 0.  1.
         14    1    4    4    0    0  0.56296522776E+01  0.25480638985E+02  0.36119258956E+02  0.44559587245E+02  0.00000000000E+00 0. -1.
         -5    1    5    5    0  501 -0.26228640965E+02  0.38290082211E+02  0.70908303329E+02  0.84877261287E+02  0.47000000000E+01 0.  1.
         13    1    6    6    0    0  0.34859600131E+02 -0.33166958708E+02 -0.20069759960E+02  0.52134768975E+02  0.00000000000E+00 0. -1.
        -14    1    6    6    0    0 -0.16296900730E+02  0.28896787276E+02 -0.23655727941E+02  0.40745634769E+02  0.00000000000E+00 0.  1.
</event>
<event>
12    1  0.1345781E-002  0.2012199E+03  0.7818608E-02  0.1148714E+00
          4   -1    0    0  502    0  0.00000000000E+00  0.00000000000E+00  0.10175476699E+03  0.10175476699E+03  0.00000000000E+00 0. -1.
         -4   -1    0    0    0  501 -0.00000000000E+00 -0.00000000000E+00 -0.42271793533E+03  0.42271793533E+03  0.00000000000E+00 0.  1.
          6    2    1    2  502    0 -0.84728576600E+02 -0.57031126787E+02 -0.22389299741E+03  0.30092642730E+03  0.17319688001E+03 0.  0.
         24    2    3    3    0    0 -0.98216324624E+02  0.91650640655E+01 -0.15217794196E+03  0.20229076333E+03  0.89626904917E+02 0.  0.
         -6    2    1    2    0  501  0.84728576600E+02  0.57031126787E+02 -0.97070170933E+02  0.22354627501E+03  0.17354779708E+03 0.  0.
        -24    2    5    5    0    0  0.10640727456E+03  0.73057096891E+02 -0.35986905312E+02  0.15661307696E+03  0.81072504795E+02 0.  0.
          5    1    3    3  502    0  0.13487748023E+02 -0.66196190853E+02 -0.71715055445E+02  0.98635663974E+02  0.47000000000E+01 0. -1.
        -11    1    4    4    0    0 -0.37698010446E+02 -0.19730195084E+02 -0.12113744358E+03  0.12839276002E+03  0.00000000000E+00 0.  1.
         12    1    4    4    0    0 -0.60518314177E+02  0.28895259150E+02 -0.31040498384E+02  0.73898003303E+02  0.00000000000E+00 0. -1.
         -5    1    5    5    0  501 -0.21678697963E+02 -0.16025970104E+02 -0.61083265621E+02  0.66933198056E+02  0.47000000000E+01 0.  1.
         13    1    6    6    0    0  0.58831028381E+02  0.83756516522E+02 -0.33835507960E+02  0.10780113895E+03  0.00000000000E+00 0. -1.
        -14    1    6    6    0    0  0.47576246182E+02 -0.10699419632E+02 -0.21513973522E+01  0.48811938005E+02  0.00000000000E+00 0.  1.
</event>
<event>
12    1  0.1345781E-002  0.2065151E+03  0.7818608E-02  0.1144356E+00
          2   -1    0    0  502    0  0.00000000000E+00  0.00000000000E+00  0.67607476014E+02  0.67607476014E+02  0.00000000000E+00 0.  1.
         -2   -1    0    0    0  501 -0.00000000000E+00 -0.00000000000E+00 -0.63251079056E+03  0.63251079056E+03  0.00000000000E+00 0. -1.
          6    2    1    2  502    0 -0.26491042781E+02  0.11255329597E+03 -0.26337771737E+03  0.33421503590E+03  0.17018180993E+03 0.  0.
         24    2    3    3    0    0 -0.35408106790E+01  0.46922652615E+02 -0.41411924394E+02  0.10156723825E+03  0.79916730003E+02 0.  0.
         -6    2    1    2    0  501  0.26491042781E+02 -0.11255329597E+03 -0.30152559717E+03  0.36590323067E+03  0.17203914869E+03 0.  0.
        -24    2    5    5    0    0  0.62726559446E+02 -0.90906696141E+02 -0.29152383361E+03  0.32227166839E+03  0.81695985348E+02 0.  0.
          5    1    3    3  502    0 -0.22950232102E+02  0.65630643360E+02 -0.22196579298E+03  0.23264779766E+03  0.47000000000E+01 0. -1.
        -13    1    4    4    0    0 -0.15517106112E+01  0.29154934467E+02 -0.65416526250E+02  0.71636163466E+02  0.00000000000E+00 0.  1.
         14    1    4    4    0    0 -0.19891000678E+01  0.17767718148E+02  0.24004601856E+02  0.29931074781E+02  0.00000000000E+00 0. -1.
         -5    1    5    5    0  501 -0.36235516665E+02 -0.21646599833E+02 -0.10001763559E+02  0.43631562275E+02  0.47000000000E+01 0.  1.
         13    1    6    6    0    0  0.19099382788E+02 -0.81689817685E+02 -0.23941976267E+03  0.25369240331E+03  0.00000000000E+00 0. -1.
        -14    1    6    6    0    0  0.43627176657E+02 -0.92168784561E+01 -0.52104070936E+02  0.68579265085E+02  0.00000000000E+00 0.  1.
</event>
<event>
12    1  0.1345781E-002  0.1829897E+03  0.7818608E-02  0.1164941E+00
          1   -1    0    0  502    0  0.00000000000E+00  0.00000000000E+00  0.63165497259E+03  0.63165497259E+03  0.00000000000E+00 0.  1.
         -1   -1    0    0    0  501 -0.00000000000E+00 -0.00000000000E+00 -0.64464593014E+02  0.64464593014E+02  0.00000000000E+00 0. -1.
          6    2    1    2  502    0 -0.49794964098E+02 -0.37271087988E+02  0.13579400958E+03  0.22717751539E+03  0.17117516763E+03 0.  0.
         24    2    3    3    0    0 -0.97196483487E+02 -0.10481070202E+02  0.89186274562E+02  0.15535147515E+03  0.81381079044E+02 0.  0.
         -6    2    1    2    0  501  0.49794964098E+02  0.37271087988E+02  0.43139637000E+03  0.46894205022E+03  0.17301776199E+03 0.  0.
        -24    2    5    5    0    0  0.13141736034E+02  0.32930258905E+01  0.40282527931E+03  0.41118077379E+03  0.81350315519E+02 0.  0.
          5    1    3    3  502    0  0.47401519388E+02 -0.26790017786E+02  0.46607735017E+02  0.71826040241E+02  0.47000000000E+01 0. -1.
        -13    1    4    4    0    0 -0.30441258674E+02 -0.31299543536E+02  0.70578374528E+02  0.82991798427E+02  0.00000000000E+00 0.  1.
         14    1    4    4    0    0 -0.66755224813E+02  0.20818473334E+02  0.18607900034E+02  0.72359676723E+02  0.00000000000E+00 0. -1.
         -5    1    5    5    0  501  0.36653228064E+02  0.33978062097E+02  0.28571090687E+02  0.57761276426E+02  0.47000000000E+01 0.  1.
         11    1    6    6    0    0  0.14252949777E+02 -0.26562537947E+01  0.84944636896E+01  0.16803516744E+02  0.00000000000E+00 0. -1.
        -12    1    6    6    0    0 -0.11112137431E+01  0.59492796852E+01  0.39433081562E+03  0.39437725705E+03  0.00000000000E+00 0.  1.
</event>
<event>
12    1  0.1345781E-002  0.1733371E+03  0.7818608E-02  0.1174412E+00
          2   -1    0    0  502    0  0.00000000000E+00  0.00000000000E+00  0.12748106382E+04  0.12748106382E+04  0.00000000000E+00 0.  1.
         -2   -1    0    0    0  501 -0.00000000000E+00 -0.00000000000E+00 -0.23867932578E+02  0.23867932578E+02  0.00000000000E+00 0. -1.
          6    2    1    2  502    0  0.15172482338E+02 -0.17767093852E+02  0.55310855662E+03  0.57966112003E+03  0.17184895935E+03 0.  0.
         24    2    3    3    0    0  0.31716738504E+02  0.41150312646E+01  0.16239457189E+03  0.18795708932E+03  0.89067308619E+02 0.  0.
         -6    2    1    2    0  501 -0.15172482338E+02  0.17767093852E+02  0.69783414900E+03  0.71901745074E+03  0.17166164718E+03 0.  0.
        -24    2    5    5    0    0 -0.59152611273E+02  0.30567510516E+01  0.25750875051E+03  0.27623173227E+03  0.80528492944E+02 0.  0.
          5    1    3    3  502    0 -0.16544256166E+02 -0.21882125116E+02  0.39071398473E+03  0.39170403071E+03  0.47000000000E+01 0. -1.
        -13    1    4    4    0    0  0.57064516787E+02 -0.18467248364E+02  0.11440406998E+03  0.12917309924E+03  0.00000000000E+00 0.  1.
         14    1    4    4    0    0 -0.25347778284E+02  0.22582279629E+02  0.47990501906E+02  0.58783990086E+02  0.00000000000E+00 0. -1.
         -5    1    5    5    0  501  0.43980128935E+02  0.14710342800E+02  0.44032539849E+03  0.44278571847E+03  0.47000000000E+01 0.  1.
         13    1    6    6    0    0 -0.42760108999E+02  0.39637314897E+02  0.17586247131E+03  0.18527588205E+03  0.00000000000E+00 0. -1.
        -14    1    6    6    0    0 -0.16392502274E+02 -0.36580563846E+02  0.81646279202E+02  0.90955850222E+02  0.00000000000E+00 0.  1.
</event>
<event>
12    1  0.1345781E-002  0.2211744E+03  0.7818608E-02  0.1133011E+00
          2   -1    0    0  502    0  0.00000000000E+00  0.00000000000E+00  0.45505177703E+03  0.45505177703E+03  0.00000000000E+00 0. -1.
         -2   -1    0    0    0  501 -0.00000000000E+00 -0.00000000000E+00 -0.11279754676E+03  0.11279754676E+03  0.00000000000E+00 0.  1.
          6    2    1    2  502    0 -0.10880078487E+03 -0.84168752262E+02  0.23267089281E+03  0.32103271950E+03  0.17321741537E+03 0.  0.
         24    2    3    3    0    0 -0.27624759215E+02  0.83946568116E+01  0.42656002645E+02  0.94570183257E+02  0.79311962622E+02 0.  0.
         -6    2    1    2    0  501  0.10880078487E+03  0.84168752262E+02  0.10958333747E+03  0.24681660429E+03  0.17317025916E+03 0.  0.
        -24    2    5    5    0    0  0.12796088400E+03  0.11244676012E+03  0.86764285242E+02  0.20546984781E+03  0.75309730242E+02 0.  0.
          5    1    3    3  502    0 -0.81176025653E+02 -0.92563409073E+02  0.19001489016E+03  0.22646253625E+03  0.47000000000E+01 0. -1.
        -11    1    4    4    0    0  0.17177241694E+01  0.40714218277E+02  0.20385545680E+02  0.45564993349E+02  0.00000000000E+00 0.  1.
         12    1    4    4    0    0 -0.29342483384E+02 -0.32319561466E+02  0.22270456965E+02  0.49005189908E+02  0.00000000000E+00 0. -1.
         -5    1    5    5    0  501 -0.19160099129E+02 -0.28278007858E+02  0.22819052224E+02  0.41346756480E+02  0.47000000000E+01 0.  1.
         11    1    6    6    0    0  0.88585224330E+02  0.31405722909E+02  0.28665234319E+02  0.98261676454E+02  0.00000000000E+00 0. -1.
        -12    1    6    6    0    0  0.39375659666E+02  0.81041037211E+02  0.58099050923E+02  0.10720817135E+03  0.00000000000E+00 0.  1.
</event>
<event>
12    1  0.1345781E-002  0.2119188E+03  0.7818608E-02  0.1140055E+00
          2   -1    0    0  502    0  0.00000000000E+00  0.00000000000E+00  0.49393058417E+03  0.49393058417E+03  0.00000000000E+00 0.  1.
         -2   -1    0    0    0  501 -0.00000000000E+00 -0.00000000000E+00 -0.90963892057E+02  0.90963892057E+02  0.00000000000E+00 0. -1.
          6    2    1    2  502    0 -0.12073212910E+03  0.12986357111E+02  0.20894375395E+03  0.29982165305E+03  0.17745601949E+03 0.  0.
         24    2    3    3    0    0 -0.12930355210E+03 -0.40029321809E+02  0.11213077449E+03  0.18901111882E+03  0.69499188914E+02 0.  0.
         -6    2    1    2    0  501  0.12073212910E+03 -0.12986357111E+02  0.19402293816E+03  0.28507282318E+03  0.16993152007E+03 0.  0.
        -24    2    5    5    0    0  0.13857196642E+03 -0.42113472109E+02  0.18727501963E+03  0.24994060110E+03  0.80141354437E+02 0.  0.
          5    1    3    3  502    0  0.85714230043E+01  0.53015678920E+02  0.96812979465E+02  0.11081053423E+03  0.47000000000E+01 0. -1.
        -13    1    4    4    0    0 -0.37728308543E+02 -0.21251513546E+02  0.78525971625E+02  0.89673743723E+02  0.00000000000E+00 0.  1.
         14    1    4    4    0    0 -0.91575243558E+02 -0.18777808263E+02  0.33604802865E+02  0.99337375098E+02  0.00000000000E+00 0. -1.
         -5    1    5    5    0  501 -0.17839837319E+02  0.29127114998E+02  0.67479185300E+01  0.35132222078E+02  0.47000000000E+01 0.  1.
         13    1    6    6    0    0  0.11436446273E+03  0.27771022675E+01  0.13395457137E+03  0.17615552737E+03  0.00000000000E+00 0. -1.
        -14    1    6    6    0    0  0.24207503690E+02 -0.44890574377E+02  0.53320448261E+02  0.73785073732E+02  0.00000000000E+00 0.  1.
</event>
<event>
12    1  0.1345781E-002  0.2115118E+03  0.7818608E-02  0.1140374E+00
          2   -1    0    0  502    0  0.00000000000E+00  0.00000000000E+00  0.17695351963E+04  0.17695351963E+04  0.00000000000E+00 0. -1.
         -2   -1    0    0    0  501 -0.00000000000E+00 -0.00000000000E+00 -0.25513321085E+02  0.25513321085E+02  0.00000000000E+00 0.  1.
          6    2    1    2  502    0  0.75515250464E+01 -0.11569494900E+03  0.93444798574E+03  0.95701082072E+03  0.17098048475E+03 0.  0.
         24    2    3    3    0    0 -0.38249970560E+00 -0.17814813698E+02  0.20468903286E+03  0.22065921385E+03  0.80469712247E+02 0.  0.
         -6    2    1    2    0  501 -0.75515250464E+01  0.11569494900E+03  0.80957388949E+03  0.83803769668E+03  0.18290694836E+03 0.  0.
        -24    2    5    5    0    0  0.39044227300E+01  0.13906278012E+03  0.78734960099E+03  0.80349347474E+03  0.79552928528E+02 0.  0.
          5    1    3    3  502    0  0.79340247520E+01 -0.97880135305E+02  0.72975895288E+03  0.73635160687E+03  0.47000000000E+01 0. -1.
        -13    1    4    4    0    0  0.39256398441E+02 -0.10336012762E+02  0.81797677359E+02  0.91316800205E+02  0.00000000000E+00 0.  1.
         14    1    4    4    0    0 -0.39638898147E+02 -0.74788009351E+01  0.12289135550E+03  0.12934241364E+03  0.00000000000E+00 0. -1.
         -5    1    5    5    0  501 -0.11455947776E+02 -0.23367831114E+02  0.22224288506E+02  0.34544221948E+02  0.47000000000E+01 0.  1.
         13    1    6    6    0    0  0.12646426473E+02  0.10462667032E+03  0.71676776159E+03  0.72447408256E+03  0.00000000000E+00 0. -1.
        -14    1    6    6    0    0 -0.87420037434E+01  0.34436109795E+02  0.70581839398E+02  0.79019392178E+02  0.00000000000E+00 0.  1.
</event>
<event>
12    1  0.1345781E-002  0.1995908E+03  0.7818608E-02  0.1150085E+00
         -2   -1    0    0    0  501 -0.00000000000E+00  0.00000000000E+00  0.21128715262E+02  0.21128715262E+02  0.00000000000E+00 0.  1.
          2   -1    0    0  502    0  0.00000000000E+00 -0.00000000000E+00 -0.19090997458E+04  0.19090997458E+04  0.00000000000E+00 0. -1.
          6    2    1    2  502    0  0.98082406568E+02 -0.10503685863E+02 -0.10553527333E+04  0.10742186070E+04  0.17448707103E+03 0.  0.
         24    2    3    3    0    0  0.36616880763E+02  0.66129202615E+02 -0.51200354649E+03  0.52204015821E+03  0.68296616071E+02 0.  0.
         -6    2    1    2    0  501 -0.98082406568E+02  0.10503685863E+02 -0.83261829720E+03  0.85600985406E+03  0.17253740328E+03 0.  0.
        -24    2    5    5    0    0 -0.12067447328E+03  0.41296519471E+02 -0.74846119986E+03  0.76347279602E+03  0.80179869913E+02 0.  0.
          5    1    3    3  502    0  0.61465525806E+02 -0.76632888478E+02 -0.54334918682E+03  0.55217844877E+03  0.47000000000E+01 0. -1.
        -13    1    4    4    0    0 -0.19382464185E+02  0.74676490978E+01 -0.10609885179E+03  0.10811295969E+03  0.00000000000E+00 0.  1.
         14    1    4    4    0    0  0.55999344947E+02  0.58661553517E+02 -0.40590469470E+03  0.41392719852E+03  0.00000000000E+00 0. -1.
         -5    1    5    5    0  501  0.22592066710E+02 -0.30792833608E+02 -0.84157097335E+02  0.92537058046E+02  0.47000000000E+01 0.  1.
         11    1    6    6    0    0 -0.23195329895E+02 -0.23450330507E+02 -0.19570086090E+03  0.19846099941E+03  0.00000000000E+00 0. -1.
        -12    1    6    6    0    0 -0.97479143384E+02  0.64746849978E+02 -0.55276033896E+03  0.56501179661E+03  0.00000000000E+00 0.  1.
</event>
<event>
12    1  0.1345781E-002  0.1995095E+03  0.7818608E-02  0.1150153E+00
         -2   -1    0    0    0  501 -0.00000000000E+00  0.00000000000E+00  0.19334369254E+02  0.19334369254E+02  0.00000000000E+00 0. -1.
          2   -1    0    0  502    0  0.00000000000E+00 -0.00000000000E+00 -0.21515984582E+04  0.21515984582E+04  0.00000000000E+00 0.  1.
          6    2    1    2  502    0 -0.53888460030E+02  0.86155090840E+02 -0.12889054834E+04  0.13041736058E+04  0.17106952748E+03 0.  0.
         24    2    3    3    0    0 -0.42197293449E+01  0.61789756260E+02 -0.11514696724E+04  0.11559462653E+04  0.80582763232E+02 0.  0.
         -6    2    1    2    0  501  0.53888460030E+02 -0.86155090840E+02 -0.84335860554E+03  0.86675922161E+03  0.17231118622E+03 0.  0.
        -24    2    5    5    0    0 -0.28961308540E+02 -0.76650680335E+02 -0.40702014491E+03  0.42249830706E+03  0.78264531652E+02 0.  0.
          5    1    3    3  502    0 -0.49668730685E+02  0.24365334580E+02 -0.13743581104E+03  0.14822734057E+03  0.47000000000E+01 0. -1.
        -11    1    4    4    0    0 -0.13621617420E+02  0.12986061684E+02 -0.86447465225E+03  0.86467948434E+03  0.00000000000E+00 0.  1.
         12    1    4    4    0    0  0.94018880755E+01  0.48803694576E+02 -0.28699502011E+03  0.29126678093E+03  0.00000000000E+00 0. -1.
         -5    1    5    5    0  501  0.82849768570E+02 -0.95044105045E+01 -0.43633846063E+03  0.44426091455E+03  0.47000000000E+01 0.  1.
         13    1    6    6    0    0 -0.42771292340E+01 -0.81813569382E+02 -0.24029731721E+03  0.25387901573E+03  0.00000000000E+00 0. -1.
        -14    1    6    6    0    0 -0.24684179306E+02  0.51628890465E+01 -0.16672282770E+03  0.16861929132E+03  0.00000000000E+00 0.  1.
</event>
<event>
12    1  0.1345781E-002  0.2012546E+03  0.7818608E-02  0.1148685E+00
         -2   -1    0    0    0  501 -0.00000000000E+00  0.00000000000E+00  0.31138110362E+02  0.31138110362E+02  0.00000000000E+00 0.  1.
          2   -1    0    0  502    0  0.00000000000E+00 -0.00000000000E+00 -0.13832703943E+04  0.13832703943E+04  0.00000000000E+00 0. -1.
          6    2    1    2  502    0  0.12368817046E+02 -0.10093931387E+03 -0.50719848666E+03  0.54611366652E+03  0.17506598519E+03 0.  0.
         24    2    3    3    0    0 -0.17712689784E-01 -0.26129023899E+02 -0.42885236148E+03  0.43697975366E+03  0.79713430266E+02 0.  0.
         -6    2    1    2    0  501 -0.12368817046E+02  0.10093931387E+03 -0.84493379725E+03  0.86829483811E+03  0.17228195333E+03 0.  0.
        -24    2    5    5    0    0  0.26912154724E+02 -0.58400751974E+01 -0.39862142591E+03  0.40768474760E+03  0.80928620906E+02 0.  0.
          5    1    3    3  502    0  0.12386529736E+02 -0.74810289966E+02 -0.78346125184E+02  0.10913391286E+03  0.47000000000E+01 0. -1.
        -13    1    4    4    0    0  0.21557777452E+01 -0.11730714160E+02 -0.50909324923E+01  0.12968215992E+02  0.00000000000E+00 0.  1.
         14    1    4    4    0    0 -0.21734904350E+01 -0.14398309739E+02 -0.42376142898E+03  0.42401153767E+03  0.00000000000E+00 0. -1.
         -5    1    5    5    0  501 -0.39280971770E+02  0.10677938906E+03 -0.44631237134E+03  0.46061009051E+03  0.47000000000E+01 0.  1.
         11    1    6    6    0    0  0.54244116999E+02  0.17421929849E+01 -0.20796538517E+03  0.21493036289E+03  0.00000000000E+00 0. -1.
        -12    1    6    6    0    0 -0.27331962275E+02 -0.75822681823E+01 -0.19065604074E+03  0.19275438471E+03  0.00000000000E+00 0.  1.
</event>
<event>
12    1  0.1345781E-002  0.4177495E+03  0.7818608E-02  0.1037801E+00
         -1   -1    0    0    0  501 -0.00000000000E+00  0.00000000000E+00  0.11148248247E+03  0.11148248247E+03  0.00000000000E+00 0.  1.
          1   -1    0    0  502    0  0.00000000000E+00 -0.00000000000E+00 -0.16288586016E+04  0.16288586016E+04  0.00000000000E+00 0. -1.
          6    2    1    2  502    0 -0.34271171549E+03  0.15859365745E+03 -0.92569300548E+03  0.10144977751E+04  0.17232216087E+03 0.  0.
         24    2    3    3    0    0 -0.75655836490E+02  0.48191383088E+02 -0.36091812833E+03  0.38006869586E+03  0.78384330194E+02 0.  0.
         -6    2    1    2    0  501  0.34271171549E+03 -0.15859365745E+03 -0.59168311368E+03  0.72584330902E+03  0.18481432334E+03 0.  0.
        -24    2    5    5    0    0  0.12458462640E+03 -0.13244398042E+03 -0.24510116246E+03  0.31547229211E+03  0.79909011797E+02 0.  0.
          5    1    3    3  502    0 -0.26705587900E+03  0.11040227436E+03 -0.56477487715E+03  0.63442907922E+03  0.47000000000E+01 0. -1.
        -13    1    4    4    0    0 -0.14329486202E+02  0.26912882846E+02 -0.24763877917E+03  0.24950872207E+03  0.00000000000E+00 0.  1.
         14    1    4    4    0    0 -0.61326350287E+02  0.21278500242E+02 -0.11327934915E+03  0.13055997379E+03  0.00000000000E+00 0. -1.
         -5    1    5    5    0  501  0.21812708909E+03 -0.26149677029E+02 -0.34658195122E+03  0.41037101690E+03  0.47000000000E+01 0.  1.
         11    1    6    6    0    0  0.16571109376E+02  0.36087393863E+01 -0.56808716482E+02  0.59286212008E+02  0.00000000000E+00 0. -1.
        -12    1    6    6    0    0  0.10801351703E+03 -0.13605271981E+03 -0.18829244598E+03  0.25618608011E+03  0.00000000000E+00 0.  1.
</event>
<event>
12    1  0.1345781E-002  0.1957022E+03  0.7818608E-02  0.1153417E+00
         -2   -1    0    0    0  501 -0.00000000000E+00  0.00000000000E+00  0.68908895679E+03  0.68908895679E+03  0.00000000000E+00 0.  1.
          2   -1    0    0  502    0  0.00000000000E+00 -0.00000000000E+00 -0.64426487946E+02  0.64426487946E+02  0.00000000000E+00 0. -1.
          6    2    1    2  502    0 -0.38944640454E+02 -0.84289789664E+02  0.17366160941E+03  0.26215426803E+03  0.17304638685E+03 0.  0.
         24    2    3    3    0    0 -0.29317951743E+02 -0.36549761450E+02  0.18946204322E+03  0.21073902575E+03  0.79496187324E+02 0.  0.
         -6    2    1    2    0  501  0.38944640454E+02  0.84289789664E+02  0.45100085944E+03  0.49136117671E+03  0.17150095364E+03 0.  0.
        -24    2    5    5    0    0 -0.87862944681E+01 -0.17800486252E+02  0.14916993990E+03  0.16914283370E+03  0.77224160335E+02 0.  0.
          5    1    3    3  502    0 -0.96266887112E+01 -0.47740028215E+02 -0.15800433811E+02  0.51415242274E+02  0.47000000000E+01 0. -1.
        -11    1    4    4    0    0 -0.40489485057E+02  0.12158181674E+02  0.84201232368E+02  0.94218189932E+02  0.00000000000E+00 0.  1.
         12    1    4    4    0    0  0.11171533314E+02 -0.48707943123E+02  0.10526081085E+03  0.11652083582E+03  0.00000000000E+00 0. -1.
         -5    1    5    5    0  501  0.47730934922E+02  0.10209027592E+03  0.30183091954E+03  0.32221834301E+03  0.47000000000E+01 0.  1.
         13    1    6    6    0    0 -0.26870347553E+02 -0.22019999684E+02  0.23115572158E+02  0.41727995877E+02  0.00000000000E+00 0. -1.
        -14    1    6    6    0    0  0.18084053085E+02  0.42195134315E+01  0.12605436774E+03  0.12741483782E+03  0.00000000000E+00 0.  1.
</event>
<event>
12    1  0.1345781E-002  0.1812292E+03  0.7818608E-02  0.1166619E+00
          1   -1    0    0  502    0  0.00000000000E+00  0.00000000000E+00  0.15973298816E+04  0.15973298816E+04  0.00000000000E+00 0. -1.
         -1   -1    0    0    0  501 -0.00000000000E+00 -0.00000000000E+00 -0.38360820047E+02  0.38360820047E+02  0.00000000000E+00 0.  1.
          6    2    1    2  502    0  0.49117344023E+02  0.30256124266E+02  0.22219655050E+03  0.28667773346E+03  0.17171158745E+03 0.  0.
         24    2    3    3    0    0 -0.14356193547E+02  0.25165434074E+02  0.20222935070E+03  0.21977792654E+03  0.81032261114E+02 0.  0.
         -6    2    1    2    0  501 -0.49117344023E+02 -0.30256124266E+02  0.13367725110E+04  0.13490129682E+04  0.17189326775E+03 0.  0.
        -24    2    5    5    0    0  0.34016876343E+02 -0.14709340122E+02  0.48249259748E+03  0.49054382965E+03  0.80378041907E+02 0.  0.
          5    1    3    3  502    0  0.63473537570E+02  0.50906901913E+01  0.19967199797E+02  0.66899806921E+02  0.47000000000E+01 0. -1.
        -11    1    4    4    0    0  0.19619236566E+02  0.41206400280E+02  0.82378422071E+02  0.94175826464E+02  0.00000000000E+00 0.  1.
         12    1    4    4    0    0 -0.33975430113E+02 -0.16040966205E+02  0.11985092863E+03  0.12560210007E+03  0.00000000000E+00 0. -1.
         -5    1    5    5    0  501 -0.83134220366E+02 -0.15546784144E+02  0.85427991355E+03  0.85846913851E+03  0.47000000000E+01 0.  1.
         13    1    6    6    0    0  0.19585547218E+01  0.16645272568E+02  0.20955618092E+02  0.26833541792E+02  0.00000000000E+00 0. -1.
        -14    1    6    6    0    0  0.32058321621E+02 -0.31354612690E+02  0.46153697938E+03  0.46371028785E+03  0.00000000000E+00 0.  1.
</event>
<event>
12    1  0.1345781E-002  0.2108152E+03  0.7818608E-02  0.1140922E+00
          1   -1    0    0  502    0  0.00000000000E+00  0.00000000000E+00  0.52861505609E+02  0.52861505609E+02  0.00000000000E+00 0. -1.
         -1   -1    0    0    0  501 -0.00000000000E+00 -0.00000000000E+00 -0.86146465574E+03  0.86146465574E+03  0.00000000000E+00 0.  1.
          6    2    1    2  502    0  0.72770302302E+02 -0.98641424390E+02 -0.47380956852E+03  0.51829532847E+03  0.17061328434E+03 0.  0.
         24    2    3    3    0    0  0.62261448057E+02 -0.10046059094E+01 -0.16020483055E+03  0.18964139800E+03  0.80129738268E+02 0.  0.
         -6    2    1    2    0  501 -0.72770302302E+02  0.98641424390E+02 -0.33479358161E+03  0.39603083288E+03  0.17241818581E+03 0.  0.
        -24    2    5    5    0    0  0.66642077625E+01  0.90400320535E+02 -0.13312602033E+03  0.17907541705E+03  0.78286896004E+02 0.  0.
          5    1    3    3  502    0  0.10508854244E+02 -0.97636818481E+02 -0.31360473796E+03  0.32865393047E+03  0.47000000000E+01 0. -1.
        -11    1    4    4    0    0  0.62268249248E+02  0.21813505313E+02 -0.15145670419E+03  0.16520380481E+03  0.00000000000E+00 0.  1.
         12    1    4    4    0    0 -0.68011901447E-02 -0.22818111223E+02 -0.87481263595E+01  0.24437593188E+02  0.00000000000E+00 0. -1.
         -5    1    5    5    0  501 -0.79434510064E+02  0.82411038553E+01 -0.20166756128E+03  0.21695541583E+03  0.47000000000E+01 0.  1.
         13    1    6    6    0    0  0.19820526653E+02  0.11277192916E+02  0.96634005956E+00  0.22824595725E+02  0.00000000000E+00 0. -1.
        -14    1    6    6    0    0 -0.13156318891E+02  0.79123127619E+02 -0.13409236039E+03  0.15625082133E+03  0.00000000000E+00 0.  1.
</event>
<event>
12    1  0.1345781E-002  0.2438278E+03  0.7818608E-02  0.1117269E+00
         -2   -1    0    0    0  501 -0.00000000000E+00  0.00000000000E+00  0.54304363270E+03  0.54304363270E+03  0.00000000000E+00 0.  1.
          2   -1    0    0  502    0  0.00000000000E+00 -0.00000000000E+00 -0.13098104486E+03  0.13098104486E+03  0.00000000000E+00 0. -1.
          6    2    1    2  502    0  0.13331120045E+03 -0.10992043450E+03  0.70239746693E+02  0.25476177383E+03  0.17353835686E+03 0.  0.
         24    2    3    3    0    0  0.21837629789E+02 -0.83348940623E+02  0.77312621139E+02  0.13985086575E+03  0.78467160555E+02 0.  0.
         -6    2    1    2    0  501 -0.13331120045E+03  0.10992043450E+03  0.34182284115E+03  0.41926290373E+03  0.17054075650E+03 0.  0.
        -24    2    5    5    0    0 -0.50305605805E+02  0.12174945796E+03  0.17811601053E+03  0.23527412437E+03  0.79214997972E+02 0.  0.
          5    1    3    3  502    0  0.11147357066E+03 -0.26571493877E+02 -0.70728744462E+01  0.11491090808E+03  0.47000000000E+01 0. -1.
        -13    1    4    4    0    0 -0.10963029708E+02  0.33885140001E+00 -0.97778468959E+01  0.14693846690E+02  0.00000000000E+00 0.  1.
         14    1    4    4    0    0  0.32800659496E+02 -0.83687792023E+02  0.87090468035E+02  0.12515701906E+03  0.00000000000E+00 0. -1.
         -5    1    5    5    0  501 -0.83005594642E+02 -0.11829023456E+02  0.16370683062E+03  0.18398877936E+03  0.47000000000E+01 0.  1.
         11    1    6    6    0    0 -0.68890786797E+01  0.84012471743E+02  0.58682422530E+02  0.10270920858E+03  0.00000000000E+00 0. -1.
        -12    1    6    6    0    0 -0.43416527125E+02  0.37736986214E+02  0.11943358800E+03  0.13256491579E+03  0.00000000000E+00 0.  1.
</event>
<event>
12    1  0.1345781E-002  0.1738924E+03  0.7818608E-02  0.1173848E+00
          1   -1    0    0  502    0  0.00000000000E+00  0.00000000000E+00  0.43134344728E+02  0.43134344728E+02  0.00000000000E+00 0. -1.
         -1   -1    0    0    0  501 -0.00000000000E+00 -0.00000000000E+00 -0.17976307048E+04  0.17976307048E+04  0.00000000000E+00 0.  1.
          6    2    1    2  502    0  0.15011974485E+02  0.16091323643E+02 -0.15942791997E+04  0.16036351236E+04  0.17156675932E+03 0.  0.
         24    2    3    3    0    0  0.29025233533E+02  0.14230784557E+02 -0.38160288228E+03  0.39086730827E+03  0.78176169600E+02 0.  0.
         -6    2    1    2    0  501 -0.15011974485E+02 -0.16091323643E+02 -0.16021716036E+03  0.23712992594E+03  0.17342656436E+03 0.  0.
        -24    2    5    5    0    0  0.18493591707E+02 -0.32108358944E+02 -0.18134419814E+02  0.90198773535E+02  0.80212230469E+02 0.  0.
          5    1    3    3  502    0 -0.14013259048E+02  0.18605390861E+01 -0.12126763174E+04  0.12127678153E+04  0.47000000000E+01 0. -1.
        -11    1    4    4    0    0  0.31258187481E+02  0.37106303843E+02 -0.33905051247E+03  0.34250430957E+03  0.00000000000E+00 0.  1.
         12    1    4    4    0    0 -0.22329539475E+01 -0.22875519286E+02 -0.42552369818E+02  0.48362998698E+02  0.00000000000E+00 0. -1.
         -5    1    5    5    0  501 -0.33505566192E+02  0.16017035301E+02 -0.14208274054E+03  0.14693115240E+03  0.47000000000E+01 0.  1.
         13    1    6    6    0    0  0.83495062268E+00  0.26168573375E+02  0.14812431565E+01  0.26223757479E+02  0.00000000000E+00 0. -1.
        -14    1    6    6    0    0  0.17658641084E+02 -0.58276932319E+02 -0.19615662971E+02  0.63975016055E+02  0.00000000000E+00 0.  1.
</event>
<event>
12    1  0.1345781E-002  0.1801026E+03  0.7818608E-02  0.1167704E+00
          1   -1    0    0  502    0  0.00000000000E+00  0.00000000000E+00  0.97496752228E+02  0.97496752228E+02  0.00000000000E+00 0.  1.
         -1   -1    0    0    0  501 -0.00000000000E+00 -0.00000000000E+00 -0.35864779272E+03  0.35864779272E+03  0.00000000000E+00 0. -1.
          6    2    1    2  502    0  0.22549318843E+01  0.55200624463E+02 -0.19144887949E+03  0.26237211071E+03  0.17068760167E+03 0.  0.
         24    2    3    3    0    0 -0.38014643602E+02  0.82225899651E+02 -0.17159334902E+03  0.20975712902E+03  0.79671601237E+02 0.  0.
         -6    2    1    2    0  501 -0.22549318843E+01 -0.55200624463E+02 -0.69702161001E+02  0.19377243423E+03  0.17215449852E+03 0.  0.
        -24    2    5    5    0    0  0.94061598534E+01  0.19375530403E+02  0.10482124309E+02  0.83549054018E+02  0.80041754576E+02 0.  0.
          5    1    3    3  502    0  0.40269575486E+02 -0.27025275188E+02 -0.19855530469E+02  0.52614981698E+02  0.47000000000E+01 0. -1.
        -13    1    4    4    0    0 -0.45501837528E+02  0.15611408212E+02 -0.10386631199E+03  0.11446547100E+03  0.00000000000E+00 0.  1.
         14    1    4    4    0    0  0.74871939258E+01  0.66614491439E+02 -0.67727037027E+02  0.95291658014E+02  0.00000000000E+00 0. -1.
         -5    1    5    5    0  501 -0.11661091738E+02 -0.74576154866E+02 -0.80184285310E+02  0.11022338021E+03  0.47000000000E+01 0.  1.
         11    1    6    6    0    0 -0.33692327455E+02  0.11920252432E+02 -0.70499644799E+01  0.36427563006E+02  0.00000000000E+00 0. -1.
        -12    1    6    6    0    0  0.43098487308E+02  0.74552779710E+01  0.17532088789E+02  0.47121491012E+02  0.00000000000E+00 0.  1.
</event>
<event>
12    1  0.1345781E-002  0.2035146E+03  0.7818608E-02  0.1146807E+00
         -1   -1    0    0    0  501 -0.00000000000E+00  0.00000000000E+00  0.44700140290E+02  0.44700140290E+02  0.00000000000E+00 0.  1.
          1   -1    0    0  502    0  0.00000000000E+00 -0.00000000000E+00 -0.94540793093E+03  0.94540793093E+03  0.00000000000E+00 0. -1.
          6    2    1    2  502    0 -0.45406718177E+02  0.96913824851E+02 -0.38200498375E+03  0.43316025064E+03  0.17391358667E+03 0.  0.
         24    2    3    3    0    0  0.33525184282E+02  0.16631241376E+02 -0.20863813297E+03  0.22639058802E+03  0.79512839478E+02 0.  0.
         -6    2    1    2    0  501  0.45406718177E+02 -0.96913824851E+02 -0.51870280689E+03  0.55694782058E+03  0.17229107192E+03 0.  0.
        -24    2    5    5    0    0  0.90971331082E+02 -0.10301110471E+03 -0.40755094406E+03  0.43657283404E+03  0.74906586164E+02 0.  0.
          5    1    3    3  502    0 -0.78931902460E+02  0.80282583475E+02 -0.17336685077E+03  0.20676966263E+03  0.47000000000E+01 0. -1.
        -11    1    4    4    0    0 -0.11405002916E+02  0.67193399951E+01 -0.52028249688E+00  0.13247426745E+02  0.00000000000E+00 0.  1.
         12    1    4    4    0    0  0.44930187198E+02  0.99119013808E+01 -0.20811785048E+03  0.21314316127E+03  0.00000000000E+00 0. -1.
         -5    1    5    5    0  501 -0.45564612904E+02  0.60972798602E+01 -0.11115186284E+03  0.12037498653E+03  0.47000000000E+01 0.  1.
         13    1    6    6    0    0  0.13313211453E+01  0.89704407376E+01 -0.81408315109E+01  0.12186646820E+02  0.00000000000E+00 0. -1.
        -14    1    6    6    0    0  0.89640009936E+02 -0.11198154545E+03 -0.39941011255E+03  0.42438618722E+03  0.00000000000E+00 0.  1.
</event>
<event>
12    1  0.1345781E-002  0.2031011E+03  0.7818608E-02  0.1147149E+00
          2   -1    0    0  502    0  0.00000000000E+00  0.00000000000E+00  0.80545619685E+03  0.80545619685E+03  0.00000000000E+00 0. -1.
         -2   -1    0    0    0  501 -0.00000000000E+00 -0.00000000000E+00 -0.10422862479E+03  0.10422862479E+03  0.00000000000E+00 0.  1.
          6    2    1    2  502    0 -0.10926099130E+03  0.76111753236E+01  0.26948362897E+02  0.20572557739E+03  0.17204913461E+03 0.  0.
         24    2    3    3    0    0 -0.11474198154E+03 -0.39166038842E+02 -0.12597688684E+02  0.14404795410E+03  0.76755523542E+02 0.  0.
         -6    2    1    2    0  501  0.10926099130E+03 -0.76111753236E+01  0.67427920916E+03  0.70395924426E+03  0.17003020748E+03 0.  0.
        -24    2    5    5    0    0  0.70062840460E+02  0.92318159358E+01  0.64228217963E+03  0.65042344985E+03  0.74365568711E+02 0.  0.
          5    1    3    3  502    0  0.54809902380E+01  0.46777214166E+02  0.39546051581E+02  0.61677623290E+02  0.47000000000E+01 0. -1.
        -13    1    4    4    0    0 -0.70719444691E+02 -0.49447542433E+02 -0.35573878694E+02  0.93337024569E+02  0.00000000000E+00 0.  1.
         14    1    4    4    0    0 -0.44022536844E+02  0.10281503590E+02  0.22976190010E+02  0.50710929529E+02  0.00000000000E+00 0. -1.
         -5    1    5    5    0  501  0.39198150837E+02 -0.16842991259E+02  0.31997029538E+02  0.53535794408E+02  0.47000000000E+01 0.  1.
         13    1    6    6    0    0  0.70376676033E+02 -0.32526174249E+01  0.62575531217E+03  0.62970879521E+03  0.00000000000E+00 0. -1.
        -14    1    6    6    0    0 -0.31383557251E+00  0.12484433361E+02  0.16526867454E+02  0.20714654642E+02  0.00000000000E+00 0.  1.
</event>
<event>
12    1  0.1345781E-002  0.2016702E+03  0.7818608E-02  0.1148337E+00
         -2   -1    0    0    0  501 -0.00000000000E+00  0.00000000000E+00  0.85672912975E+02  0.85672912975E+02  0.00000000000E+00 0. -1.
          2   -1    0    0  502    0  0.00000000000E+00 -0.00000000000E+00 -0.48753445218E+03  0.48753445218E+03  0.00000000000E+00 0.  1.
          6    2    1    2  502    0 -0.94092922882E+02 -0.47311169496E+02 -0.15454960551E+03  0.25414443623E+03  0.17208134417E+03 0.  0.
         24    2    3    3    0    0 -0.73270924546E+02 -0.33034562286E+02 -0.17080953111E+02  0.11429774331E+03  0.79450012451E+02 0.  0.
         -6    2    1    2    0  501  0.94092922882E+02  0.47311169496E+02 -0.24731193370E+03  0.31906292892E+03  0.17188989257E+03 0.  0.
        -24    2    5    5    0    0  0.17815714402E+02  0.82966110856E+02 -0.12695692369E+03  0.17210407138E+03  0.79378685312E+02 0.  0.
          5    1    3    3  502    0 -0.20821998336E+02 -0.14276607210E+02 -0.13746865240E+03  0.13984669292E+03  0.47000000000E+01 0. -1.
        -11    1    4    4    0    0 -0.12530042787E+02 -0.48362012077E+02 -0.12420824364E+02  0.51479734481E+02  0.00000000000E+00 0.  1.
         12    1    4    4    0    0 -0.60740881759E+02  0.15327449790E+02 -0.46601287469E+01  0.62818008834E+02  0.00000000000E+00 0. -1.
         -5    1    5    5    0  501  0.76277208480E+02 -0.35654941360E+02 -0.12035501000E+03  0.14695885754E+03  0.47000000000E+01 0.  1.
         11    1    6    6    0    0 -0.10392473979E+02 -0.67603269340E+01 -0.47148410413E+02  0.48751186038E+02  0.00000000000E+00 0. -1.
        -12    1    6    6    0    0  0.28208188381E+02  0.89726437790E+02 -0.79808513280E+02  0.12335288534E+03  0.00000000000E+00 0.  1.
</event>
<event>
12    1  0.1345781E-002  0.1855358E+03  0.7818608E-02  0.1162550E+00
         -4   -1    0    0    0  501 -0.00000000000E+00  0.00000000000E+00  0.16110860818E+03  0.16110860818E+03  0.00000000000E+00 0.  1.
          4   -1    0    0  502    0  0.00000000000E+00 -0.00000000000E+00 -0.21408888793E+03  0.21408888793E+03  0.00000000000E+00 0. -1.
          6    2    1    2  502    0  0.35980771811E+02 -0.51684613027E+02 -0.18280656804E+02  0.18356487136E+03  0.17145251360E+03 0.  0.
         24    2    3    3    0    0  0.54898954794E+02  0.14987311289E+02  0.26799818891E+02  0.10075555770E+03  0.78707924492E+02 0.  0.
         -6    2    1    2    0  501 -0.35980771811E+02  0.51684613027E+02 -0.34699622946E+02  0.19163262476E+03  0.17763187742E+03 0.  0.
        -24    2    5    5    0    0  0.25927304367E+02 -0.15153933881E+02 -0.48074359036E+02  0.99431893668E+02  0.81692659755E+02 0.  0.
          5    1    3    3  502    0 -0.18918182984E+02 -0.66671924316E+02 -0.45080475694E+02  0.82809313656E+02  0.47000000000E+01 0. -1.
        -13    1    4    4    0    0  0.47108656574E+01 -0.27467255529E+02  0.20743678641E+02  0.34741079216E+02  0.00000000000E+00 0.  1.
         14    1    4    4    0    0  0.50188089137E+02  0.42454566818E+02  0.60561402500E+01  0.66014478485E+02  0.00000000000E+00 0. -1.
         -5    1    5    5    0  501 -0.61908076177E+02  0.66838546907E+02  0.13374736091E+02  0.92200731093E+02  0.47000000000E+01 0.  1.
         13    1    6    6    0    0  0.12891909377E+02 -0.80740226504E+01 -0.70732578429E+02  0.72349767244E+02  0.00000000000E+00 0. -1.
        -14    1    6    6    0    0  0.13035394990E+02 -0.70799112302E+01  0.22658219393E+02  0.27082126423E+02  0.00000000000E+00 0.  1.
</event>
<event>
12    1  0.1345781E-002  0.1910901E+03  0.7818608E-02  0.1157482E+00
         -2   -1    0    0    0  501 -0.00000000000E+00  0.00000000000E+00  0.31712663021E+03  0.31712663021E+03  0.00000000000E+00 0.  1.
          2   -1    0    0  502    0  0.00000000000E+00 -0.00000000000E+00 -0.12881410335E+03  0.12881410335E+03  0.00000000000E+00 0. -1.
          6    2    1    2  502    0  0.65947731376E+01 -0.81150092546E+02  0.21959158005E+02  0.19331611636E+03  0.17395426891E+03 0.  0.
         24    2    3    3    0    0  0.17291018844E+02 -0.96189764924E+02  0.68193221435E+02  0.14331331605E+03  0.79604904992E+02 0.  0.
         -6    2    1    2    0  501 -0.65947731376E+01  0.81150092546E+02  0.16635336886E+03  0.25262461720E+03  0.17180490485E+03 0.  0.
        -24    2    5    5    0    0 -0.94467409443E+00  0.92818868246E+02  0.45017822015E+02  0.13050791533E+03  0.79934203908E+02 0.  0.
          5    1    3    3  502    0 -0.10696245707E+02  0.15039672378E+02 -0.46234063430E+02  0.50002800309E+02  0.47000000000E+01 0. -1.
        -13    1    4    4    0    0  0.39267543196E+02 -0.17120503133E+02  0.32739825586E+02  0.53916117772E+02  0.00000000000E+00 0.  1.
         14    1    4    4    0    0 -0.21976524351E+02 -0.79069261792E+02  0.35453395849E+02  0.89397198279E+02  0.00000000000E+00 0. -1.
         -5    1    5    5    0  501 -0.56500990432E+01 -0.11668775700E+02  0.12133554685E+03  0.12211670186E+03  0.47000000000E+01 0.  1.
         13    1    6    6    0    0 -0.34345397239E+01  0.10752532543E+03  0.39298090653E+02  0.11453310264E+03  0.00000000000E+00 0. -1.
        -14    1    6    6    0    0  0.24898656295E+01 -0.14706457183E+02  0.57197313620E+01  0.15974812693E+02  0.00000000000E+00 0.  1.
</event>
<event>
12    1  0.1345781E-002  0.2101017E+03  0.7818608E-02  0.1141485E+00
         -2   -1    0    0    0  501 -0.00000000000E+00  0.00000000000E+00  0.35970588081E+03  0.35970588081E+03  0.00000000000E+00 0.  1.
          2   -1    0    0  502    0  0.00000000000E+00 -0.00000000000E+00 -0.12522853292E+03  0.12522853292E+03  0.00000000000E+00 0. -1.
          6    2    1    2  502    0 -0.90559311022E+02  0.91524080141E+02  0.85589010768E+02  0.23084547810E+03  0.17142493966E+03 0.  0.
         24    2    3    3    0    0  0.84997267604E+01  0.50456266995E+01  0.57437703973E+02  0.96287676583E+02  0.76645437701E+02 0.  0.
         -6    2    1    2    0  501  0.90559311022E+02 -0.91524080141E+02  0.14888833711E+03  0.25408893562E+03  0.16067297290E+03 0.  0.
        -24    2    5    5    0    0  0.10053740408E+03 -0.25352796241E+02  0.62995880993E+02  0.14510359178E+03  0.79599230079E+02 0.  0.
          5    1    3    3  502    0 -0.99059037782E+02  0.86478453441E+02  0.28151306795E+02  0.13455780152E+03  0.47000000000E+01 0. -1.
        -11    1    4    4    0    0 -0.28030815768E+02  0.22715653008E+02  0.33140861324E+02  0.48990246105E+02  0.00000000000E+00 0.  1.
         12    1    4    4    0    0  0.36530542528E+02 -0.17670026308E+02  0.24296842649E+02  0.47297430478E+02  0.00000000000E+00 0. -1.
         -5    1    5    5    0  501 -0.99780930601E+01 -0.66171283900E+02  0.85892456121E+02  0.10898534384E+03  0.47000000000E+01 0.  1.
         13    1    6    6    0    0  0.12256415072E+02 -0.38505101931E+02  0.11303365112E+02  0.41959845662E+02  0.00000000000E+00 0. -1.
        -14    1    6    6    0    0  0.88280989010E+02  0.13152305690E+02  0.51692515881E+02  0.10314374612E+03  0.00000000000E+00 0.  1.
</event>
<event>
12    1  0.1345781E-002  0.1904246E+03  0.7818608E-02  0.1158079E+00
          2   -1    0    0  502    0  0.00000000000E+00  0.00000000000E+00  0.12702052722E+04  0.12702052722E+04  0.00000000000E+00 0.  1.
         -2   -1    0    0    0  501 -0.00000000000E+00 -0.00000000000E+00 -0.31014685751E+02  0.31014685751E+02  0.00000000000E+00 0. -1.
          6    2    1    2  502    0  0.67816009917E+02 -0.48890738514E+02  0.80480286720E+03  0.82715748057E+03  0.17173388454E+03 0.  0.
         24    2    3    3    0    0  0.10742285157E+03 -0.23507115230E+02  0.68699578201E+03  0.70021800855E+03  0.79055686021E+02 0.  0.
         -6    2    1    2    0  501 -0.67816009917E+02  0.48890738514E+02  0.43438771922E+03  0.47406247734E+03  0.17045006983E+03 0.  0.
        -24    2    5    5    0    0  0.40764829844E+00  0.57908148694E+02  0.34392425908E+03  0.36030172468E+03  0.90442893376E+02 0.  0.
          5    1    3    3  502    0 -0.39606841650E+02 -0.25383623285E+02  0.11780708518E+03  0.12693947201E+03  0.47000000000E+01 0. -1.
        -11    1    4    4    0    0  0.17881583498E+02 -0.40205190608E+02  0.20095240374E+03  0.20571357989E+03  0.00000000000E+00 0.  1.
         12    1    4    4    0    0  0.89541268069E+02  0.16698075378E+02  0.48604337827E+03  0.49450442867E+03  0.00000000000E+00 0. -1.
         -5    1    5    5    0  501 -0.68223658216E+02 -0.90174101800E+01  0.90463460137E+02  0.11376075266E+03  0.47000000000E+01 0.  1.
         11    1    6    6    0    0 -0.42010122338E+01  0.63484221243E+02  0.11632338598E+03  0.13258591546E+03  0.00000000000E+00 0. -1.
        -12    1    6    6    0    0  0.46086605322E+01 -0.55760725486E+01  0.22760087309E+03  0.22771580922E+03  0.00000000000E+00 0.  1.
</event>
<event>
12    1  0.1345781E-002  0.1848017E+03  0.7818608E-02  0.1163235E+00
         -4   -1    0    0    0  501 -0.00000000000E+00  0.00000000000E+00  0.12729002839E+04  0.12729002839E+04  0.00000000000E+00 0.  1.
          4   -1    0    0  502    0  0.00000000000E+00 -0.00000000000E+00 -0.26829890396E+02  0.26829890396E+02  0.00000000000E+00 0. -1.
          6    2    1    2  502    0  0.22786205956E+02  0.63738603533E+02  0.62241691254E+03  0.64931456502E+03  0.17211847831E+03 0.  0.
         24    2    3    3    0    0  0.14398557495E+02  0.79653790739E+02  0.62019523144E+03  0.63058833482E+03  0.80296189700E+02 0.  0.
         -6    2    1    2    0  501 -0.22786205956E+02 -0.63738603533E+02  0.62365348093E+03  0.65041560923E+03  0.17179924243E+03 0.  0.
        -24    2    5    5    0    0 -0.33387395025E+02 -0.66805179373E+02  0.18880870768E+03  0.21540543014E+03  0.71924412403E+02 0.  0.
          5    1    3    3  502    0  0.83876484608E+01 -0.15915187206E+02  0.22216810994E+01  0.18726230198E+02  0.47000000000E+01 0. -1.
        -13    1    4    4    0    0  0.61932659736E+01  0.67347726303E+02  0.22094947531E+03  0.23106869849E+03  0.00000000000E+00 0.  1.
         14    1    4    4    0    0  0.82052915217E+01  0.12306064437E+02  0.39924575613E+03  0.39951963634E+03  0.00000000000E+00 0. -1.
         -5    1    5    5    0  501  0.10601189069E+02  0.30665758404E+01  0.43484477325E+03  0.43501017910E+03  0.47000000000E+01 0.  1.
         11    1    6    6    0    0 -0.45538241119E+02 -0.52562278230E+02  0.18305349107E+03  0.19581906212E+03  0.00000000000E+00 0. -1.
        -12    1    6    6    0    0  0.12150846094E+02 -0.14242901144E+02  0.57552166066E+01  0.19586368014E+02  0.00000000000E+00 0.  1.
</event>
<event>
12    1  0.1345781E-002  0.2528976E+03  0.7818608E-02  0.1111487E+00
         -2   -1    0    0    0  501 -0.00000000000E+00  0.00000000000E+00  0.48528903344E+02  0.48528903344E+02  0.00000000000E+00 0. -1.
          2   -1    0    0  502    0  0.00000000000E+00 -0.00000000000E+00 -0.13867778984E+04  0.13867778984E+04  0.00000000000E+00 0.  1.
          6    2    1    2  502    0 -0.33085010010E+02  0.18193027634E+03 -0.50966842147E+03  0.56904422986E+03  0.17278944515E+03 0.  0.
         24    2    3    3    0    0 -0.74713677153E+02  0.84128231280E+02 -0.23456770500E+03  0.27408545283E+03  0.86262010003E+02 0.  0.
         -6    2    1    2    0  501  0.33085010010E+02 -0.18193027634E+03 -0.82858057362E+03  0.86626257192E+03  0.17225513980E+03 0.  0.
        -24    2    5    5    0    0  0.12427939945E+02 -0.15614190478E+03 -0.80685124071E+03  0.82643784894E+03  0.86347237416E+02 0.  0.
          5    1    3    3  502    0  0.41628667143E+02  0.97802045063E+02 -0.27510071647E+03  0.29495877703E+03  0.47000000000E+01 0. -1.
        -13    1    4    4    0    0 -0.10359473594E+02  0.28800908981E+01 -0.11643037101E+03  0.11692580942E+03  0.00000000000E+00 0.  1.
         14    1    4    4    0    0 -0.64354203559E+02  0.81248140382E+02 -0.11813733400E+03  0.15715964340E+03  0.00000000000E+00 0. -1.
         -5    1    5    5    0  501  0.20657070065E+02 -0.25788371564E+02 -0.21729332915E+02  0.39824722982E+02  0.47000000000E+01 0.  1.
         13    1    6    6    0    0  0.19720095493E+01  0.10763959751E+02 -0.69794700577E+02  0.70647377020E+02  0.00000000000E+00 0. -1.
        -14    1    6    6    0    0  0.10455930396E+02 -0.16690586453E+03 -0.73705654013E+03  0.75579047192E+03  0.00000000000E+00 0.  1.
</event>
<event>
12    1  0.1345781E-002  0.2213223E+03  0.7818608E-02  0.1132901E+00
         -2   -1    0    0    0  501 -0.00000000000E+00  0.00000000000E+00  0.52590072514E+02  0.52590072514E+02  0.00000000000E+00 0. -1.
          2   -1    0    0  502    0  0.00000000000E+00 -0.00000000000E+00 -0.15806120496E+04  0.15806120496E+04  0.00000000000E+00 0.  1.
          6    2    1    2  502    0  0.11170696838E+03  0.79725774154E+02 -0.12897084589E+04  0.13087591833E+04  0.17512294253E+03 0.  0.
         24    2    3    3    0    0  0.70795084246E+02 -0.16446524712E+02 -0.85004473020E+03  0.85681983152E+03  0.79257480486E+02 0.  0.
         -6    2    1    2    0  501 -0.11170696838E+03 -0.79725774154E+02 -0.23831351813E+03  0.32444293878E+03  0.17214889414E+03 0.  0.
        -24    2    5    5    0    0 -0.29081015416E+02 -0.78228594077E+02 -0.67065057030E+02  0.13423932399E+03  0.80975649684E+02 0.  0.
          5    1    3    3  502    0  0.40911884135E+02  0.96172298866E+02 -0.43966372871E+03  0.45193935177E+03  0.47000000000E+01 0. -1.
        -11    1    4    4    0    0  0.63503194385E+02  0.49567438667E+01 -0.79152272018E+03  0.79408150814E+03  0.00000000000E+00 0.  1.
         12    1    4    4    0    0  0.72918898606E+01 -0.21403268579E+02 -0.58522010016E+02  0.62738323375E+02  0.00000000000E+00 0. -1.
         -5    1    5    5    0  501 -0.82625952965E+02 -0.14971800768E+01 -0.17124846110E+03  0.19020361479E+03  0.47000000000E+01 0.  1.
         11    1    6    6    0    0 -0.53003777249E+02 -0.63525701006E+02 -0.30590653777E+02  0.88208294335E+02  0.00000000000E+00 0. -1.
        -12    1    6    6    0    0  0.23922761833E+02 -0.14702893071E+02 -0.36474403253E+02  0.46031029655E+02  0.00000000000E+00 0.  1.
</event>
<event>
12    1  0.1345781E-002  0.2451756E+03  0.7818608E-02  0.1116392E+00
          1   -1    0    0  502    0  0.00000000000E+00  0.00000000000E+00  0.25850609147E+03  0.25850609147E+03  0.00000000000E+00 0.  1.
         -1   -1    0    0    0  501 -0.00000000000E+00 -0.00000000000E+00 -0.23592997855E+03  0.23592997855E+03  0.00000000000E+00 0. -1.
          6    2    1    2  502    0  0.32334435075E+02 -0.17199411085E+03 -0.18371116782E+02  0.24601492714E+03  0.17192543903E+03 0.  0.
         24    2    3    3    0    0  0.15101044513E+02 -0.11614549149E+03 -0.78626559387E+02  0.16193837631E+03  0.79524116745E+02 0.  0.
         -6    2    1    2    0  501 -0.32334435075E+02  0.17199411085E+03  0.40947229701E+02  0.24842114288E+03  0.17149022931E+03 0.  0.
        -24    2    5    5    0    0 -0.48027296499E+02  0.16891303935E+03  0.77459496238E+02  0.20828394680E+03  0.80894949568E+02 0.  0.
          5    1    3    3  502    0  0.17233390562E+02 -0.55848619367E+02  0.60255442605E+02  0.84076550827E+02  0.47000000000E+01 0. -1.
        -11    1    4    4    0    0  0.22861858636E+02 -0.28974733757E+02  0.91106800829E+01  0.38015842331E+02  0.00000000000E+00 0.  1.
         12    1    4    4    0    0 -0.77608141225E+01 -0.87170757731E+02 -0.87737239470E+02  0.12392253398E+03  0.00000000000E+00 0. -1.
         -5    1    5    5    0  501  0.15692861424E+02  0.30810715054E+01 -0.36512266537E+02  0.40137196077E+02  0.47000000000E+01 0.  1.
         13    1    6    6    0    0  0.18389251478E+02  0.63209266308E+02  0.10626536913E+02  0.66682075581E+02  0.00000000000E+00 0. -1.
        -14    1    6    6    0    0 -0.66416547976E+02  0.10570377304E+03  0.66832959325E+02  0.14160187122E+03  0.00000000000E+00 0.  1.
</event>
<event>
12    1  0.1345781E-002  0.2704710E+03  0.7818608E-02  0.1101010E+00
         -2   -1    0    0    0  501 -0.00000000000E+00  0.00000000000E+00  0.14355739589E+03  0.14355739589E+03  0.00000000000E+00 0.  1.
          2   -1    0    0  502    0  0.00000000000E+00 -0.00000000000E+00 -0.89927235567E+03  0.89927235567E+03  0.00000000000E+00 0. -1.
          6    2    1    2  502    0 -0.12963104205E+03 -0.16460500837E+03 -0.34518580170E+02  0.27253939170E+03  0.17084253513E+03 0.  0.
         24    2    3    3    0    0 -0.10534194187E+02 -0.90638740998E+02  0.18882416263E+02  0.12244334145E+03  0.79432207611E+02 0.  0.
         -6    2    1    2    0  501  0.12963104205E+03  0.16460500837E+03 -0.72119637961E+03  0.77029035985E+03  0.17124253172E+03 0.  0.
        -24    2    5    5    0    0  0.58071100527E+02  0.13933758960E+03 -0.32829861910E+03  0.37010289391E+03  0.80055931607E+02 0.  0.
          5    1    3    3  502    0 -0.11909684787E+03 -0.73966267368E+02 -0.53400996433E+02  0.15009605025E+03  0.47000000000E+01 0. -1.
        -13    1    4    4    0    0 -0.45114190742E+02 -0.45187026487E+02  0.10938565744E+02  0.64782789301E+02  0.00000000000E+00 0.  1.
         14    1    4    4    0    0  0.34579996555E+02 -0.45451714511E+02  0.79438505191E+01  0.57660552154E+02  0.00000000000E+00 0. -1.
         -5    1    5    5    0  501  0.71559941525E+02  0.25267418771E+02 -0.39289776051E+03  0.40018746594E+03  0.47000000000E+01 0.  1.
         11    1    6    6    0    0  0.56963507373E+02  0.67722754071E+02 -0.11504755527E+03  0.14514528089E+03  0.00000000000E+00 0. -1.
        -12    1    6    6    0    0  0.11075931540E+01  0.71614835524E+02 -0.21325106383E+03  0.22495761302E+03  0.00000000000E+00 0.  1.
</event>
<event>
12    1  0.1345781E-002  0.1782624E+03  0.7818608E-02  0.1169495E+00
          2   -1    0    0  502    0  0.00000000000E+00  0.00000000000E+00  0.76158153779E+03  0.76158153779E+03  0.00000000000E+00 0. -1.
         -2   -1    0    0    0  501 -0.00000000000E+00 -0.00000000000E+00 -0.48296626688E+02  0.48296626688E+02  0.00000000000E+00 0.  1.
          6    2    1    2  502    0 -0.16326826073E+02  0.45707528290E+02  0.50570778220E+03  0.53614953285E+03  0.17134823373E+03 0.  0.
         24    2    3    3    0    0  0.10444940706E+02  0.25520047696E+02  0.49298530966E+03  0.49998030316E+03  0.78647430871E+02 0.  0.
         -6    2    1    2    0  501  0.16326826073E+02 -0.45707528290E+02  0.20757712890E+03  0.27372863163E+03  0.17170718080E+03 0.  0.
        -24    2    5    5    0    0  0.51788519772E+02 -0.80858160452E+02  0.16696427634E+03  0.20919497797E+03  0.81641756122E+02 0.  0.
          5    1    3    3  502    0 -0.26771766779E+02  0.20187480594E+02  0.12722472545E+02  0.36169229697E+02  0.47000000000E+01 0. -1.
        -13    1    4    4    0    0 -0.10909912550E+02  0.10083449154E+02  0.14464658350E+02  0.20734716778E+02  0.00000000000E+00 0.  1.
         14    1    4    4    0    0  0.21354853256E+02  0.15436598542E+02  0.47852065131E+03  0.47924558638E+03  0.00000000000E+00 0. -1.
         -5    1    5    5    0  501 -0.35461693699E+02  0.35150632162E+02  0.40612852562E+02  0.64533653659E+02  0.47000000000E+01 0.  1.
         13    1    6    6    0    0 -0.19365681649E+02 -0.14635545238E+01  0.26271766934E+02  0.32670741580E+02  0.00000000000E+00 0. -1.
        -14    1    6    6    0    0  0.71154201421E+02 -0.79394605928E+02  0.14069250940E+03  0.17652423639E+03  0.00000000000E+00 0.  1.
</event>
<event>
12    1  0.1345781E-002  0.1771979E+03  0.7818608E-02  0.1170543E+00
         -1   -1    0    0    0  501 -0.00000000000E+00  0.00000000000E+00  0.20572350217E+03  0.20572350217E+03  0.00000000000E+00 0.  1.
          1   -1    0    0  502    0  0.00000000000E+00 -0.00000000000E+00 -0.15750305025E+03  0.15750305025E+03  0.00000000000E+00 0. -1.
          6    2    1    2  502    0 -0.79444544236E+01 -0.41910191204E+02  0.55929597610E+02  0.18494932865E+03  0.17105132503E+03 0.  0.
         24    2    3    3    0    0 -0.67865922109E+02 -0.29798319440E+01  0.29058715578E+02  0.10846214369E+03  0.79403808980E+02 0.  0.
         -6    2    1    2    0  501  0.79444544236E+01  0.41910191204E+02 -0.77091456867E+01  0.17827722377E+03  0.17292703405E+03 0.  0.
        -24    2    5    5    0    0  0.56871942800E+02  0.51441120148E+02 -0.39220458352E+02  0.11911819613E+03  0.82281793705E+02 0.  0.
          5    1    3    3  502    0  0.59921467686E+02 -0.38930359260E+02  0.26870882032E+02  0.76487184958E+02  0.47000000000E+01 0. -1.
        -13    1    4    4    0    0 -0.32136326489E+01 -0.20916278445E+02  0.35216941021E+02  0.41085898721E+02  0.00000000000E+00 0.  1.
         14    1    4    4    0    0 -0.64652289460E+02  0.17936446501E+02 -0.61582254426E+01  0.67376244969E+02  0.00000000000E+00 0. -1.
         -5    1    5    5    0  501 -0.48927488377E+02 -0.95309289445E+01  0.31511312665E+02  0.59159027640E+02  0.47000000000E+01 0.  1.
         13    1    6    6    0    0 -0.20779928012E+02  0.16350288829E+02 -0.15568270623E+02  0.30684008916E+02  0.00000000000E+00 0. -1.
        -14    1    6    6    0    0  0.77651870812E+02  0.35090831320E+02 -0.23652187728E+02  0.88434187211E+02  0.00000000000E+00 0.  1.
</event>
<event>
12    1  0.1345781E-002  0.1770054E+03  0.7818608E-02  0.1170733E+00
          3   -1    0    0  502    0  0.00000000000E+00  0.00000000000E+00  0.57181959822E+03  0.57181959822E+03  0.00000000000E+00 0. -1.
         -3   -1    0    0    0  501 -0.00000000000E+00 -0.00000000000E+00 -0.55901839285E+02  0.55901839285E+02  0.00000000000E+00 0.  1.
          6    2    1    2  502    0 -0.57502625612E+01  0.40150239161E+02  0.21442716342E+03  0.27835525773E+03  0.17279332704E+03 0.  0.
         24    2    3    3    0    0 -0.39340908063E+02  0.72576221344E+02  0.19774231895E+03  0.22855315114E+03  0.79495303267E+02 0.  0.
         -6    2    1    2    0  501  0.57502625612E+01 -0.40150239161E+02  0.30149059551E+03  0.34936617977E+03  0.17179942131E+03 0.  0.
        -24    2    5    5    0    0  0.51923861596E+01  0.39521916868E+02  0.10642325347E+03  0.13860251686E+03  0.79346115307E+02 0.  0.
          5    1    3    3  502    0  0.33590645502E+02 -0.32425982183E+02  0.16684844476E+02  0.49802106592E+02  0.47000000000E+01 0. -1.
        -13    1    4    4    0    0  0.57190574828E+01  0.72601748907E+01 -0.52312756380E+01  0.10619981296E+02  0.00000000000E+00 0.  1.
         14    1    4    4    0    0 -0.45059965546E+02  0.65316046453E+02  0.20297359458E+03  0.21793316984E+03  0.00000000000E+00 0. -1.
         -5    1    5    5    0  501  0.55787640160E+00 -0.79672156029E+02  0.19506734204E+03  0.21076366291E+03  0.47000000000E+01 0.  1.
         13    1    6    6    0    0  0.36618222991E+02  0.17943699874E+02  0.86407253719E+02  0.95546240719E+02  0.00000000000E+00 0. -1.
        -14    1    6    6    0    0 -0.31425836832E+02  0.21578216995E+02  0.20015999749E+02  0.43056276142E+02  0.00000000000E+00 0.  1.
</event>
<event>
12    1  0.1345781E-002  0.1831000E+03  0.7818608E-02  0.1164836E+00
          2   -1    0    0  502    0  0.00000000000E+00  0.00000000000E+00  0.10335773987E+04  0.10335773987E+04  0.00000000000E+00 0. -1.
         -2   -1    0    0    0  501 -0.00000000000E+00 -0.00000000000E+00 -0.59007689819E+02  0.59007689819E+02  0.00000000000E+00 0.  1.
          6    2    1    2  502    0 -0.12037286492E+01 -0.64607430242E+02  0.12126072355E+03  0.21993297006E+03  0.17172879560E+03 0.  0.
         24    2    3    3    0    0 -0.18522074431E+02  0.24938476976E+02  0.25854835168E+02  0.87861897763E+02  0.78014394196E+02 0.  0.
         -6    2    1    2    0  501  0.12037286492E+01  0.64607430242E+02  0.85330898537E+03  0.87265211849E+03  0.17090911736E+03 0.  0.
        -24    2    5    5    0    0 -0.14433115670E+01  0.87532513812E+02  0.83367444088E+03  0.84198990044E+03  0.79182668240E+02 0.  0.
          5    1    3    3  502    0  0.17318345782E+02 -0.89545907219E+02  0.95405888381E+02  0.13207107230E+03  0.47000000000E+01 0. -1.
        -13    1    4    4    0    0  0.76103889957E+01 -0.24182284176E+02  0.19249878429E+02  0.31831724869E+02  0.00000000000E+00 0.  1.
         14    1    4    4    0    0 -0.26132463427E+02  0.49120761152E+02  0.66049567394E+01  0.56030172893E+02  0.00000000000E+00 0. -1.
         -5    1    5    5    0  501  0.26470402162E+01 -0.22925083570E+02  0.19634544491E+02  0.30662218054E+02  0.47000000000E+01 0.  1.
         13    1    6    6    0    0  0.26153198640E+02  0.56302576417E+02  0.67790619724E+03  0.68074281646E+03  0.00000000000E+00 0. -1.
        -14    1    6    6    0    0 -0.27596510207E+02  0.31229937396E+02  0.15576824364E+03  0.16124708398E+03  0.00000000000E+00 0.  1.
</event>
<event>
12    1  0.1345781E-002  0.1744088E+03  0.7818608E-02  0.1173327E+00
          2   -1    0    0  502    0  0.00000000000E+00  0.00000000000E+00  0.54294936668E+02  0.54294936668E+02  0.00000000000E+00 0. -1.
         -2   -1    0    0    0  501 -0.00000000000E+00 -0.00000000000E+00 -0.62930064682E+03  0.62930064682E+03  0.00000000000E+00 0.  1.
          6    2    1    2  502    0  0.64152311617E+01 -0.21385087892E+02 -0.40027167282E+03  0.43649518098E+03  0.17266196392E+03 0.  0.
         24    2    3    3    0    0  0.47181980265E+02 -0.32438389996E+02 -0.37293457889E+03  0.38596291382E+03  0.81294417436E+02 0.  0.
         -6    2    1    2    0  501 -0.64152311617E+01  0.21385087892E+02 -0.17473403734E+03  0.24710040251E+03  0.17328631781E+03 0.  0.
        -24    2    5    5    0    0 -0.49706470600E+02  0.54201210335E+02 -0.72491392127E+02  0.13122686022E+03  0.80975196748E+02 0.  0.
          5    1    3    3  502    0 -0.40766749103E+02  0.11053302103E+02 -0.27337093927E+02  0.50532267159E+02  0.47000000000E+01 0. -1.
        -13    1    4    4    0    0  0.59039074674E+02  0.20885901351E+01 -0.27895773559E+03  0.28514451212E+03  0.00000000000E+00 0.  1.
         14    1    4    4    0    0 -0.11857094409E+02 -0.34526980131E+02 -0.93976843300E+02  0.10081840170E+03  0.00000000000E+00 0. -1.
         -5    1    5    5    0  501  0.43291239438E+02 -0.32816122443E+02 -0.10224264521E+03  0.11587354230E+03  0.47000000000E+01 0.  1.
         13    1    6    6    0    0 -0.42077631024E+02 -0.10575338611E+02 -0.21414402787E+02  0.48383276718E+02  0.00000000000E+00 0. -1.
        -14    1    6    6    0    0 -0.76288395758E+01  0.64776548946E+02 -0.51076989340E+02  0.82843583497E+02  0.00000000000E+00 0.  1.
</event>
<event>
12    1  0.1345781E-002  0.1739317E+03  0.7818608E-02  0.1173809E+00
          2   -1    0    0  502    0  0.00000000000E+00  0.00000000000E+00  0.20681512255E+04  0.20681512255E+04  0.00000000000E+00 0. -1.
         -2   -1    0    0    0  501 -0.00000000000E+00 -0.00000000000E+00 -0.15110485416E+02  0.15110485416E+02  0.00000000000E+00 0.  1.
          6    2    1    2  502    0  0.26584502836E+02  0.48748534316E+01  0.12173773030E+04  0.12298573599E+04  0.17265899279E+03 0.  0.
         24    2    3    3    0    0  0.81294898707E+02  0.23376959954E+02  0.75410938422E+03  0.76297963506E+03  0.79382726887E+02 0.  0.
         -6    2    1    2    0  501 -0.26584502836E+02 -0.48748534316E+01  0.83566343708E+03  0.85340435104E+03  0.17098276612E+03 0.  0.
        -24    2    5    5    0    0  0.55162126269E+01 -0.58003787081E+02  0.35523876379E+03  0.36896333684E+03  0.80898063761E+02 0.  0.
          5    1    3    3  502    0 -0.54710395870E+02 -0.18502106522E+02  0.46326791878E+03  0.46687772482E+03  0.47000000000E+01 0. -1.
        -13    1    4    4    0    0  0.58596990892E+02  0.47626720527E+02  0.62974900359E+03  0.63425997774E+03  0.00000000000E+00 0.  1.
         14    1    4    4    0    0  0.22697907815E+02 -0.24249760573E+02  0.12436038063E+03  0.12871965731E+03  0.00000000000E+00 0. -1.
         -5    1    5    5    0  501 -0.32100715463E+02  0.53128933649E+02  0.48042467330E+03  0.48444101420E+03  0.47000000000E+01 0.  1.
         13    1    6    6    0    0  0.42927851600E+02 -0.24232545567E+02  0.17464477263E+03  0.18146849124E+03  0.00000000000E+00 0. -1.
        -14    1    6    6    0    0 -0.37411638973E+02 -0.33771241514E+02  0.18059399116E+03  0.18749484560E+03  0.00000000000E+00 0.  1.
</event>
<event>
12    1  0.1345781E-002  0.1807395E+03  0.7818608E-02  0.1167089E+00
          3   -1    0    0  502    0  0.00000000000E+00  0.00000000000E+00  0.44896590189E+03  0.44896590189E+03  0.00000000000E+00 0. -1.
         -3   -1    0    0    0  501 -0.00000000000E+00 -0.00000000000E+00 -0.85198037694E+02  0.85198037694E+02  0.00000000000E+00 0.  1.
          6    2    1    2  502    0  0.28296846614E+02 -0.50981489861E+02  0.79516844981E+02  0.19711742783E+03  0.17068253537E+03 0.  0.
         24    2    3    3    0    0  0.65186006147E+02 -0.19679029464E+02 -0.12550402707E+01  0.10284738187E+03  0.77068341318E+02 0.  0.
         -6    2    1    2    0  501 -0.28296846614E+02  0.50981489861E+02  0.28425101921E+03  0.33704651175E+03  0.17146977963E+03 0.  0.
        -24    2    5    5    0    0  0.13574823453E+02 -0.33294718029E+01  0.54111192177E+02  0.96860443675E+02  0.79111081498E+02 0.  0.
          5    1    3    3  502    0 -0.36889159534E+02 -0.31302460397E+02  0.80771885252E+02  0.94270045959E+02  0.47000000000E+01 0. -1.
        -13    1    4    4    0    0  0.59434203751E+01 -0.31139084183E+02 -0.22501551629E+02  0.38875270228E+02  0.00000000000E+00 0.  1.
         14    1    4    4    0    0  0.59242585772E+02  0.11460054719E+02  0.21246511359E+02  0.63972111643E+02  0.00000000000E+00 0. -1.
         -5    1    5    5    0  501 -0.41871670067E+02  0.54310961664E+02  0.23013982704E+03  0.24018606808E+03  0.47000000000E+01 0.  1.
         13    1    6    6    0    0 -0.53000515678E+00  0.92788414820E+01  0.70936249106E+02  0.71542499550E+02  0.00000000000E+00 0. -1.
        -14    1    6    6    0    0  0.14104828610E+02 -0.12608313285E+02 -0.16825056929E+02  0.25317944124E+02  0.00000000000E+00 0.  1.
</event>
<event>
12    1  0.1345781E-002  0.1756339E+03  0.7818608E-02  0.1172097E+00
         -2   -1    0    0    0  501 -0.00000000000E+00  0.00000000000E+00  0.19076599377E+03  0.19076599377E+03  0.00000000000E+00 0.  1.
          2   -1    0    0  502    0  0.00000000000E+00 -0.00000000000E+00 -0.16172819377E+03  0.16172819377E+03  0.00000000000E+00 0. -1.
          6    2    1    2  502    0  0.18079859654E+02  0.28447785648E+02  0.16717509840E+02  0.17617411346E+03  0.17210951538E+03 0.  0.
         24    2    3    3    0    0 -0.56311977012E+02  0.41913514082E+01  0.10489707941E+02  0.97539544210E+02  0.78837316865E+02 0.  0.
         -6    2    1    2    0  501 -0.18079859654E+02 -0.28447785648E+02  0.12320290150E+02  0.17632007408E+03  0.17262914337E+03 0.  0.
        -24    2    5    5    0    0 -0.30367224246E+02 -0.45508568947E+02 -0.51705028975E+02  0.10876727144E+03  0.78509306194E+02 0.  0.
          5    1    3    3  502    0  0.74391836667E+02  0.24256434240E+02  0.62278018997E+01  0.78634569250E+02  0.47000000000E+01 0. -1.
        -13    1    4    4    0    0 -0.14255449394E+02  0.24189759698E+02  0.35034944697E+02  0.44897769005E+02  0.00000000000E+00 0.  1.
         14    1    4    4    0    0 -0.42056527618E+02 -0.19998408289E+02 -0.24545236756E+02  0.52641775206E+02  0.00000000000E+00 0. -1.
         -5    1    5    5    0  501  0.12287364592E+02  0.17060783299E+02  0.64025319125E+02  0.67552802640E+02  0.47000000000E+01 0.  1.
         13    1    6    6    0    0  0.22338247394E+02 -0.27719773904E+01 -0.30039831525E+02  0.37537616244E+02  0.00000000000E+00 0. -1.
        -14    1    6    6    0    0 -0.52705471640E+02 -0.42736591557E+02 -0.21665197450E+02  0.71229655195E+02  0.00000000000E+00 0.  1.
</event>
<event>
12    1  0.1345781E-002  0.2019358E+03  0.7818608E-02  0.1148116E+00
          1   -1    0    0  502    0  0.00000000000E+00  0.00000000000E+00  0.94307130776E+03  0.94307130776E+03  0.00000000000E+00 0. -1.
         -1   -1    0    0    0  501 -0.00000000000E+00 -0.00000000000E+00 -0.56203412349E+02  0.56203412349E+02  0.00000000000E+00 0.  1.
          6    2    1    2  502    0  0.74513362178E+02  0.79507699429E+02  0.67957476954E+03  0.70831563430E+03  0.16737817953E+03 0.  0.
         24    2    3    3    0    0  0.80519084856E+02  0.82479295127E+02  0.33097202661E+03  0.35961682233E+03  0.80595405307E+02 0.  0.
         -6    2    1    2    0  501 -0.74513362178E+02 -0.79507699429E+02  0.20729312587E+03  0.29095908581E+03  0.17266451335E+03 0.  0.
        -24    2    5    5    0    0 -0.35209826438E+02 -0.11466012337E+03  0.11788554346E+03  0.18705400113E+03  0.81887253045E+02 0.  0.
          5    1    3    3  502    0 -0.60057226781E+01 -0.29715956982E+01  0.34860274293E+03  0.34869881197E+03  0.47000000000E+01 0. -1.
        -11    1    4    4    0    0 -0.14507031775E+02  0.69808016908E+00  0.24330600288E+02  0.28335832389E+02  0.00000000000E+00 0.  1.
         12    1    4    4    0    0  0.95026116630E+02  0.81781214958E+02  0.30664142632E+03  0.33128098994E+03  0.00000000000E+00 0. -1.
         -5    1    5    5    0  501 -0.39303535739E+02  0.35152423945E+02  0.89407582406E+02  0.10390508468E+03  0.47000000000E+01 0.  1.
         13    1    6    6    0    0  0.90762527411E+01  0.96263017664E+01  0.12336459991E+02  0.18089563141E+02  0.00000000000E+00 0. -1.
        -14    1    6    6    0    0 -0.44286079179E+02 -0.12428642514E+03  0.10554908347E+03  0.16896443799E+03  0.00000000000E+00 0.  1.
</event>
<event>
12    1  0.1345781E-002  0.2002518E+03  0.7818608E-02  0.1149527E+00
          1   -1    0    0  502    0  0.00000000000E+00  0.00000000000E+00  0.16438864164E+03  0.16438864164E+03  0.00000000000E+00 0. -1.
         -1   -1    0    0    0  501 -0.00000000000E+00 -0.00000000000E+00 -0.29473896467E+03  0.29473896467E+03  0.00000000000E+00 0.  1.
          6    2    1    2  502    0  0.17084638322E+02 -0.10037333776E+03 -0.16029440382E+03  0.25597686876E+03  0.17164838958E+03 0.  0.
         24    2    3    3    0    0  0.23831566251E+01  0.15772730819E+02 -0.78132663452E+02  0.11287311483E+03  0.79882216290E+02 0.  0.
         -6    2    1    2    0  501 -0.17084638322E+02  0.10037333776E+03  0.29944080781E+02  0.20315073754E+03  0.17322494737E+03 0.  0.
        -24    2    5    5    0    0 -0.57995725374E+02  0.10647088439E+03 -0.10134945898E+02  0.14536392678E+03  0.79551245729E+02 0.  0.
          5    1    3    3  502    0  0.14701481697E+02 -0.11614606858E+03 -0.82161740365E+02  0.14310375394E+03  0.47000000000E+01 0. -1.
        -13    1    4    4    0    0 -0.25337949362E+01 -0.78584449901E+00 -0.91184653495E+02  0.91223235534E+02  0.00000000000E+00 0.  1.
         14    1    4    4    0    0  0.49169515613E+01  0.16558575318E+02  0.13051990043E+02  0.21649879291E+02  0.00000000000E+00 0. -1.
         -5    1    5    5    0  501  0.40911087052E+02 -0.60975466242E+01  0.40079026679E+02  0.57786810763E+02  0.47000000000E+01 0.  1.
         13    1    6    6    0    0 -0.48577971238E+02  0.17626199441E+02 -0.20140468697E+02  0.55462966705E+02  0.00000000000E+00 0. -1.
        -14    1    6    6    0    0 -0.94177541358E+01  0.88844684946E+02  0.10005522799E+02  0.89900960077E+02  0.00000000000E+00 0.  1.
</event>
<event>
12    1  0.1345781E-002  0.2056350E+03  0.7818608E-02  0.1145070E+00
          2   -1    0    0  502    0  0.00000000000E+00  0.00000000000E+00  0.22115666916E+04  0.22115666916E+04  0.00000000000E+00 0.  1.
         -2   -1    0    0    0  501 -0.00000000000E+00 -0.00000000000E+00 -0.19513449303E+02  0.19513449303E+02  0.00000000000E+00 0. -1.
          6    2    1    2  502    0 -0.11202313679E+03 -0.14063174204E+02  0.94388316717E+03  0.96627258644E+03  0.17326373538E+03 0.  0.
         24    2    3    3    0    0 -0.62205929393E+02  0.21581449180E+02  0.26624143094E+03  0.28585160939E+03  0.80568644288E+02 0.  0.
         -6    2    1    2    0  501  0.11202313679E+03  0.14063174204E+02  0.12481700751E+04  0.12648075544E+04  0.17047773266E+03 0.  0.
        -24    2    5    5    0    0 -0.83369914178E+01  0.21323344583E+02  0.54860261520E+03  0.55490897612E+03  0.80218152112E+02 0.  0.
          5    1    3    3  502    0 -0.49817207398E+02 -0.35644623383E+02  0.67764173624E+03  0.68042097706E+03  0.47000000000E+01 0. -1.
        -13    1    4    4    0    0 -0.40658677133E+02 -0.22694469765E+02  0.18571452582E+03  0.19146292614E+03  0.00000000000E+00 0.  1.
         14    1    4    4    0    0 -0.21547252260E+02  0.44275918944E+02  0.80526905112E+02  0.94388683248E+02  0.00000000000E+00 0. -1.
         -5    1    5    5    0  501  0.12036012821E+03 -0.72601703793E+01  0.69956745989E+03  0.70989857830E+03  0.47000000000E+01 0.  1.
         13    1    6    6    0    0  0.25637213193E+02 -0.41138767153E+01  0.74204722113E+02  0.78616356223E+02  0.00000000000E+00 0. -1.
        -14    1    6    6    0    0 -0.33974204611E+02  0.25437221298E+02  0.47439789308E+03  0.47629261990E+03  0.00000000000E+00 0.  1.
</event>
<event>
12    1  0.1345781E-002  0.1864177E+03  0.7818608E-02  0.1161733E+00
          1   -1    0    0  502    0  0.00000000000E+00  0.00000000000E+00  0.21513370581E+04  0.21513370581E+04  0.00000000000E+00 0.  1.
         -1   -1    0    0    0  501 -0.00000000000E+00 -0.00000000000E+00 -0.18262367113E+02  0.18262367113E+02  0.00000000000E+00 0. -1.
          6    2    1    2  502    0  0.63763783413E+02 -0.32656068753E+02  0.14394880593E+04  0.14516194965E+04  0.17303482536E+03 0.  0.
         24    2    3    3    0    0  0.10196204403E+03  0.86900025348E+01  0.10816570406E+04  0.10893575295E+04  0.79032266715E+02 0.  0.
         -6    2    1    2    0  501 -0.63763783413E+02  0.32656068753E+02  0.69358663167E+03  0.71797992872E+03  0.17117395687E+03 0.  0.
        -24    2    5    5    0    0 -0.73234046106E+02 -0.36566900684E+02  0.40653737323E+03  0.42251271879E+03  0.80894981120E+02 0.  0.
          5    1    3    3  502    0 -0.38198260620E+02 -0.41346071288E+02  0.35783101874E+03  0.36226196695E+03  0.47000000000E+01 0. -1.
        -11    1    4    4    0    0  0.48537625521E+00  0.24438228026E+02  0.29799060305E+03  0.29899140804E+03  0.00000000000E+00 0.  1.
         12    1    4    4    0    0  0.10147666778E+03 -0.15748225491E+02  0.78366643752E+03  0.79036612149E+03  0.00000000000E+00 0. -1.
         -5    1    5    5    0  501  0.94702626932E+01  0.69222969437E+02  0.28704925844E+03  0.29546720993E+03  0.47000000000E+01 0.  1.
         11    1    6    6    0    0 -0.29950236093E+02 -0.14213914508E+02  0.36602668118E+02  0.49384282125E+02  0.00000000000E+00 0. -1.
        -12    1    6    6    0    0 -0.43283810013E+02 -0.22352986176E+02  0.36993470511E+03  0.37312843667E+03  0.00000000000E+00 0.  1.
</event>
<event>
12    1  0.1345781E-002  0.2377408E+03  0.7818608E-02  0.1121307E+00
         -2   -1    0    0    0  501 -0.00000000000E+00  0.00000000000E+00  0.10803116915E+04  0.10803116915E+04  0.00000000000E+00 0. -1.
          2   -1    0    0  502    0  0.00000000000E+00 -0.00000000000E+00 -0.11058937632E+03  0.11058937632E+03  0.00000000000E+00 0.  1.
          6    2    1    2  502    0  0.14913401210E+03 -0.70362217561E+02  0.52990410929E+02  0.24393620196E+03  0.17177046240E+03 0.  0.
         24    2    3    3    0    0  0.34907818950E+02 -0.85930278417E+02  0.38259299818E+02  0.12762161408E+03  0.78872896387E+02 0.  0.
         -6    2    1    2    0  501 -0.14913401210E+03  0.70362217561E+02  0.91673190424E+03  0.94696486585E+03  0.17074330934E+03 0.  0.
        -24    2    5    5    0    0 -0.17126801044E+03  0.81295647358E+02  0.86716525539E+03  0.89139152289E+03  0.81618338925E+02 0.  0.
          5    1    3    3  502    0  0.11422619315E+03  0.15568060855E+02  0.14731111111E+02  0.11631458788E+03  0.47000000000E+01 0. -1.
        -11    1    4    4    0    0 -0.22673912375E+02 -0.12804996298E+02 -0.22009870166E+01  0.26132710851E+02  0.00000000000E+00 0.  1.
         12    1    4    4    0    0  0.57581731325E+02 -0.73125282118E+02  0.40460286835E+02  0.10148890323E+03  0.00000000000E+00 0. -1.
         -5    1    5    5    0  501  0.22133998341E+02 -0.10933429797E+02  0.49566648851E+02  0.55573342963E+02  0.47000000000E+01 0.  1.
         11    1    6    6    0    0 -0.37552727343E+02 -0.15896910740E+02  0.19219908336E+03  0.19647749679E+03  0.00000000000E+00 0. -1.
        -12    1    6    6    0    0 -0.13371528309E+03  0.97192558098E+02  0.67496617203E+03  0.69491402610E+03  0.00000000000E+00 0.  1.
</event>
<event>
12    1  0.1345781E-002  0.2007234E+03  0.7818608E-02  0.1149130E+00
         -2   -1    0    0    0  501 -0.00000000000E+00  0.00000000000E+00  0.24031562958E+02  0.24031562958E+02  0.00000000000E+00 0. -1.
          2   -1    0    0  502    0  0.00000000000E+00 -0.00000000000E+00 -0.17034249409E+04  0.17034249409E+04  0.00000000000E+00 0.  1.
          6    2    1    2  502    0 -0.94371476299E+02  0.40132381735E+02 -0.95213191208E+03  0.97326141069E+03  0.17368365476E+03 0.  0.
         24    2    3    3    0    0 -0.33092955825E+02  0.25580522717E+02 -0.83819567988E+03  0.84299104307E+03  0.79450576156E+02 0.  0.
         -6    2    1    2    0  501  0.94371476299E+02 -0.40132381735E+02 -0.72726146584E+03  0.75419509315E+03  0.17141882986E+03 0.  0.
        -24    2    5    5    0    0  0.35253122413E+02  0.42933630896E+02 -0.41290557864E+03  0.42368540185E+03  0.77020929448E+02 0.  0.
          5    1    3    3  502    0 -0.61278520474E+02  0.14551859019E+02 -0.11393623220E+03  0.13027036762E+03  0.47000000000E+01 0. -1.
        -13    1    4    4    0    0 -0.20052455609E+02  0.53762261318E+02 -0.60988158713E+03  0.61257491953E+03  0.00000000000E+00 0.  1.
         14    1    4    4    0    0 -0.13040500217E+02 -0.28181738602E+02 -0.22831409275E+03  0.23041612354E+03  0.00000000000E+00 0. -1.
         -5    1    5    5    0  501  0.59118353886E+02 -0.83066012631E+02 -0.31435588721E+03  0.33050969130E+03  0.47000000000E+01 0.  1.
         13    1    6    6    0    0  0.52362267083E+02  0.18407573401E+02 -0.16731472666E+03  0.17628063855E+03  0.00000000000E+00 0. -1.
        -14    1    6    6    0    0 -0.17109144670E+02  0.24526057495E+02 -0.24559085198E+03  0.24740476330E+03  0.00000000000E+00 0.  1.
</event>
<event>
12    1  0.1345781E-002  0.2114732E+03  0.7818608E-02  0.1140405E+00
         -1   -1    0    0    0  501 -0.00000000000E+00  0.00000000000E+00  0.84202916150E+02  0.84202916150E+02  0.00000000000E+00 0.  1.
          1   -1    0    0  502    0  0.00000000000E+00 -0.00000000000E+00 -0.56178902749E+03  0.56178902749E+03  0.00000000000E+00 0. -1.
          6    2    1    2  502    0  0.12634580464E+03  0.20495329936E+02 -0.16022327972E+03  0.26292803870E+03  0.16454887806E+03 0.  0.
         24    2    3    3    0    0  0.46259830262E+02 -0.46230161058E+02 -0.85063211771E+02  0.13433107041E+03  0.80820089039E+02 0.  0.
         -6    2    1    2    0  501 -0.12634580464E+03 -0.20495329936E+02 -0.31736283161E+03  0.38306390493E+03  0.17214954973E+03 0.  0.
        -24    2    5    5    0    0 -0.14979322665E+03 -0.33844222180E+02 -0.30768901017E+03  0.35401829693E+03  0.84101043136E+02 0.  0.
          5    1    3    3  502    0  0.80085974380E+02  0.66725490994E+02 -0.75160067951E+02  0.12859696830E+03  0.47000000000E+01 0. -1.
        -13    1    4    4    0    0  0.46656043167E+02 -0.34693390662E+02 -0.10750226148E+02  0.59126855843E+02  0.00000000000E+00 0.  1.
         14    1    4    4    0    0 -0.39621290469E+00 -0.11536770396E+02 -0.74312985624E+02  0.75204214564E+02  0.00000000000E+00 0. -1.
         -5    1    5    5    0  501  0.23447422007E+02  0.13348892243E+02 -0.96738214421E+01  0.29045608002E+02  0.47000000000E+01 0.  1.
         11    1    6    6    0    0 -0.37259814776E+02 -0.35263929108E+02 -0.16196353176E+03  0.16989415562E+03  0.00000000000E+00 0. -1.
        -12    1    6    6    0    0 -0.11253341187E+03  0.14197069287E+01 -0.14572547841E+03  0.18412414131E+03  0.00000000000E+00 0.  1.
</event>
<event>
12    1  0.1345781E-002  0.2375129E+03  0.7818608E-02  0.1121461E+00
          1   -1    0    0  502    0  0.00000000000E+00  0.00000000000E+00  0.46801452741E+02  0.46801452741E+02  0.00000000000E+00 0.  1.
         -1   -1    0    0    0  501 -0.00000000000E+00 -0.00000000000E+00 -0.12074380643E+04  0.12074380643E+04  0.00000000000E+00 0. -1.
          6    2    1    2  502    0  0.14192570213E+03 -0.81465499836E+02 -0.60545580969E+03  0.65024284268E+03  0.17163765431E+03 0.  0.
         24    2    3    3    0    0  0.40420948499E+02 -0.69605839975E+02 -0.44675315121E+03  0.46142417212E+03  0.82734892667E+02 0.  0.
         -6    2    1    2    0  501 -0.14192570213E+03  0.81465499836E+02 -0.55518080189E+03  0.60399667438E+03  0.17264624900E+03 0.  0.
        -24    2    5    5    0    0 -0.10484500523E+03  0.18675161465E+02 -0.19241386394E+03  0.23394323778E+03  0.79781618738E+02 0.  0.
          5    1    3    3  502    0  0.10150475363E+03 -0.11859659862E+02 -0.15870265848E+03  0.18881867056E+03  0.47000000000E+01 0. -1.
        -13    1    4    4    0    0 -0.11830242146E+02 -0.45541301573E+02 -0.10776258463E+03  0.11758715671E+03  0.00000000000E+00 0.  1.
         14    1    4    4    0    0  0.52251190645E+02 -0.24064538401E+02 -0.33899056658E+03  0.34383701541E+03  0.00000000000E+00 0. -1.
         -5    1    5    5    0  501 -0.37080696901E+02  0.62790338371E+02 -0.36276693795E+03  0.37005343660E+03  0.47000000000E+01 0.  1.
         11    1    6    6    0    0 -0.39082621492E+02  0.35008648938E+02 -0.13600817701E+03  0.14577819115E+03  0.00000000000E+00 0. -1.
        -12    1    6    6    0    0 -0.65762383738E+02 -0.16333487473E+02 -0.56405686933E+02  0.88165046625E+02  0.00000000000E+00 0.  1.
</event>
<event>
12    1  0.1345781E-002  0.2224557E+03  0.7818608E-02  0.1132065E+00
         -2   -1    0    0    0  501 -0.00000000000E+00  0.00000000000E+00  0.38564537351E+02  0.38564537351E+02  0.00000000000E+00 0. -1.
          2   -1    0    0  502    0  0.00000000000E+00 -0.00000000000E+00 -0.13289682303E+04  0.13289682303E+04  0.00000000000E+00 0.  1.
          6    2    1    2  502    0  0.14015941868E+03  0.36371927511E+02 -0.77774792012E+03  0.80951473232E+03  0.17162370124E+03 0.  0.
         24    2    3    3    0    0  0.27686194990E+02 -0.23059753159E+02 -0.43854683418E+03  0.44721400444E+03  0.79867154640E+02 0.  0.
         -6    2    1    2    0  501 -0.14015941868E+03 -0.36371927511E+02 -0.51265577284E+03  0.55801803535E+03  0.16613430287E+03 0.  0.
        -24    2    5    5    0    0 -0.94524297087E+02 -0.70681835987E+01 -0.16887651773E+03  0.20995548353E+03  0.81100091652E+02 0.  0.
          5    1    3    3  502    0  0.11247322369E+03  0.59431680670E+02 -0.33920108594E+03  0.36230072788E+03  0.47000000000E+01 0. -1.
        -13    1    4    4    0    0  0.39766691526E+02  0.12070608587E+02 -0.13105917257E+03  0.13749034898E+03  0.00000000000E+00 0.  1.
         14    1    4    4    0    0 -0.12080496536E+02 -0.35130361746E+02 -0.30748766161E+03  0.30972365547E+03  0.00000000000E+00 0. -1.
         -5    1    5    5    0  501 -0.45635121596E+02 -0.29303743912E+02 -0.34377925511E+03  0.34806255182E+03  0.47000000000E+01 0.  1.
         11    1    6    6    0    0 -0.79625072620E+02  0.29084533563E+02 -0.10358467361E+03  0.13385009111E+03  0.00000000000E+00 0. -1.
        -12    1    6    6    0    0 -0.14899224467E+02 -0.36152717162E+02 -0.65291844118E+02  0.76105392426E+02  0.00000000000E+00 0.  1.
</event>
<event>
12    1  0.1345781E-002  0.1914879E+03  0.7818608E-02  0.1157126E+00
          1   -1    0    0  502    0  0.00000000000E+00  0.00000000000E+00  0.79409602247E+03  0.79409602247E+03  0.00000000000E+00 0. -1.
         -1   -1    0    0    0  501 -0.00000000000E+00 -0.00000000000E+00 -0.48507997412E+02  0.48507997412E+02  0.00000000000E+00 0.  1.
          6    2    1    2  502    0 -0.10028611628E+03  0.38869220398E+01  0.47783106078E+03  0.51772514986E+03  0.17217547697E+03 0.  0.
         24    2    3    3    0    0 -0.81664124127E+02 -0.53312067845E+02  0.39888408535E+03  0.41836108209E+03  0.80039213574E+02 0.  0.
         -6    2    1    2    0  501  0.10028611628E+03 -0.38869220398E+01  0.26775696428E+03  0.32487887003E+03  0.15420789534E+03 0.  0.
        -24    2    5    5    0    0  0.97088881267E+02 -0.32769877686E+02  0.13176294455E+03  0.18573537991E+03  0.81461905479E+02 0.  0.
          5    1    3    3  502    0 -0.18621992152E+02  0.57198989885E+02  0.78946975426E+02  0.99364067773E+02  0.47000000000E+01 0. -1.
        -13    1    4    4    0    0 -0.39669063498E+02 -0.26233788326E+02  0.63820513504E+02  0.79592111372E+02  0.00000000000E+00 0.  1.
         14    1    4    4    0    0 -0.41995060630E+02 -0.27078279518E+02  0.33506357185E+03  0.33876897071E+03  0.00000000000E+00 0. -1.
         -5    1    5    5    0  501  0.31972350123E+01  0.28882955646E+02  0.13599401973E+03  0.13914349012E+03  0.47000000000E+01 0.  1.
         11    1    6    6    0    0  0.54670611979E+02 -0.21090344637E+02  0.12896074955E+03  0.14164940302E+03  0.00000000000E+00 0. -1.
        -12    1    6    6    0    0  0.42418269288E+02 -0.11679533049E+02  0.28021950001E+01  0.44085976891E+02  0.00000000000E+00 0.  1.
</event>
<event>
12    1  0.1345781E-002  0.1905348E+03  0.7818608E-02  0.1157980E+00
         -2   -1    0    0    0  501 -0.00000000000E+00  0.00000000000E+00  0.21319113776E+02  0.21319113776E+02  0.00000000000E+00 0. -1.
          2   -1    0    0  502    0  0.00000000000E+00 -0.00000000000E+00 -0.17896581352E+04  0.17896581352E+04  0.00000000000E+00 0.  1.
          6    2    1    2  502    0  0.83202942034E+02  0.33381072111E+01 -0.10846779973E+04  0.11013287681E+04  0.17165321194E+03 0.  0.
         24    2    3    3    0    0 -0.11985242940E+02 -0.15697548283E+02 -0.46196996402E+03  0.47108236278E+03  0.90068228599E+02 0.  0.
         -6    2    1    2    0  501 -0.83202942034E+02 -0.33381072111E+01 -0.68366102411E+03  0.70964848083E+03  0.17109850359E+03 0.  0.
        -24    2    5    5    0    0  0.20887392069E+02 -0.25868685554E+02 -0.33973133050E+03  0.34957605928E+03  0.75369571164E+02 0.  0.
          5    1    3    3  502    0  0.95188184974E+02  0.19035655494E+02 -0.62270803328E+03  0.63024640535E+03  0.47000000000E+01 0. -1.
        -11    1    4    4    0    0  0.15994496109E+02 -0.33275957670E+02 -0.39164315718E+03  0.39337955696E+03  0.00000000000E+00 0.  1.
         12    1    4    4    0    0 -0.27979739049E+02  0.17578409387E+02 -0.70326806832E+02  0.77702805824E+02  0.00000000000E+00 0. -1.
         -5    1    5    5    0  501 -0.10409033410E+03  0.22530578343E+02 -0.34392969361E+03  0.36007242155E+03  0.47000000000E+01 0.  1.
         13    1    6    6    0    0 -0.18071381460E+02  0.34145477992E+01 -0.24688089263E+02  0.30785316565E+02  0.00000000000E+00 0. -1.
        -14    1    6    6    0    0  0.38958773529E+02 -0.29283233353E+02 -0.31504324124E+03  0.31879074272E+03  0.00000000000E+00 0.  1.
</event>
<event>
12    1  0.1345781E-002  0.3060019E+03  0.7818608E-02  0.1082278E+00
          2   -1    0    0  502    0  0.00000000000E+00  0.00000000000E+00  0.19573179697E+04  0.19573179697E+04  0.00000000000E+00 0.  1.
         -2   -1    0    0    0  501 -0.00000000000E+00 -0.00000000000E+00 -0.54627344964E+02  0.54627344964E+02  0.00000000000E+00 0. -1.
          6    2    1    2  502    0 -0.25064036553E+02 -0.24891880485E+03  0.13119266729E+04  0.13476492448E+04  0.18005031095E+03 0.  0.
         24    2    3    3    0    0  0.52531150880E+02 -0.10328545863E+03  0.78647206610E+03  0.79687277607E+03  0.55140753607E+02 0.  0.
         -6    2    1    2    0  501  0.25064036553E+02  0.24891880485E+03  0.59076395179E+03  0.66429606987E+03  0.17233236601E+03 0.  0.
        -24    2    5    5    0    0 -0.23811434775E+02  0.12025474078E+03  0.41905660845E+03  0.44418529131E+03  0.81632988600E+02 0.  0.
          5    1    3    3  502    0 -0.77595187433E+02 -0.14563334622E+03  0.52545460680E+03  0.55077646868E+03  0.47000000000E+01 0. -1.
        -11    1    4    4    0    0  0.57682024102E+02 -0.10722399776E+03  0.75272290273E+03  0.76250637367E+03  0.00000000000E+00 0.  1.
         12    1    4    4    0    0 -0.51508732216E+01  0.39385391296E+01  0.33749163369E+02  0.34366402394E+02  0.00000000000E+00 0. -1.
         -5    1    5    5    0  501  0.48875471328E+02  0.12866406407E+03  0.17170734335E+03  0.22011077856E+03  0.47000000000E+01 0.  1.
         11    1    6    6    0    0 -0.56802765027E+01  0.12813973547E+02  0.33161232088E+01  0.14403476398E+02  0.00000000000E+00 0. -1.
        -12    1    6    6    0    0 -0.18131158272E+02  0.10744076723E+03  0.41574048524E+03  0.42978181491E+03  0.00000000000E+00 0.  1.
</event>
<event>
12    1  0.1345781E-002  0.2937403E+03  0.7818608E-02  0.1088412E+00
          1   -1    0    0  502    0  0.00000000000E+00  0.00000000000E+00  0.10188672107E+04  0.10188672107E+04  0.00000000000E+00 0.  1.
         -1   -1    0    0    0  501 -0.00000000000E+00 -0.00000000000E+00 -0.84696254759E+02  0.84696254759E+02  0.00000000000E+00 0. -1.
          6    2    1    2  502    0 -0.18556976347E+03 -0.15121318485E+03  0.46466419326E+03  0.54811599452E+03  0.16497504829E+03 0.  0.
         24    2    3    3    0    0 -0.90404208594E+02 -0.10832989921E+03  0.16745166841E+03  0.23307181674E+03  0.79838101875E+02 0.  0.
         -6    2    1    2    0  501  0.18556976347E+03  0.15121318485E+03  0.46950676265E+03  0.55544747091E+03  0.17545292355E+03 0.  0.
        -24    2    5    5    0    0  0.48107961269E+02  0.21136666854E+02  0.23851579577E+03  0.25679288049E+03  0.79320010188E+02 0.  0.
          5    1    3    3  502    0 -0.95165554878E+02 -0.42883285642E+02  0.29721252485E+03  0.31504417778E+03  0.47000000000E+01 0. -1.
        -11    1    4    4    0    0 -0.49164751293E+02 -0.60969710073E+01  0.71124951232E+02  0.86678166299E+02  0.00000000000E+00 0.  1.
         12    1    4    4    0    0 -0.41239457301E+02 -0.10223292820E+03  0.96326717176E+02  0.14639365044E+03  0.00000000000E+00 0. -1.
         -5    1    5    5    0  501  0.13746180220E+03  0.13007651800E+03  0.23099096687E+03  0.29865459042E+03  0.47000000000E+01 0.  1.
         11    1    6    6    0    0 -0.18772535239E+02 -0.94481446427E+01  0.41943284878E+02  0.46913906924E+02  0.00000000000E+00 0. -1.
        -12    1    6    6    0    0  0.66880496508E+02  0.30584811497E+02  0.19657251089E+03  0.20987897357E+03  0.00000000000E+00 0.  1.
</event>
<event>
12    1  0.1345781E-002  0.2923064E+03  0.7818608E-02  0.1089151E+00
         -2   -1    0    0    0  501 -0.00000000000E+00  0.00000000000E+00  0.55020041655E+03  0.55020041655E+03  0.00000000000E+00 0. -1.
          2   -1    0    0  502    0  0.00000000000E+00 -0.00000000000E+00 -0.15539316600E+03  0.15539316600E+03  0.00000000000E+00 0.  1.
          6    2    1    2  502    0 -0.76572377489E+02  0.22371899868E+03  0.20637829530E+03  0.35791587134E+03  0.17204142181E+03 0.  0.
         24    2    3    3    0    0 -0.11033742528E+03  0.11503044174E+03  0.11853193247E+03  0.21406749865E+03  0.79804291974E+02 0.  0.
         -6    2    1    2    0  501  0.76572377489E+02 -0.22371899868E+03  0.18842895526E+03  0.34767771121E+03  0.17164148779E+03 0.  0.
        -24    2    5    5    0    0  0.63542536048E+02 -0.13896625082E+03  0.41799612655E+02  0.17775108249E+03  0.80616170545E+02 0.  0.
          5    1    3    3  502    0  0.33765047794E+02  0.10868855694E+03  0.87846362835E+02  0.14384837269E+03  0.47000000000E+01 0. -1.
        -13    1    4    4    0    0 -0.70980088845E+02  0.28741222724E+02  0.24223754436E+02  0.80318249328E+02  0.00000000000E+00 0.  1.
         14    1    4    4    0    0 -0.39357336438E+02  0.86289219013E+02  0.94308178032E+02  0.13374924932E+03  0.00000000000E+00 0. -1.
         -5    1    5    5    0  501  0.13029841441E+02 -0.84752747856E+02  0.14662934260E+03  0.16992662872E+03  0.47000000000E+01 0.  1.
         13    1    6    6    0    0 -0.17002267138E+02 -0.49548550761E+02  0.10997644537E+02  0.53526480883E+02  0.00000000000E+00 0. -1.
        -14    1    6    6    0    0  0.80544803186E+02 -0.89417700063E+02  0.30801968117E+02  0.12422460161E+03  0.00000000000E+00 0.  1.
</event>
<event>
12    1  0.1345781E-002  0.2053652E+03  0.7818608E-02  0.1145290E+00
         -1   -1    0    0    0  501 -0.00000000000E+00  0.00000000000E+00  0.16284787296E+03  0.16284787296E+03  0.00000000000E+00 0. -1.
          1   -1    0    0  502    0  0.00000000000E+00 -0.00000000000E+00 -0.26996090366E+03  0.26996090366E+03  0.00000000000E+00 0.  1.
          6    2    1    2  502    0  0.84388100779E+02 -0.72730792579E+02 -0.97263881241E+02  0.22748545530E+03  0.17285326157E+03 0.  0.
         24    2    3    3    0    0  0.72585828048E+02 -0.20741116872E+02 -0.12527222638E+03  0.16708034443E+03  0.80770133289E+02 0.  0.
         -6    2    1    2    0  501 -0.84388100779E+02  0.72730792579E+02 -0.98491494524E+01  0.20532332132E+03  0.17219042015E+03 0.  0.
        -24    2    5    5    0    0  0.11978344041E+02  0.59550884288E+00 -0.22371212422E+02  0.84208157499E+02  0.80291389871E+02 0.  0.
          5    1    3    3  502    0  0.11802272731E+02 -0.51989675707E+02  0.28008345136E+02  0.60405110868E+02  0.47000000000E+01 0. -1.
        -13    1    4    4    0    0 -0.15912921517E+02 -0.14464914405E+02 -0.19542945205E+02  0.29058243705E+02  0.00000000000E+00 0.  1.
         14    1    4    4    0    0  0.88498749565E+02 -0.62762024670E+01 -0.10572928117E+03  0.13802210073E+03  0.00000000000E+00 0. -1.
         -5    1    5    5    0  501 -0.96366444819E+02  0.72135283736E+02  0.12522062970E+02  0.12111516382E+03  0.47000000000E+01 0.  1.
         13    1    6    6    0    0 -0.18919376188E+02  0.22897647653E+02  0.12808088462E+02  0.32346440197E+02  0.00000000000E+00 0. -1.
        -14    1    6    6    0    0  0.30897720229E+02 -0.22302138810E+02 -0.35179300884E+02  0.51861717302E+02  0.00000000000E+00 0.  1.
</event>
<event>
12    1  0.1345781E-002  0.1731518E+03  0.7818608E-02  0.1174600E+00
          2   -1    0    0  502    0  0.00000000000E+00  0.00000000000E+00  0.84255528516E+03  0.84255528516E+03  0.00000000000E+00 0. -1.
         -2   -1    0    0    0  501 -0.00000000000E+00 -0.00000000000E+00 -0.35927267282E+02  0.35927267282E+02  0.00000000000E+00 0.  1.
          6    2    1    2  502    0  0.24662430202E+01  0.20586305742E+02  0.36093368899E+03  0.40042081274E+03  0.17214476782E+03 0.  0.
         24    2    3    3    0    0 -0.47553876915E+02  0.32878721577E+02  0.31902586953E+03  0.33385151639E+03  0.79604949724E+02 0.  0.
         -6    2    1    2    0  501 -0.24662430202E+01 -0.20586305742E+02  0.44569432889E+03  0.47806173970E+03  0.17166745127E+03 0.  0.
        -24    2    5    5    0    0  0.24285559773E+02 -0.56913813010E+02  0.40379269624E+03  0.41631075950E+03  0.80231766875E+02 0.  0.
          5    1    3    3  502    0  0.50020119935E+02 -0.12292415835E+02  0.41907819461E+02  0.66569296356E+02  0.47000000000E+01 0. -1.
        -13    1    4    4    0    0 -0.33539931885E+02  0.47772332133E+02  0.11659069320E+03  0.13038601340E+03  0.00000000000E+00 0.  1.
         14    1    4    4    0    0 -0.14013945030E+02 -0.14893610557E+02  0.20243517633E+03  0.20346550299E+03  0.00000000000E+00 0. -1.
         -5    1    5    5    0  501 -0.26751802793E+02  0.36327507268E+02  0.41901632647E+02  0.61750980198E+02  0.47000000000E+01 0.  1.
         13    1    6    6    0    0 -0.25896974895E+02 -0.30104051817E+02  0.23110691464E+03  0.23449373817E+03  0.00000000000E+00 0. -1.
        -14    1    6    6    0    0  0.50182534668E+02 -0.26809761193E+02  0.17268578160E+03  0.18181702134E+03  0.00000000000E+00 0.  1.
</event>
<event>
12    1  0.1345781E-002  0.1732263E+03  0.7818608E-02  0.1174525E+00
          2   -1    0    0  502    0  0.00000000000E+00  0.00000000000E+00  0.20642133428E+04  0.20642133428E+04  0.00000000000E+00 0.  1.
         -2   -1    0    0    0  501 -0.00000000000E+00 -0.00000000000E+00 -0.14605826933E+02  0.14605826933E+02  0.00000000000E+00 0. -1.
          6    2    1    2  502    0 -0.38439718738E+01 -0.28796801012E+02  0.94709093930E+03  0.96260047452E+03  0.16963016943E+03 0.  0.
         24    2    3    3    0    0  0.77517745507E+00  0.27602625036E+02  0.80772750544E+03  0.81211297173E+03  0.79631965957E+02 0.  0.
         -6    2    1    2    0  501  0.38439718738E+01  0.28796801012E+02  0.11025165766E+04  0.11162186952E+04  0.17192248852E+03 0.  0.
        -24    2    5    5    0    0 -0.57254159403E+01 -0.43616929722E+02  0.41979850718E+03  0.42958824595E+03  0.79875262012E+02 0.  0.
          5    1    3    3  502    0 -0.46191493288E+01 -0.56399426048E+02  0.13936343386E+03  0.15048750279E+03  0.47000000000E+01 0. -1.
        -11    1    4    4    0    0  0.15307396533E+02 -0.20162268222E+02  0.12357966918E+03  0.12614582071E+03  0.00000000000E+00 0.  1.
         12    1    4    4    0    0 -0.14532219078E+02  0.47764893258E+02  0.68414783626E+03  0.68596715102E+03  0.00000000000E+00 0. -1.
         -5    1    5    5    0  501  0.95693878141E+01  0.72413730735E+02  0.68271806938E+03  0.68663044925E+03  0.47000000000E+01 0.  1.
         11    1    6    6    0    0 -0.12566524329E+02 -0.15918276272E+02  0.19047617208E+02  0.27823025976E+02  0.00000000000E+00 0. -1.
        -12    1    6    6    0    0  0.68411083885E+01 -0.27698653451E+02  0.40075088997E+03  0.40176521997E+03  0.00000000000E+00 0.  1.
</event>
<event>
12    1  0.1345781E-002  0.2244522E+03  0.7818608E-02  0.1130607E+00
          2   -1    0    0  502    0  0.00000000000E+00  0.00000000000E+00  0.21449242357E+04  0.21449242357E+04  0.00000000000E+00 0. -1.
         -2   -1    0    0    0  501 -0.00000000000E+00 -0.00000000000E+00 -0.23863400678E+02  0.23863400678E+02  0.00000000000E+00 0.  1.
          6    2    1    2  502    0  0.12080823406E+03  0.77529148134E+02  0.93137822889E+03  0.95838533218E+03  0.17444667223E+03 0.  0.
         24    2    3    3    0    0  0.56704335301E+02  0.67621054737E+02  0.28475808509E+03  0.30850289625E+03  0.79365491792E+02 0.  0.
         -6    2    1    2    0  501 -0.12080823406E+03 -0.77529148134E+02  0.11896826061E+04  0.12104023042E+04  0.17065648671E+03 0.  0.
        -24    2    5    5    0    0 -0.15421117660E+03 -0.65612079088E+02  0.99599986247E+03  0.10134432519E+04  0.83459372136E+02 0.  0.
          5    1    3    3  502    0  0.64103898755E+02  0.99080933965E+01  0.64662014381E+03  0.64988243593E+03  0.47000000000E+01 0. -1.
        -13    1    4    4    0    0  0.61365322891E+02  0.70471683039E+02  0.17310570759E+03  0.19671692089E+03  0.00000000000E+00 0.  1.
         14    1    4    4    0    0 -0.46609875903E+01 -0.28506283017E+01  0.11165237749E+03  0.11178597536E+03  0.00000000000E+00 0. -1.
         -5    1    5    5    0  501  0.33402942545E+02 -0.11917069046E+02  0.19368274363E+03  0.19695905230E+03  0.47000000000E+01 0.  1.
         13    1    6    6    0    0 -0.11912519305E+03 -0.65650612841E+02  0.91659509288E+03  0.92663227813E+03  0.00000000000E+00 0. -1.
        -14    1    6    6    0    0 -0.35085983552E+02  0.38533752495E-01  0.79404769598E+02  0.86810973739E+02  0.00000000000E+00 0.  1.
</event>
<event>
12    1  0.1345781E-002  0.2092346E+03  0.7818608E-02  0.1142174E+00
         -2   -1    0    0    0  501 -0.00000000000E+00  0.00000000000E+00  0.41061329707E+02  0.41061329707E+02  0.00000000000E+00 0. -1.
          2   -1    0    0  502    0  0.00000000000E+00 -0.00000000000E+00 -0.12582683934E+04  0.12582683934E+04  0.00000000000E+00 0.  1.
          6    2    1    2  502    0  0.90518727223E+02 -0.76539906580E+02 -0.35446434019E+03  0.41154784425E+03  0.17226335176E+03 0.  0.
         24    2    3    3    0    0  0.69850614841E+02  0.26208572362E+01 -0.28931013562E+03  0.30685420656E+03  0.74653681952E+02 0.  0.
         -6    2    1    2    0  501 -0.90518727223E+02  0.76539906580E+02 -0.86274272354E+03  0.88778187890E+03  0.17256784233E+03 0.  0.
        -24    2    5    5    0    0 -0.40950081425E+02 -0.19711076480E+02 -0.27488374800E+03  0.29001807311E+03  0.80523115396E+02 0.  0.
          5    1    3    3  502    0  0.20668112382E+02 -0.79160763816E+02 -0.65154204576E+02  0.10469363768E+03  0.47000000000E+01 0. -1.
        -11    1    4    4    0    0  0.52017075111E+02 -0.33569362593E+02 -0.17251724763E+03  0.18328905842E+03  0.00000000000E+00 0.  1.
         12    1    4    4    0    0  0.17833539730E+02  0.36190219829E+02 -0.11679288799E+03  0.12356514814E+03  0.00000000000E+00 0. -1.
         -5    1    5    5    0  501 -0.49568645798E+02  0.96250983060E+02 -0.58785897554E+03  0.59776380579E+03  0.47000000000E+01 0.  1.
         13    1    6    6    0    0 -0.22623604824E+02 -0.22488317642E+02 -0.26853833850E+03  0.27042631376E+03  0.00000000000E+00 0. -1.
        -14    1    6    6    0    0 -0.18326476601E+02  0.27772411615E+01 -0.63454094985E+01  0.19591759359E+02  0.00000000000E+00 0.  1.
</event>
<event>
12    1  0.1345781E-002  0.2156799E+03  0.7818608E-02  0.1137145E+00
          2   -1    0    0  502    0  0.00000000000E+00  0.00000000000E+00  0.10190481900E+04  0.10190481900E+04  0.00000000000E+00 0.  1.
         -2   -1    0    0    0  501 -0.00000000000E+00 -0.00000000000E+00 -0.15518528717E+03  0.15518528717E+03  0.00000000000E+00 0. -1.
          6    2    1    2  502    0 -0.68867107967E+01  0.13526050809E+03  0.92355794777E+03  0.94779398023E+03  0.16435119181E+03 0.  0.
         24    2    3    3    0    0 -0.62985596154E+02  0.66780125574E+02  0.60653166995E+03  0.61860649786E+03  0.79790739074E+02 0.  0.
         -6    2    1    2    0  501  0.68867107967E+01 -0.13526050809E+03 -0.59695044923E+02  0.22643949695E+03  0.17137244690E+03 0.  0.
        -24    2    5    5    0    0  0.31614074316E+01 -0.16215624356E+03 -0.76030765558E+02  0.19440507420E+03  0.75551398001E+02 0.  0.
          5    1    3    3  502    0  0.56098885357E+02  0.68480382512E+02  0.31702627782E+03  0.32918748238E+03  0.47000000000E+01 0. -1.
        -13    1    4    4    0    0 -0.53772000762E+02  0.72285699669E+02  0.59839172175E+03  0.60513577246E+03  0.00000000000E+00 0.  1.
         14    1    4    4    0    0 -0.92135953924E+01 -0.55055740950E+01  0.81399481985E+01  0.13470725402E+02  0.00000000000E+00 0. -1.
         -5    1    5    5    0  501  0.37253033651E+01  0.26895735478E+02  0.16335720635E+02  0.32034422747E+02  0.47000000000E+01 0.  1.
         13    1    6    6    0    0  0.36368769551E+02 -0.68453331697E+02 -0.47773143000E+02  0.91053935726E+02  0.00000000000E+00 0. -1.
        -14    1    6    6    0    0 -0.33207362120E+02 -0.93702911868E+02 -0.28257622558E+02  0.10335113848E+03  0.00000000000E+00 0.  1.
</event>
<event>
12    1  0.1345781E-002  0.2656117E+03  0.7818608E-02  0.1103818E+00
          2   -1    0    0  502    0  0.00000000000E+00  0.00000000000E+00  0.35613586218E+04  0.35613586218E+04  0.00000000000E+00 0. -1.
         -2   -1    0    0    0  501 -0.00000000000E+00 -0.00000000000E+00 -0.23421355848E+02  0.23421355848E+02  0.00000000000E+00 0.  1.
          6    2    1    2  502    0  0.17709026537E+03 -0.97778251860E+02  0.10639824218E+04  0.10965858737E+04  0.17181512106E+03 0.  0.
         24    2    3    3    0    0  0.27298978895E+02 -0.76651545728E+02  0.42230271212E+03  0.43729936006E+03  0.79186210535E+02 0.  0.
         -6    2    1    2    0  501 -0.17709026537E+03  0.97778251860E+02  0.24739548441E+04  0.24881941040E+04  0.17244065503E+03 0.  0.
        -24    2    5    5    0    0 -0.48537089523E+02  0.65950567713E+01  0.56591561621E+03  0.57365079565E+03  0.80096234881E+02 0.  0.
          5    1    3    3  502    0  0.14979128648E+03 -0.21126706132E+02  0.64167970971E+03  0.65928651365E+03  0.47000000000E+01 0. -1.
        -11    1    4    4    0    0 -0.61617259181E+01 -0.17016680607E+02  0.12899031998E+02  0.22224295527E+02  0.00000000000E+00 0.  1.
         12    1    4    4    0    0  0.33460704813E+02 -0.59634865121E+02  0.40940368012E+03  0.41507506454E+03  0.00000000000E+00 0. -1.
         -5    1    5    5    0  501 -0.12855317585E+03  0.91183195089E+02  0.19080392279E+04  0.19145433083E+04  0.47000000000E+01 0.  1.
         13    1    6    6    0    0 -0.11165129796E+02  0.33655855459E+02  0.39591734400E+03  0.39750210063E+03  0.00000000000E+00 0. -1.
        -14    1    6    6    0    0 -0.37371959727E+02 -0.27060798688E+02  0.16999827221E+03  0.17614869501E+03  0.00000000000E+00 0.  1.
</event>
<event>
12    1  0.1345781E-002  0.2432018E+03  0.7818608E-02  0.1117678E+00
         -2   -1    0    0    0  501 -0.00000000000E+00  0.00000000000E+00  0.63572952472E+02  0.63572952472E+02  0.00000000000E+00 0.  1.
          2   -1    0    0  502    0  0.00000000000E+00 -0.00000000000E+00 -0.14319848728E+04  0.14319848728E+04  0.00000000000E+00 0. -1.
          6    2    1    2  502    0 -0.13441678236E+02 -0.17031565606E+03 -0.11280965831E+04  0.11541673094E+04  0.17410392274E+03 0.  0.
         24    2    3    3    0    0  0.17812257690E+02 -0.15210102954E+03 -0.58493461099E+03  0.60978178511E+03  0.78951419275E+02 0.  0.
         -6    2    1    2    0  501  0.13441678236E+02  0.17031565606E+03 -0.24031533728E+03  0.34139051591E+03  0.17206952550E+03 0.  0.
        -24    2    5    5    0    0  0.13323439929E+02  0.89523484308E+01 -0.93620152921E+02  0.12326280528E+03  0.78557797439E+02 0.  0.
          5    1    3    3  502    0 -0.31253935926E+02 -0.18214626515E+02 -0.54316197208E+03  0.54438552428E+03  0.47000000000E+01 0. -1.
        -11    1    4    4    0    0 -0.28175577668E+02 -0.83081455844E+02 -0.34232251093E+03  0.35338519065E+03  0.00000000000E+00 0.  1.
         12    1    4    4    0    0  0.45987835358E+02 -0.69019573700E+02 -0.24261210006E+03  0.25639659446E+03  0.00000000000E+00 0. -1.
         -5    1    5    5    0  501  0.11823830651E+00  0.16136330763E+03 -0.14669518436E+03  0.21812771063E+03  0.47000000000E+01 0.  1.
         13    1    6    6    0    0 -0.25392190519E+02  0.24275219411E+02 -0.60906847947E+02  0.70311405502E+02  0.00000000000E+00 0. -1.
        -14    1    6    6    0    0  0.38715630449E+02 -0.15322870980E+02 -0.32713304974E+02  0.52951399778E+02  0.00000000000E+00 0.  1.
</event>
<event>
12    1  0.1345781E-002  0.2073525E+03  0.7818608E-02  0.1143680E+00
          1   -1    0    0  502    0  0.00000000000E+00  0.00000000000E+00  0.13189642367E+04  0.13189642367E+04  0.00000000000E+00 0.  1.
         -1   -1    0    0    0  501 -0.00000000000E+00 -0.00000000000E+00 -0.11686898674E+03  0.11686898674E+03  0.00000000000E+00 0. -1.
          6    2    1    2  502    0 -0.81314030959E+02  0.77268234642E+02 -0.63866732850E+01  0.21013737186E+03  0.17757976727E+03 0.  0.
         24    2    3    3    0    0 -0.32567704348E+02  0.72839352158E+02  0.59787317152E+02  0.12769401938E+03  0.79781029728E+02 0.  0.
         -6    2    1    2    0  501  0.81314030959E+02 -0.77268234642E+02  0.12084819232E+04  0.12256958516E+04  0.17122911569E+03 0.  0.
        -24    2    5    5    0    0  0.36685773695E+02 -0.84430033726E+02  0.46499747518E+03  0.48082392485E+03  0.80589814504E+02 0.  0.
          5    1    3    3  502    0 -0.48746326611E+02  0.44288824838E+01 -0.66173990437E+02  0.82443352483E+02  0.47000000000E+01 0. -1.
        -13    1    4    4    0    0 -0.28326684918E+02  0.58245535801E+02 -0.12628330213E+01  0.64780693624E+02  0.00000000000E+00 0.  1.
         14    1    4    4    0    0 -0.42410194295E+01  0.14593816356E+02  0.61050150174E+02  0.62913325758E+02  0.00000000000E+00 0. -1.
         -5    1    5    5    0  501  0.44628257264E+02  0.71617990842E+01  0.74348444803E+03  0.74487192670E+03  0.47000000000E+01 0.  1.
         13    1    6    6    0    0  0.12268843516E+02 -0.93432289755E+02  0.32317487831E+03  0.33663350882E+03  0.00000000000E+00 0. -1.
        -14    1    6    6    0    0  0.24416930179E+02  0.90022560298E+01  0.14182259687E+03  0.14419041603E+03  0.00000000000E+00 0.  1.
</event>
<event>
12    1  0.1345781E-002  0.1980722E+03  0.7818608E-02  0.1151376E+00
          2   -1    0    0  502    0  0.00000000000E+00  0.00000000000E+00  0.18082079477E+03  0.18082079477E+03  0.00000000000E+00 0. -1.
         -2   -1    0    0    0  501 -0.00000000000E+00 -0.00000000000E+00 -0.23848620207E+03  0.23848620207E+03  0.00000000000E+00 0.  1.
          6    2    1    2  502    0  0.96992724157E+02  0.23529597582E+01 -0.91709924783E+02  0.21764390493E+03  0.17188668969E+03 0.  0.
         24    2    3    3    0    0  0.51634876381E+01 -0.45990200721E+02 -0.46896291931E+02  0.10450672477E+03  0.81121101811E+02 0.  0.
         -6    2    1    2    0  501 -0.96992724157E+02 -0.23529597582E+01  0.34044517485E+02  0.20166309191E+03  0.17348155091E+03 0.  0.
        -24    2    5    5    0    0 -0.46858116189E+02  0.65642493097E+02  0.22327546054E+02  0.11624507306E+03  0.80683193690E+02 0.  0.
          5    1    3    3  502    0  0.91829236519E+02  0.48343160479E+02 -0.44813632852E+02  0.11313718016E+03  0.47000000000E+01 0. -1.
        -13    1    4    4    0    0 -0.23255494491E+02 -0.57742361583E+02 -0.26825036363E+02  0.67783338079E+02  0.00000000000E+00 0.  1.
         14    1    4    4    0    0  0.28418982130E+02  0.11752160862E+02 -0.20071255568E+02  0.36723386694E+02  0.00000000000E+00 0. -1.
         -5    1    5    5    0  501 -0.50134607968E+02 -0.67995452855E+02  0.11716971431E+02  0.85418018852E+02  0.47000000000E+01 0.  1.
         13    1    6    6    0    0 -0.38052666475E+02  0.69059061731E+01  0.38622792082E+02  0.54657268814E+02  0.00000000000E+00 0. -1.
        -14    1    6    6    0    0 -0.88054497138E+01  0.58736586924E+02 -0.16295246028E+02  0.61587804241E+02  0.00000000000E+00 0.  1.
</event>
<event>
12    1  0.1345781E-002  0.1845596E+03  0.7818608E-02  0.1163462E+00
          2   -1    0    0  502    0  0.00000000000E+00  0.00000000000E+00  0.70650582272E+03  0.70650582272E+03  0.00000000000E+00 0.  1.
         -2   -1    0    0    0  501 -0.00000000000E+00 -0.00000000000E+00 -0.48355665214E+02  0.48355665214E+02  0.00000000000E+00 0. -1.
          6    2    1    2  502    0  0.86506362753E+01 -0.67410739302E+02  0.34999158923E+03  0.39576845039E+03  0.17181243410E+03 0.  0.
         24    2    3    3    0    0  0.46725456843E+02  0.12677553473E+02  0.21855188344E+03  0.23714211948E+03  0.78278160399E+02 0.  0.
         -6    2    1    2    0  501 -0.86506362753E+01  0.67410739302E+02  0.30815856828E+03  0.35909303755E+03  0.17136821505E+03 0.  0.
        -24    2    5    5    0    0 -0.42274472609E+02  0.36445705583E+02  0.78862734301E+02  0.12523824251E+03  0.79686046680E+02 0.  0.
          5    1    3    3  502    0 -0.38074820568E+02 -0.80088292775E+02  0.13143970579E+03  0.15862633091E+03  0.47000000000E+01 0. -1.
        -13    1    4    4    0    0  0.67451848559E+01 -0.11865136799E+02  0.16654368515E+03  0.16710199895E+03  0.00000000000E+00 0.  1.
         14    1    4    4    0    0  0.39980271987E+02  0.24542690272E+02  0.52008198291E+02  0.70040120527E+02  0.00000000000E+00 0. -1.
         -5    1    5    5    0  501  0.33623836334E+02  0.30965033719E+02  0.22929583398E+03  0.23385479504E+03  0.47000000000E+01 0.  1.
         13    1    6    6    0    0 -0.62547231580E+02  0.41887517334E+02  0.68713765119E+02  0.10192301901E+03  0.00000000000E+00 0. -1.
        -14    1    6    6    0    0  0.20272758971E+02 -0.54418117517E+01  0.10148969181E+02  0.23315223501E+02  0.00000000000E+00 0.  1.
</event>
<event>
12    1  0.1345781E-002  0.1961024E+03  0.7818608E-02  0.1153070E+00
         -2   -1    0    0    0  501 -0.00000000000E+00  0.00000000000E+00  0.12576238352E+03  0.12576238352E+03  0.00000000000E+00 0.  1.
          2   -1    0    0  502    0  0.00000000000E+00 -0.00000000000E+00 -0.42574730801E+03  0.42574730801E+03  0.00000000000E+00 0. -1.
          6    2    1    2  502    0  0.71066831563E+02 -0.61987516393E+02 -0.29614019263E+03  0.35495489769E+03  0.17146725333E+03 0.  0.
         24    2    3    3    0    0 -0.47351440652E+01 -0.65961671326E+02 -0.23597724646E+03  0.25798374987E+03  0.80603912304E+02 0.  0.
         -6    2    1    2    0  501 -0.71066831563E+02  0.61987516393E+02 -0.38447318552E+01  0.19655479385E+03  0.17241246557E+03 0.  0.
        -24    2    5    5    0    0 -0.98589684317E+01  0.31256036890E+02 -0.61889976398E+02  0.10665392202E+03  0.80439733978E+02 0.  0.
          5    1    3    3  502    0  0.75801975629E+02  0.39741549333E+01 -0.60162946172E+02  0.96971147816E+02  0.47000000000E+01 0. -1.
        -13    1    4    4    0    0 -0.41890151997E+02 -0.33055301351E+02 -0.14219916064E+03  0.15188166139E+03  0.00000000000E+00 0.  1.
         14    1    4    4    0    0  0.37155007931E+02 -0.32906369975E+02 -0.93778085821E+02  0.10610208848E+03  0.00000000000E+00 0. -1.
         -5    1    5    5    0  501 -0.61207863132E+02  0.30731479502E+02  0.58045244543E+02  0.89900871829E+02  0.47000000000E+01 0.  1.
         13    1    6    6    0    0  0.37253888938E+01  0.57203453620E+02 -0.37099174063E+02  0.68282225686E+02  0.00000000000E+00 0. -1.
        -14    1    6    6    0    0 -0.13584357326E+02 -0.25947416730E+02 -0.24790802336E+02  0.38371696331E+02  0.00000000000E+00 0.  1.
</event>
<event>
12    1  0.1345781E-002  0.2031325E+03  0.7818608E-02  0.1147123E+00
          2   -1    0    0  502    0  0.00000000000E+00  0.00000000000E+00  0.90706668849E+03  0.90706668849E+03  0.00000000000E+00 0. -1.
         -2   -1    0    0    0  501 -0.00000000000E+00 -0.00000000000E+00 -0.45523801318E+02  0.45523801318E+02  0.00000000000E+00 0.  1.
          6    2    1    2  502    0  0.11871627217E+02 -0.10665905509E+03  0.41702361417E+03  0.46368444694E+03  0.17198105128E+03 0.  0.
         24    2    3    3    0    0  0.43988016167E+01  0.54087314977E+01  0.24945026682E+03  0.26189755774E+03  0.79475098636E+02 0.  0.
         -6    2    1    2    0  501 -0.11871627217E+02  0.10665905509E+03  0.44451927301E+03  0.48890604287E+03  0.17295850690E+03 0.  0.
        -24    2    5    5    0    0 -0.29999755018E+02  0.71953310311E+02  0.43397572158E+03  0.44808479577E+03  0.79798453051E+02 0.  0.
          5    1    3    3  502    0  0.74728255998E+01 -0.11206778659E+03  0.16757334735E+03  0.20178688920E+03  0.47000000000E+01 0. -1.
        -11    1    4    4    0    0  0.12118690420E+02  0.24996591378E+02  0.27977536733E+02  0.39426321153E+02  0.00000000000E+00 0.  1.
         12    1    4    4    0    0 -0.77198888030E+01 -0.19587859881E+02  0.22147273008E+03  0.22247123659E+03  0.00000000000E+00 0. -1.
         -5    1    5    5    0  501  0.18128127802E+02  0.34705744777E+02  0.10543551429E+02  0.40821247101E+02  0.47000000000E+01 0.  1.
         13    1    6    6    0    0 -0.91159316103E+01  0.73741120186E+02  0.20319189472E+03  0.21635110144E+03  0.00000000000E+00 0. -1.
        -14    1    6    6    0    0 -0.20883823408E+02 -0.17878098751E+01  0.23078382687E+03  0.23173369433E+03  0.00000000000E+00 0.  1.
</event>
<event>
12    1  0.1345781E-002  0.1998064E+03  0.7818608E-02  0.1149902E+00
         -2   -1    0    0    0  501 -0.00000000000E+00  0.00000000000E+00  0.40288341176E+02  0.40288341176E+02  0.00000000000E+00 0. -1.
          2   -1    0    0  502    0  0.00000000000E+00 -0.00000000000E+00 -0.99549440907E+03  0.99549440907E+03  0.00000000000E+00 0.  1.
          6    2    1    2  502    0 -0.75662355179E+02  0.66968172230E+02 -0.51284440651E+03  0.55041426312E+03  0.17244404215E+03 0.  0.
         24    2    3    3    0    0 -0.32247231664E+02 -0.71429659839E+00 -0.41544771959E+03  0.42402599563E+03  0.78491038258E+02 0.  0.
         -6    2    1    2    0  501  0.75662355179E+02 -0.66968172230E+02 -0.44236166139E+03  0.48536848713E+03  0.17230554474E+03 0.  0.
        -24    2    5    5    0    0  0.64011475583E+01 -0.22383132780E+02 -0.35494554327E+03  0.36516612305E+03  0.82571056742E+02 0.  0.
          5    1    3    3  502    0 -0.43415123514E+02  0.67682468828E+02 -0.97396686922E+02  0.12638826749E+03  0.47000000000E+01 0. -1.
        -13    1    4    4    0    0 -0.76671983403E+01  0.97438978847E+01 -0.37703210913E+03  0.37723592193E+03  0.00000000000E+00 0.  1.
         14    1    4    4    0    0 -0.24580033324E+02 -0.10458194483E+02 -0.38415610458E+02  0.46790073701E+02  0.00000000000E+00 0. -1.
         -5    1    5    5    0  501  0.69261207620E+02 -0.44585039450E+02 -0.87416118114E+02  0.12020236408E+03  0.47000000000E+01 0.  1.
         11    1    6    6    0    0 -0.47820928415E-01 -0.37638426232E+02 -0.67827394124E+02  0.77570669777E+02  0.00000000000E+00 0. -1.
        -12    1    6    6    0    0  0.64489684867E+01  0.15255293452E+02 -0.28711814915E+03  0.28759545327E+03  0.00000000000E+00 0.  1.
</event>
<event>
12    1  0.1345781E-002  0.1784508E+03  0.7818608E-02  0.1169311E+00
         -2   -1    0    0    0  501 -0.00000000000E+00  0.00000000000E+00  0.32251966324E+03  0.32251966324E+03  0.00000000000E+00 0. -1.
          2   -1    0    0  502    0  0.00000000000E+00 -0.00000000000E+00 -0.17191956152E+03  0.17191956152E+03  0.00000000000E+00 0.  1.
          6    2    1    2  502    0  0.46179555763E+02 -0.40602158384E+01  0.23645828111E+03  0.29590064344E+03  0.17174293395E+03 0.  0.
         24    2    3    3    0    0 -0.15526092978E+02 -0.17871281244E+01  0.21510280725E+03  0.23039567968E+03  0.81047505431E+02 0.  0.
         -6    2    1    2    0  501 -0.46179555763E+02  0.40602158384E+01 -0.85858179392E+02  0.19853858131E+03  0.17290721378E+03 0.  0.
        -24    2    5    5    0    0  0.11431200302E+01 -0.35544007389E+02 -0.10260909492E+03  0.13442451645E+03  0.79225255301E+02 0.  0.
          5    1    3    3  502    0  0.61705648740E+02 -0.22730877140E+01  0.21355473862E+02  0.65504963767E+02  0.47000000000E+01 0. -1.
        -13    1    4    4    0    0 -0.12194753130E+02 -0.39395499312E+02  0.14526547593E+03  0.15100588024E+03  0.00000000000E+00 0.  1.
         14    1    4    4    0    0 -0.33313398475E+01  0.37608371188E+02  0.69837331322E+02  0.79389799438E+02  0.00000000000E+00 0. -1.
         -5    1    5    5    0  501 -0.47322675793E+02  0.39604223228E+02  0.16750915530E+02  0.64114064859E+02  0.47000000000E+01 0.  1.
         13    1    6    6    0    0  0.33379363243E+02 -0.25482973199E+02 -0.22845303881E+02  0.47806607524E+02  0.00000000000E+00 0. -1.
        -14    1    6    6    0    0 -0.32236243213E+02 -0.10061034190E+02 -0.79763791042E+02  0.86617908927E+02  0.00000000000E+00 0.  1.
</event>
<event>
12    1  0.1345781E-002  0.1751625E+03  0.7818608E-02  0.1172569E+00
         -1   -1    0    0    0  501 -0.00000000000E+00  0.00000000000E+00  0.10096664383E+02  0.10096664383E+02  0.00000000000E+00 0.  1.
          1   -1    0    0  502    0  0.00000000000E+00 -0.00000000000E+00 -0.30646216836E+04  0.30646216836E+04  0.00000000000E+00 0. -1.
          6    2    1    2  502    0 -0.25425496855E+02 -0.20862373018E+02 -0.13888488758E+04  0.13998893345E+04  0.17235792500E+03 0.  0.
         24    2    3    3    0    0 -0.36225454006E+02  0.42390047246E+02 -0.55202781251E+03  0.56059850895E+03  0.80167217947E+02 0.  0.
         -6    2    1    2    0  501  0.25425496855E+02  0.20862373018E+02 -0.16656761433E+04  0.16748290135E+04  0.17173676203E+03 0.  0.
        -24    2    5    5    0    0  0.72416904819E+02  0.37481854268E+02 -0.13859977668E+04  0.13907049492E+04  0.80133318732E+02 0.  0.
          5    1    3    3  502    0  0.10799957151E+02 -0.63252420264E+02 -0.83682106333E+03  0.83929082551E+03  0.47000000000E+01 0. -1.
        -11    1    4    4    0    0 -0.40256940828E+02  0.32061734231E+02 -0.15313330000E+03  0.16154994168E+03  0.00000000000E+00 0.  1.
         12    1    4    4    0    0  0.40314868225E+01  0.10328313015E+02 -0.39889451251E+03  0.39904856727E+03  0.00000000000E+00 0. -1.
         -5    1    5    5    0  501 -0.46991407963E+02 -0.16619481251E+02 -0.27967837657E+03  0.28412406427E+03  0.47000000000E+01 0.  1.
         11    1    6    6    0    0  0.86406790451E+02  0.38069784153E+02 -0.99855329029E+03  0.10030075351E+04  0.00000000000E+00 0. -1.
        -12    1    6    6    0    0 -0.13989885632E+02 -0.58792988503E+00 -0.38744447647E+03  0.38769741411E+03  0.00000000000E+00 0.  1.
</event>
<event>
12    1  0.1345781E-002  0.1807333E+03  0.7818608E-02  0.1167095E+00
          1   -1    0    0  502    0  0.00000000000E+00  0.00000000000E+00  0.12390602496E+03  0.12390602496E+03  0.00000000000E+00 0. -1.
         -1   -1    0    0    0  501 -0.00000000000E+00 -0.00000000000E+00 -0.51214609433E+03  0.51214609433E+03  0.00000000000E+00 0.  1.
          6    2    1    2  502    0  0.46690281883E+02  0.98629397769E+01 -0.41553157340E+03  0.45304346252E+03  0.17408225194E+03 0.  0.
         24    2    3    3    0    0 -0.38368312722E+02 -0.66405480148E+01 -0.16058803101E+03  0.18373763372E+03  0.80341633290E+02 0.  0.
         -6    2    1    2    0  501 -0.46690281883E+02 -0.98629397769E+01  0.27291504032E+02  0.18300865676E+03  0.17455681669E+03 0.  0.
        -24    2    5    5    0    0 -0.82585315560E+02  0.32266468244E+02 -0.32611026891E+01  0.11961392322E+03  0.80220923198E+02 0.  0.
          5    1    3    3  502    0  0.85058594605E+02  0.16503487792E+02 -0.25494354239E+03  0.26930582881E+03  0.47000000000E+01 0. -1.
        -11    1    4    4    0    0  0.31810378657E+01  0.23627517507E+02 -0.10643078933E+03  0.10906828826E+03  0.00000000000E+00 0.  1.
         12    1    4    4    0    0 -0.41549350588E+02 -0.30268065522E+02 -0.54157241679E+02  0.74669345457E+02  0.00000000000E+00 0. -1.
         -5    1    5    5    0  501  0.35895033677E+02 -0.42129408021E+02  0.30552606721E+02  0.63394733538E+02  0.47000000000E+01 0.  1.
         13    1    6    6    0    0 -0.78815747168E+02  0.22029167195E+02  0.28007895483E+02  0.86496522579E+02  0.00000000000E+00 0. -1.
        -14    1    6    6    0    0 -0.37695683922E+01  0.10237301049E+02 -0.31268998172E+02  0.33117400642E+02  0.00000000000E+00 0.  1.
</event>
<event>
12    1  0.1345781E-002  0.1709861E+03  0.7818608E-02  0.1176823E+00
          2   -1    0    0  502    0  0.00000000000E+00  0.00000000000E+00  0.11769595498E+04  0.11769595498E+04  0.00000000000E+00 0.  1.
         -2   -1    0    0    0  501 -0.00000000000E+00 -0.00000000000E+00 -0.24866141486E+02  0.24866141486E+02  0.00000000000E+00 0. -1.
          6    2    1    2  502    0 -0.11604212634E+01 -0.28653150085E+02  0.58339809671E+03  0.60717194085E+03  0.16577719060E+03 0.  0.
         24    2    3    3    0    0 -0.43686532087E+02 -0.66278227336E+02  0.38421404688E+03  0.39999932624E+03  0.77959673311E+02 0.  0.
         -6    2    1    2    0  501  0.11604212634E+01  0.28653150085E+02  0.56869531164E+03  0.59465375047E+03  0.17139537883E+03 0.  0.
        -24    2    5    5    0    0 -0.15569213197E+02 -0.48332628140E+02  0.32798352472E+03  0.34133390309E+03  0.79732036005E+02 0.  0.
          5    1    3    3  502    0  0.42526110823E+02  0.37625077251E+02  0.19918404982E+03  0.20717261461E+03  0.47000000000E+01 0. -1.
        -13    1    4    4    0    0 -0.44691981024E+02 -0.46583660950E+02  0.13124000741E+03  0.14625782092E+03  0.00000000000E+00 0.  1.
         14    1    4    4    0    0  0.10054489373E+01 -0.19694566386E+02  0.25297403948E+03  0.25374150532E+03  0.00000000000E+00 0. -1.
         -5    1    5    5    0  501  0.16729634460E+02  0.76985778225E+02  0.24071178691E+03  0.25331984738E+03  0.47000000000E+01 0.  1.
         11    1    6    6    0    0 -0.37809439432E+02 -0.19881756323E+02  0.26750473833E+03  0.27089411764E+03  0.00000000000E+00 0. -1.
        -12    1    6    6    0    0  0.22240226235E+02 -0.28450871818E+02  0.60478786398E+02  0.70439785450E+02  0.00000000000E+00 0.  1.
</event>
<event>
12    1  0.1345781E-002  0.2913436E+03  0.7818608E-02  0.1089650E+00
         -2   -1    0    0    0  501 -0.00000000000E+00  0.00000000000E+00  0.22234139279E+04  0.22234139279E+04  0.00000000000E+00 0. -1.
          2   -1    0    0  502    0  0.00000000000E+00 -0.00000000000E+00 -0.38188320917E+02  0.38188320917E+02  0.00000000000E+00 0.  1.
          6    2    1    2  502    0  0.60106547350E+02  0.22795230282E+03  0.11147745434E+04  0.11523503754E+04  0.17208734865E+03 0.  0.
         24    2    3    3    0    0 -0.60109393822E+00  0.95485806532E+02  0.73443226094E+03  0.74502356286E+03  0.80941106627E+02 0.  0.
         -6    2    1    2    0  501 -0.60106547350E+02 -0.22795230282E+03  0.10704510635E+04  0.11092518734E+04  0.17029148501E+03 0.  0.
        -24    2    5    5    0    0  0.23555812153E+02 -0.63430157501E+02  0.41357758088E+03  0.42692366140E+03  0.81480894036E+02 0.  0.
          5    1    3    3  502    0  0.60707641288E+02  0.13246649628E+03  0.38034228248E+03  0.40732681252E+03  0.47000000000E+01 0. -1.
        -11    1    4    4    0    0 -0.13639958311E+02  0.10692505410E+03  0.62593155737E+03  0.63514512528E+03  0.00000000000E+00 0.  1.
         12    1    4    4    0    0  0.13038864373E+02 -0.11439247571E+02  0.10850070357E+03  0.10987843758E+03  0.00000000000E+00 0. -1.
         -5    1    5    5    0  501 -0.83662359503E+02 -0.16452214531E+03  0.65687348267E+03  0.68232821203E+03  0.47000000000E+01 0.  1.
         11    1    6    6    0    0  0.30395521782E+02 -0.77592968296E+02  0.38838437063E+03  0.39722408766E+03  0.00000000000E+00 0. -1.
        -12    1    6    6    0    0 -0.68397096285E+01  0.14162810795E+02  0.25193210249E+02  0.29699573735E+02  0.00000000000E+00 0.  1.
</event>
<event>
12    1  0.1345781E-002  0.1735959E+03  0.7818608E-02  0.1174149E+00
         -1   -1    0    0    0  501 -0.00000000000E+00  0.00000000000E+00  0.10655538443E+04  0.10655538443E+04  0.00000000000E+00 0.  1.
          1   -1    0    0  502    0  0.00000000000E+00 -0.00000000000E+00 -0.34307604870E+02  0.34307604870E+02  0.00000000000E+00 0. -1.
          6    2    1    2  502    0  0.68800247987E+01 -0.26967374497E+02  0.28072046323E+03  0.32910284362E+03  0.16949964359E+03 0.  0.
         24    2    3    3    0    0  0.36702055473E+02 -0.80950948471E+01  0.62343036714E+02  0.10784212215E+03  0.79565681344E+02 0.  0.
         -6    2    1    2    0  501 -0.68800247987E+01  0.26967374497E+02  0.75052577617E+03  0.77075860552E+03  0.17322041812E+03 0.  0.
        -24    2    5    5    0    0 -0.90645446367E+01  0.91581707161E+01  0.15703432726E+03  0.17697739177E+03  0.80592674606E+02 0.  0.
          5    1    3    3  502    0 -0.29822030674E+02 -0.18872279649E+02  0.21837742651E+03  0.22126072146E+03  0.47000000000E+01 0. -1.
        -11    1    4    4    0    0 -0.30801704174E+01 -0.22106150865E+02  0.61750600794E+02  0.65660536506E+02  0.00000000000E+00 0.  1.
         12    1    4    4    0    0  0.39782225890E+02  0.14011056018E+02  0.59243591956E+00  0.42181585648E+02  0.00000000000E+00 0. -1.
         -5    1    5    5    0  501  0.21845198380E+01  0.17809203780E+02  0.59349144892E+03  0.59378121375E+03  0.47000000000E+01 0.  1.
         11    1    6    6    0    0  0.32876281494E+02  0.19480171031E+02  0.67412472512E+02  0.77490440691E+02  0.00000000000E+00 0. -1.
        -12    1    6    6    0    0 -0.41940826131E+02 -0.10322000315E+02  0.89621854747E+02  0.99486951081E+02  0.00000000000E+00 0.  1.
</event>
<event>
12    1  0.1345781E-002  0.2487594E+03  0.7818608E-02  0.1114091E+00
         -1   -1    0    0    0  501 -0.00000000000E+00  0.00000000000E+00  0.30961222126E+02  0.30961222126E+02  0.00000000000E+00 0. -1.
          1   -1    0    0  502    0  0.00000000000E+00 -0.00000000000E+00 -0.22363455764E+04  0.22363455764E+04  0.00000000000E+00 0.  1.
          6    2    1    2  502    0  0.12841956387E+02  0.17979010534E+03 -0.73316785558E+03  0.77422404621E+03  0.17145953296E+03 0.  0.
         24    2    3    3    0    0 -0.12475626126E+02  0.15867272853E+03 -0.71389334762E+03  0.73574651712E+03  0.79665234870E+02 0.  0.
         -6    2    1    2    0  501 -0.12841956387E+02 -0.17979010534E+03 -0.14722164986E+04  0.14930827523E+04  0.17142137680E+03 0.  0.
        -24    2    5    5    0    0  0.37787944889E+02 -0.31081375510E+02 -0.63177276410E+03  0.63807080255E+03  0.74856816151E+02 0.  0.
          5    1    3    3  502    0  0.25317582513E+02  0.21117376810E+02 -0.19274507960E+02  0.38477529088E+02  0.47000000000E+01 0. -1.
        -11    1    4    4    0    0 -0.45184994906E+02  0.11262466753E+03 -0.47272951221E+03  0.48805654510E+03  0.00000000000E+00 0.  1.
         12    1    4    4    0    0  0.32709368780E+02  0.46048061000E+02 -0.24116383541E+03  0.24768997202E+03  0.00000000000E+00 0. -1.
         -5    1    5    5    0  501 -0.50629901276E+02 -0.14870872983E+03 -0.84044373454E+03  0.85501194972E+03  0.47000000000E+01 0.  1.
         11    1    6    6    0    0  0.44426621098E+02 -0.18710029602E+02 -0.18819215445E+03  0.19426805416E+03  0.00000000000E+00 0. -1.
        -12    1    6    6    0    0 -0.66386762095E+01 -0.12371345907E+02 -0.44358060965E+03  0.44380274839E+03  0.00000000000E+00 0.  1.
</event>
<event>
12    1  0.1345781E-002  0.2056417E+03  0.7818608E-02  0.1145065E+00
         -2   -1    0    0    0  501 -0.00000000000E+00  0.00000000000E+00  0.52859994500E+02  0.52859994500E+02  0.00000000000E+00 0. -1.
          2   -1    0    0  502    0  0.00000000000E+00 -0.00000000000E+00 -0.80602559199E+03  0.80602559199E+03  0.00000000000E+00 0.  1.
          6    2    1    2  502    0 -0.83928242585E+02  0.77443084853E+02 -0.41355837117E+03  0.46183428385E+03  0.17093565479E+03 0.  0.
         24    2    3    3    0    0 -0.29021526050E+02 -0.93227125528E+01 -0.28349781145E+03  0.29606067221E+03  0.79697870676E+02 0.  0.
         -6    2    1    2    0  501  0.83928242585E+02 -0.77443084853E+02 -0.33960722632E+03  0.39705130264E+03  0.17110022637E+03 0.  0.
        -24    2    5    5    0    0 -0.20296084790E+02 -0.32043512601E+02 -0.19485541381E+03  0.21293446799E+03  0.77030757548E+02 0.  0.
          5    1    3    3  502    0 -0.54906716535E+02  0.86765797406E+02 -0.13006055972E+03  0.16577361163E+03  0.47000000000E+01 0. -1.
        -11    1    4    4    0    0 -0.87259718471E+01  0.33891357285E+02 -0.15699876651E+03  0.16085204186E+03  0.00000000000E+00 0.  1.
         12    1    4    4    0    0 -0.20295554203E+02 -0.43214069838E+02 -0.12649904494E+03  0.13520863036E+03  0.00000000000E+00 0. -1.
         -5    1    5    5    0  501  0.10422432738E+03 -0.45399572252E+02 -0.14475181251E+03  0.18411683465E+03  0.47000000000E+01 0.  1.
         11    1    6    6    0    0 -0.10084501387E+02  0.14381262694E+02 -0.65890213462E+01  0.18759879722E+02  0.00000000000E+00 0. -1.
        -12    1    6    6    0    0 -0.10211583404E+02 -0.46424775295E+02 -0.18826639246E+03  0.19417458826E+03  0.00000000000E+00 0.  1.
</event>
<event>
12    1  0.1345781E-002  0.3355493E+03  0.7818608E-02  0.1068708E+00
         -2   -1    0    0    0  501 -0.00000000000E+00  0.00000000000E+00  0.11784066153E+03  0.11784066153E+03  0.00000000000E+00 0.  1.
          2   -1    0    0  502    0  0.00000000000E+00 -0.00000000000E+00 -0.17207830806E+04  0.17207830806E+04  0.00000000000E+00 0. -1.
          6    2    1    2  502    0 -0.28089223917E+03 -0.63041347958E+02 -0.18790690525E+03  0.38426371632E+03  0.17168266384E+03 0.  0.
         24    2    3    3    0    0 -0.57439181513E+02  0.72228491047E+01 -0.75662270246E+02  0.12447673734E+03  0.80113980534E+02 0.  0.
         -6    2    1    2    0  501  0.28089223917E+03  0.63041347958E+02 -0.14150355138E+04  0.14543600258E+04  0.17309800039E+03 0.  0.
        -24    2    5    5    0    0  0.94670319959E+02  0.35319367325E+02 -0.35214074130E+03  0.37490900846E+03  0.79647572192E+02 0.  0.
          5    1    3    3  502    0 -0.22345305765E+03 -0.70264197063E+02 -0.11224463500E+03  0.25978697899E+03  0.47000000000E+01 0. -1.
        -13    1    4    4    0    0 -0.72192965428E+02  0.14206370767E+01 -0.80268916020E+02  0.10796731610E+03  0.00000000000E+00 0.  1.
         14    1    4    4    0    0  0.14753783915E+02  0.58022120280E+01  0.46066457739E+01  0.16509421235E+02  0.00000000000E+00 0. -1.
         -5    1    5    5    0  501  0.18622191921E+03  0.27721980633E+02 -0.10628947725E+04  0.10794510174E+04  0.47000000000E+01 0.  1.
         13    1    6    6    0    0  0.65900383578E+02 -0.75094411423E+01 -0.26903087454E+03  0.27708638313E+03  0.00000000000E+00 0. -1.
        -14    1    6    6    0    0  0.28769936381E+02  0.42828808467E+02 -0.83109866757E+02  0.97822625330E+02  0.00000000000E+00 0.  1.
</event>
<event>
12    1  0.1345781E-002  0.1800108E+03  0.7818608E-02  0.1167793E+00
          3   -1    0    0  502    0  0.00000000000E+00  0.00000000000E+00  0.38259436156E+03  0.38259436156E+03  0.00000000000E+00 0.  1.
         -3   -1    0    0    0  501 -0.00000000000E+00 -0.00000000000E+00 -0.85771649517E+02  0.85771649517E+02  0.00000000000E+00 0. -1.
          6    2    1    2  502    0 -0.53714438863E+02  0.34902647995E+01  0.12231311239E+03  0.21777276368E+03  0.17195073786E+03 0.  0.
         24    2    3    3    0    0 -0.77776670466E+02 -0.46056022582E+02  0.98688795297E+02  0.15765601110E+03  0.83340097397E+02 0.  0.
         -6    2    1    2    0  501  0.53714438863E+02 -0.34902647995E+01  0.17450959966E+03  0.25059324739E+03  0.17159822953E+03 0.  0.
        -24    2    5    5    0    0  0.19893870773E+02  0.49899413557E+02  0.15494770304E+03  0.18426794016E+03  0.84024791129E+02 0.  0.
          5    1    3    3  502    0  0.24062231603E+02  0.49546287382E+02  0.23624317090E+02  0.60116752582E+02  0.47000000000E+01 0. -1.
        -13    1    4    4    0    0 -0.38691223265E+02  0.13052623044E+02  0.70340075840E+02  0.81333314179E+02  0.00000000000E+00 0.  1.
         14    1    4    4    0    0 -0.39085447201E+02 -0.59108645626E+02  0.28348719457E+02  0.76322696922E+02  0.00000000000E+00 0. -1.
         -5    1    5    5    0  501  0.33820568090E+02 -0.53389678356E+02  0.19561896612E+02  0.66325307236E+02  0.47000000000E+01 0.  1.
         13    1    6    6    0    0 -0.29550017226E+02  0.12069157383E+02  0.26340593503E+02  0.41384718726E+02  0.00000000000E+00 0. -1.
        -14    1    6    6    0    0  0.49443887998E+02  0.37830256174E+02  0.12860710954E+03  0.14288322143E+03  0.00000000000E+00 0.  1.
</event>
<event>
12    1  0.1345781E-002  0.2101727E+03  0.7818608E-02  0.1141429E+00
         -1   -1    0    0    0  501 -0.00000000000E+00  0.00000000000E+00  0.40641854384E+02  0.40641854384E+02  0.00000000000E+00 0. -1.
          1   -1    0    0  502    0  0.00000000000E+00 -0.00000000000E+00 -0.15088619743E+04  0.15088619743E+04  0.00000000000E+00 0.  1.
          6    2    1    2  502    0  0.92146973515E+02 -0.69016470031E+02 -0.32969600248E+03  0.39211760432E+03  0.17833234058E+03 0.  0.
         24    2    3    3    0    0  0.29014583973E+02  0.30338944201E+02 -0.11815108245E+03  0.14998016372E+03  0.82292609673E+02 0.  0.
         -6    2    1    2    0  501 -0.92146973515E+02  0.69016470031E+02 -0.11385241174E+04  0.11573862244E+04  0.17335330547E+03 0.  0.
        -24    2    5    5    0    0 -0.11307079115E+03  0.99830728466E+02 -0.92307498972E+03  0.93869067961E+03  0.79508346552E+02 0.  0.
          5    1    3    3  502    0  0.63132389542E+02 -0.99355414232E+02 -0.21154492003E+03  0.24213744060E+03  0.47000000000E+01 0. -1.
        -11    1    4    4    0    0 -0.25234913732E+02 -0.70672878439E+01 -0.39041776078E+02  0.47021353743E+02  0.00000000000E+00 0.  1.
         12    1    4    4    0    0  0.54249497705E+02  0.37406232045E+02 -0.79109306373E+02  0.10295880998E+03  0.00000000000E+00 0. -1.
         -5    1    5    5    0  501  0.20923817638E+02 -0.30814258435E+02 -0.21544912771E+03  0.21869554476E+03  0.47000000000E+01 0.  1.
         13    1    6    6    0    0 -0.12024759384E+03  0.70079177648E+02 -0.72086151089E+03  0.73417429324E+03  0.00000000000E+00 0. -1.
        -14    1    6    6    0    0  0.71768026899E+01  0.29751550818E+02 -0.20221347883E+03  0.20451638637E+03  0.00000000000E+00 0.  1.
</event>
<event>
12    1  0.1345781E-002  0.3939022E+03  0.7818608E-02  0.1045912E+00
          1   -1    0    0  502    0  0.00000000000E+00  0.00000000000E+00  0.21732679445E+04  0.21732679445E+04  0.00000000000E+00 0.  1.
         -1   -1    0    0    0  501 -0.00000000000E+00 -0.00000000000E+00 -0.71860557386E+02  0.71860557386E+02  0.00000000000E+00 0. -1.
          6    2    1    2  502    0 -0.29450688188E+03  0.19728196129E+03  0.11417559956E+04  0.12078717610E+04  0.17231645843E+03 0.  0.
         24    2    3    3    0    0 -0.81295770211E+02  0.66764603803E+02  0.51967965921E+03  0.53742801465E+03  0.87723475535E+02 0.  0.
         -6    2    1    2    0  501  0.29450688188E+03 -0.19728196129E+03  0.95965139151E+03  0.10372567409E+04  0.17121996823E+03 0.  0.
        -24    2    5    5    0    0  0.13808667760E+03 -0.64916792375E+02  0.59026957333E+03  0.61481995761E+03  0.79393265519E+02 0.  0.
          5    1    3    3  502    0 -0.21321111167E+03  0.13051735749E+03  0.62207633641E+03  0.67044374638E+03  0.47000000000E+01 0. -1.
        -13    1    4    4    0    0 -0.78353627841E+02  0.55633157951E+02  0.25512044864E+03  0.27261838267E+03  0.00000000000E+00 0.  1.
         14    1    4    4    0    0 -0.29421423708E+01  0.11131445852E+02  0.26455921057E+03  0.26480963197E+03  0.00000000000E+00 0. -1.
         -5    1    5    5    0  501  0.15642020427E+03 -0.13236516892E+03  0.36938181818E+03  0.42243678326E+03  0.47000000000E+01 0.  1.
         13    1    6    6    0    0  0.11393793917E+03 -0.29875800157E+02  0.31543338286E+03  0.33670853336E+03  0.00000000000E+00 0. -1.
        -14    1    6    6    0    0  0.24148738436E+02 -0.35040992218E+02  0.27483619047E+03  0.27811142425E+03  0.00000000000E+00 0.  1.
</event>
<event>
12    1  0.1345781E-002  0.2205090E+03  0.7818608E-02  0.1133504E+00
          2   -1    0    0  502    0  0.00000000000E+00  0.00000000000E+00  0.82322072400E+03  0.82322072400E+03  0.00000000000E+00 0. -1.
         -2   -1    0    0    0  501 -0.00000000000E+00 -0.00000000000E+00 -0.59789445089E+02  0.59789445089E+02  0.00000000000E+00 0.  1.
          6    2    1    2  502    0 -0.11595159479E+03 -0.72525731363E+02  0.33188196041E+03  0.39804442406E+03  0.17201445822E+03 0.  0.
         24    2    3    3    0    0 -0.30788614655E+02 -0.53743904696E+02  0.72290524949E+02  0.12415522463E+03  0.79701027108E+02 0.  0.
         -6    2    1    2    0  501  0.11595159479E+03  0.72525731363E+02  0.43154931851E+03  0.48496574504E+03  0.17393161158E+03 0.  0.
        -24    2    5    5    0    0  0.81454944591E+02  0.17040884090E+02  0.12519020434E+03  0.17168219298E+03  0.82927006431E+02 0.  0.
          5    1    3    3  502    0 -0.85162980138E+02 -0.18781826666E+02  0.25959143546E+03  0.27388919943E+03  0.47000000000E+01 0. -1.
        -11    1    4    4    0    0 -0.33890457260E+02  0.29369946760E+01  0.55257761302E+02  0.64889207232E+02  0.00000000000E+00 0.  1.
         12    1    4    4    0    0  0.31018426053E+01 -0.56680899372E+02  0.17032763647E+02  0.59266017402E+02  0.00000000000E+00 0. -1.
         -5    1    5    5    0  501  0.34496650202E+02  0.55484847272E+02  0.30635911417E+03  0.31328355206E+03  0.47000000000E+01 0.  1.
         11    1    6    6    0    0 -0.14435028784E+02  0.16033630137E+02  0.22003734600E+02  0.30815770114E+02  0.00000000000E+00 0. -1.
        -12    1    6    6    0    0  0.95889973375E+02  0.10072539534E+01  0.10318646974E+03  0.14086642287E+03  0.00000000000E+00 0.  1.
</event>
<event>
12    1  0.1345781E-002  0.2508374E+03  0.7818608E-02  0.1112777E+00
          2   -1    0    0  502    0  0.00000000000E+00  0.00000000000E+00  0.39053431133E+04  0.39053431133E+04  0.00000000000E+00 0.  1.
         -2   -1    0    0    0  501 -0.00000000000E+00 -0.00000000000E+00 -0.22256818545E+02  0.22256818545E+02  0.00000000000E+00 0. -1.
          6    2    1    2  502    0  0.86382454991E+02 -0.16102361840E+03  0.91105188475E+03  0.94502065868E+03  0.17221490762E+03 0.  0.
         24    2    3    3    0    0  0.99344312675E+02 -0.17719944394E+03  0.70285958627E+03  0.73574622108E+03  0.77730099832E+02 0.  0.
         -6    2    1    2    0  501 -0.86382454991E+02  0.16102361840E+03  0.29720344100E+04  0.29825792731E+04  0.17146443443E+03 0.  0.
        -24    2    5    5    0    0 -0.10518438749E+03  0.15531763000E+03  0.19979750215E+04  0.20083103918E+04  0.78861406971E+02 0.  0.
          5    1    3    3  502    0 -0.12961857684E+02  0.16175825546E+02  0.20819229848E+03  0.20927443760E+03  0.47000000000E+01 0. -1.
        -11    1    4    4    0    0  0.54546685836E+02 -0.44114823010E+02  0.32873168751E+03  0.33613387350E+03  0.00000000000E+00 0.  1.
         12    1    4    4    0    0  0.44797626839E+02 -0.13308462093E+03  0.37412789877E+03  0.39961234758E+03  0.00000000000E+00 0. -1.
         -5    1    5    5    0  501  0.18801932502E+02  0.57059883947E+01  0.97405938846E+03  0.97426888138E+03  0.47000000000E+01 0.  1.
         13    1    6    6    0    0 -0.48931678877E+02  0.13726704661E+02  0.45332053498E+03  0.45616032166E+03  0.00000000000E+00 0. -1.
        -14    1    6    6    0    0 -0.56252708616E+02  0.14159092534E+03  0.15446544865E+04  0.15521500701E+04  0.00000000000E+00 0.  1.
</event>
<event>
12    1  0.1345781E-002  0.1851392E+03  0.7818608E-02  0.1162920E+00
         -2   -1    0    0    0  501 -0.00000000000E+00  0.00000000000E+00  0.35422763557E+02  0.35422763557E+02  0.00000000000E+00 0.  1.
          2   -1    0    0  502    0  0.00000000000E+00 -0.00000000000E+00 -0.10355806149E+04  0.10355806149E+04  0.00000000000E+00 0. -1.
          6    2    1    2  502    0  0.22096914176E+02  0.64527711906E+02 -0.63693104734E+03  0.66325903630E+03  0.17198631036E+03 0.  0.
         24    2    3    3    0    0  0.50094686262E+02  0.98602186288E+02 -0.53798086538E+03  0.55482392411E+03  0.78576755587E+02 0.  0.
         -6    2    1    2    0  501 -0.22096914176E+02 -0.64527711906E+02 -0.36322680399E+03  0.40774434214E+03  0.17224876833E+03 0.  0.
        -24    2    5    5    0    0 -0.66039348948E+02 -0.45537951121E+01 -0.26301077665E+03  0.28287180551E+03  0.80373235950E+02 0.  0.
          5    1    3    3  502    0 -0.27997772086E+02 -0.34074474382E+02 -0.98950181955E+02  0.10843511219E+03  0.47000000000E+01 0. -1.
        -11    1    4    4    0    0  0.23545573172E+02  0.15749452232E+01 -0.37302700640E+02  0.44140298408E+02  0.00000000000E+00 0.  1.
         12    1    4    4    0    0  0.26549113090E+02  0.97027241065E+02 -0.50067816474E+03  0.51068362570E+03  0.00000000000E+00 0. -1.
         -5    1    5    5    0  501  0.43942434773E+02 -0.59973916794E+02 -0.10021602734E+03  0.12487253663E+03  0.47000000000E+01 0.  1.
         11    1    6    6    0    0 -0.23695890182E+01  0.30855900913E+02 -0.68547198134E+02  0.75209174609E+02  0.00000000000E+00 0. -1.
        -12    1    6    6    0    0 -0.63669759930E+02 -0.35409696025E+02 -0.19446357852E+03  0.20766263090E+03  0.00000000000E+00 0.  1.
</event>
<event>
12    1  0.1345781E-002  0.3100456E+03  0.7818608E-02  0.1080324E+00
          2   -1    0    0  502    0  0.00000000000E+00  0.00000000000E+00  0.10917556651E+04  0.10917556651E+04  0.00000000000E+00 0. -1.
         -2   -1    0    0    0  501 -0.00000000000E+00 -0.00000000000E+00 -0.14635256445E+03  0.14635256445E+03  0.00000000000E+00 0.  1.
          6    2    1    2  502    0  0.12088140871E+03 -0.22780907652E+03  0.81823867844E+02  0.32050354504E+03  0.17180828479E+03 0.  0.
         24    2    3    3    0    0  0.14768872422E+03 -0.20921011200E+03  0.46268839149E+02  0.27201845753E+03  0.79198519774E+02 0.  0.
         -6    2    1    2    0  501 -0.12088140871E+03  0.22780907652E+03  0.86357923277E+03  0.91760468447E+03  0.17239482407E+03 0.  0.
        -24    2    5    5    0    0 -0.13390334305E+03  0.22723899294E+03  0.67959034004E+03  0.73309479742E+03  0.77571170765E+02 0.  0.
          5    1    3    3  502    0 -0.26807315510E+02 -0.18598964513E+02  0.35555028694E+02  0.48485087514E+02  0.47000000000E+01 0. -1.
        -11    1    4    4    0    0  0.64100926525E+02 -0.12692839891E+03  0.59178673973E+02  0.15401903351E+03  0.00000000000E+00 0.  1.
         12    1    4    4    0    0  0.83587797694E+02 -0.82281713096E+02 -0.12909834824E+02  0.11799942402E+03  0.00000000000E+00 0. -1.
         -5    1    5    5    0  501  0.13021934346E+02  0.57008357670E+00  0.18398889273E+03  0.18450988705E+03  0.47000000000E+01 0.  1.
         11    1    6    6    0    0 -0.57586683902E+02  0.37067225555E+02  0.20562621141E+03  0.21673104114E+03  0.00000000000E+00 0. -1.
        -12    1    6    6    0    0 -0.76316659153E+02  0.19017176738E+03  0.47396412862E+03  0.51636375628E+03  0.00000000000E+00 0.  1.
</event>
<event>
12    1  0.1345781E-002  0.1770343E+03  0.7818608E-02  0.1170705E+00
          2   -1    0    0  502    0  0.00000000000E+00  0.00000000000E+00  0.30466067242E+03  0.30466067242E+03  0.00000000000E+00 0. -1.
         -2   -1    0    0    0  501 -0.00000000000E+00 -0.00000000000E+00 -0.11855766038E+03  0.11855766038E+03  0.00000000000E+00 0.  1.
          6    2    1    2  502    0  0.29231336409E+02 -0.26368182972E+02  0.18152539182E+02  0.18217786482E+03  0.17694492829E+03 0.  0.
         24    2    3    3    0    0  0.53293141778E+02 -0.59583773787E+02  0.56378069987E+02  0.12591484716E+03  0.79282260942E+02 0.  0.
         -6    2    1    2    0  501 -0.29231336409E+02  0.26368182972E+02  0.16795047286E+03  0.24104046799E+03  0.16835496362E+03 0.  0.
        -24    2    5    5    0    0  0.22103722339E+02 -0.22704340680E+02  0.13187836354E+03  0.16124894021E+03  0.87208120748E+02 0.  0.
          5    1    3    3  502    0 -0.24061805369E+02  0.33215590815E+02 -0.38225530804E+02  0.56263017659E+02  0.47000000000E+01 0. -1.
        -13    1    4    4    0    0  0.21034254225E+02 -0.15734187532E+01 -0.16911283501E+02  0.27035291880E+02  0.00000000000E+00 0.  1.
         14    1    4    4    0    0  0.32258887553E+02 -0.58010355034E+02  0.73289353488E+02  0.98879555278E+02  0.00000000000E+00 0. -1.
         -5    1    5    5    0  501 -0.51335058748E+02  0.49072523652E+02  0.36072109320E+02  0.79791527778E+02  0.47000000000E+01 0.  1.
         11    1    6    6    0    0  0.53495130619E+02  0.86354696232E+00  0.74020700479E+02  0.91332025121E+02  0.00000000000E+00 0. -1.
        -12    1    6    6    0    0 -0.31391408280E+02 -0.23567887642E+02  0.57857663058E+02  0.69916915094E+02  0.00000000000E+00 0.  1.
</event>
<event>
12    1  0.1345781E-002  0.2722781E+03  0.7818608E-02  0.1099983E+00
         -1   -1    0    0    0  501 -0.00000000000E+00  0.00000000000E+00  0.73632808055E+02  0.73632808055E+02  0.00000000000E+00 0.  1.
          1   -1    0    0  502    0  0.00000000000E+00 -0.00000000000E+00 -0.20376763085E+04  0.20376763085E+04  0.00000000000E+00 0. -1.
          6    2    1    2  502    0  0.13618343365E+03  0.15938401004E+03 -0.17331668208E+04  0.17544496053E+04  0.17400286990E+03 0.  0.
         24    2    3    3    0    0  0.19320782312E+02  0.11628015394E+03 -0.73584073162E+03  0.74936441500E+03  0.78683399377E+02 0.  0.
         -6    2    1    2    0  501 -0.13618343365E+03 -0.15938401004E+03 -0.23087667962E+03  0.35685951118E+03  0.17348048672E+03 0.  0.
        -24    2    5    5    0    0 -0.46829390508E+00 -0.40743632805E+02 -0.55758534635E+02  0.10549803250E+03  0.79753105033E+02 0.  0.
          5    1    3    3  502    0  0.11686265134E+03  0.43103856093E+02 -0.99732608918E+03  0.10050851903E+04  0.47000000000E+01 0. -1.
        -11    1    4    4    0    0  0.22474703497E+02  0.97110791321E+01 -0.28668059448E+03  0.28772413977E+03  0.00000000000E+00 0.  1.
         12    1    4    4    0    0 -0.31539211851E+01  0.10656907481E+03 -0.44916013713E+03  0.46164027523E+03  0.00000000000E+00 0. -1.
         -5    1    5    5    0  501 -0.13571513974E+03 -0.11864037723E+03 -0.17511814499E+03  0.25136147869E+03  0.47000000000E+01 0.  1.
         13    1    6    6    0    0  0.27265268418E+02 -0.34308744974E+02 -0.62411611875E+02  0.76260698531E+02  0.00000000000E+00 0. -1.
        -14    1    6    6    0    0 -0.27733562323E+02 -0.64348878312E+01  0.66530772407E+01  0.29237333964E+02  0.00000000000E+00 0.  1.
</event>
<event>
12    1  0.1345781E-002  0.2282345E+03  0.7818608E-02  0.1127889E+00
          2   -1    0    0  502    0  0.00000000000E+00  0.00000000000E+00  0.30937169223E+04  0.30937169223E+04  0.00000000000E+00 0.  1.
         -2   -1    0    0    0  501 -0.00000000000E+00 -0.00000000000E+00 -0.19473364030E+02  0.19473364030E+02  0.00000000000E+00 0. -1.
          6    2    1    2  502    0 -0.17273800658E+02  0.14767823538E+03  0.21107427560E+04  0.21230640046E+04  0.17337398980E+03 0.  0.
         24    2    3    3    0    0 -0.26568604724E+01  0.16520502816E+03  0.14087800718E+04  0.14207147017E+04  0.80431414872E+02 0.  0.
         -6    2    1    2    0  501  0.17273800658E+02 -0.14767823538E+03  0.96350080234E+03  0.99012628177E+03  0.17294222259E+03 0.  0.
        -24    2    5    5    0    0  0.75226617771E+02 -0.67961976600E+02  0.54818806059E+03  0.56325396552E+03  0.80417694659E+02 0.  0.
          5    1    3    3  502    0 -0.14616940186E+02 -0.17526792785E+02  0.70196268416E+03  0.70234930295E+03  0.47000000000E+01 0. -1.
        -11    1    4    4    0    0  0.20753491513E+02  0.46701756261E+01  0.18897364360E+03  0.19016717889E+03  0.00000000000E+00 0.  1.
         12    1    4    4    0    0 -0.23410351986E+02  0.16053485254E+03  0.12198064282E+04  0.12305475228E+04  0.00000000000E+00 0. -1.
         -5    1    5    5    0  501 -0.57952817113E+02 -0.79716258778E+02  0.41531274175E+03  0.42687231625E+03  0.47000000000E+01 0.  1.
         13    1    6    6    0    0  0.40128166782E+02 -0.80742613130E+02  0.34060945271E+03  0.35234136661E+03  0.00000000000E+00 0. -1.
        -14    1    6    6    0    0  0.35098450989E+02  0.12780636530E+02  0.20757860788E+03  0.21091259891E+03  0.00000000000E+00 0.  1.
</event>
<event>
12    1  0.1345781E-002  0.2569653E+03  0.7818608E-02  0.1108980E+00
          2   -1    0    0  502    0  0.00000000000E+00  0.00000000000E+00  0.18973649970E+04  0.18973649970E+04  0.00000000000E+00 0. -1.
         -2   -1    0    0    0  501 -0.00000000000E+00 -0.00000000000E+00 -0.47634570716E+02  0.47634570716E+02  0.00000000000E+00 0.  1.
          6    2    1    2  502    0  0.60231360147E+01  0.18957686710E+03  0.14275551657E+04  0.14503590178E+04  0.17219716269E+03 0.  0.
         24    2    3    3    0    0 -0.63233753385E+02  0.12593184065E+03  0.92196890486E+03  0.93607625198E+03  0.79716697986E+02 0.  0.
         -6    2    1    2    0  501 -0.60231360147E+01 -0.18957686710E+03  0.42217526060E+03  0.49464054988E+03  0.17453267951E+03 0.  0.
        -24    2    5    5    0    0 -0.60464761903E+02 -0.15785279490E+03  0.25719666847E+03  0.31797608472E+03  0.79907270618E+02 0.  0.
          5    1    3    3  502    0  0.69256889400E+02  0.63645026446E+02  0.50558626081E+03  0.51428276584E+03  0.47000000000E+01 0. -1.
        -11    1    4    4    0    0 -0.11320452750E+02  0.36443986843E+02  0.90798649634E+02  0.98492190567E+02  0.00000000000E+00 0.  1.
         12    1    4    4    0    0 -0.51913300635E+02  0.89487853812E+02  0.83117025522E+03  0.83758406141E+03  0.00000000000E+00 0. -1.
         -5    1    5    5    0  501  0.54441625888E+02 -0.31724072204E+02  0.16497859213E+03  0.17666446515E+03  0.47000000000E+01 0.  1.
         13    1    6    6    0    0  0.12444107250E+02 -0.23533588696E+01  0.34474597929E+02  0.36727265153E+02  0.00000000000E+00 0. -1.
        -14    1    6    6    0    0 -0.72908869154E+02 -0.15549943603E+03  0.22272207054E+03  0.28124881957E+03  0.00000000000E+00 0.  1.
</event>
<event>
12    1  0.1345781E-002  0.1756124E+03  0.7818608E-02  0.1172118E+00
         -1   -1    0    0    0  501 -0.00000000000E+00  0.00000000000E+00  0.31684784740E+02  0.31684784740E+02  0.00000000000E+00 0.  1.
          1   -1    0    0  502    0  0.00000000000E+00 -0.00000000000E+00 -0.11618845425E+04  0.11618845425E+04  0.00000000000E+00 0. -1.
          6    2    1    2  502    0 -0.35936942749E+02  0.79285440029E+01 -0.80555759074E+03  0.82448087948E+03  0.17173049514E+03 0.  0.
         24    2    3    3    0    0 -0.22359469192E+02  0.45556499358E+02 -0.74270390133E+03  0.74982910733E+03  0.89773407262E+02 0.  0.
         -6    2    1    2    0  501  0.35936942749E+02 -0.79285440029E+01 -0.32464216705E+03  0.36908844779E+03  0.17169571923E+03 0.  0.
        -24    2    5    5    0    0  0.68074921054E+02  0.42009821206E+02 -0.23818330339E+03  0.26409361423E+03  0.81333456275E+02 0.  0.
          5    1    3    3  502    0 -0.13577473557E+02 -0.37627955356E+02 -0.62853689417E+02  0.74651772154E+02  0.47000000000E+01 0. -1.
        -11    1    4    4    0    0 -0.95212079212E+01 -0.15781800598E+02 -0.45527335094E+03  0.45564629123E+03  0.00000000000E+00 0.  1.
         12    1    4    4    0    0 -0.12838261271E+02  0.61338299957E+02 -0.28743055039E+03  0.29418281610E+03  0.00000000000E+00 0. -1.
         -5    1    5    5    0  501 -0.32137978305E+02 -0.49938365209E+02 -0.86458863652E+02  0.10499483356E+03  0.47000000000E+01 0.  1.
         13    1    6    6    0    0 -0.62582426540E+01 -0.16627517938E+02 -0.56411469579E+02  0.59142994970E+02  0.00000000000E+00 0. -1.
        -14    1    6    6    0    0  0.74333163708E+02  0.58637339144E+02 -0.18177183381E+03  0.20495061927E+03  0.00000000000E+00 0.  1.
</event>
<event>
12    1  0.1345781E-002  0.1721887E+03  0.7818608E-02  0.1175584E+00
         -1   -1    0    0    0  501 -0.00000000000E+00  0.00000000000E+00  0.36503704771E+02  0.36503704771E+02  0.00000000000E+00 0.  1.
          1   -1    0    0  502    0  0.00000000000E+00 -0.00000000000E+00 -0.89423619132E+03  0.89423619132E+03  0.00000000000E+00 0. -1.
          6    2    1    2  502    0  0.10820906758E+02 -0.14702978977E+02 -0.56588253565E+03  0.59100939079E+03  0.16951633029E+03 0.  0.
         24    2    3    3    0    0  0.14873077036E+01  0.12353514305E+02 -0.12765628572E+03  0.15182434320E+03  0.81238429970E+02 0.  0.
         -6    2    1    2    0  501 -0.10820906758E+02  0.14702978977E+02 -0.29184995090E+03  0.33973050530E+03  0.17293684621E+03 0.  0.
        -24    2    5    5    0    0 -0.20364455337E+02  0.66765200851E+02 -0.25202100946E+03  0.27332275845E+03  0.79488602898E+02 0.  0.
          5    1    3    3  502    0  0.93335990539E+01 -0.27056493282E+02 -0.43822624994E+03  0.43918504760E+03  0.47000000000E+01 0. -1.
        -13    1    4    4    0    0 -0.23488022803E+02 -0.25848699268E+02 -0.40810224465E+02  0.53715145815E+02  0.00000000000E+00 0.  1.
         14    1    4    4    0    0  0.24975330506E+02  0.38202213573E+02 -0.86846061254E+02  0.98109197383E+02  0.00000000000E+00 0. -1.
         -5    1    5    5    0  501  0.95435485796E+01 -0.52062221874E+02 -0.39828941440E+02  0.66407746854E+02  0.47000000000E+01 0.  1.
         13    1    6    6    0    0 -0.44010179905E+02  0.11899218598E+02 -0.12172110848E+03  0.12997890440E+03  0.00000000000E+00 0. -1.
        -14    1    6    6    0    0  0.23645724568E+02  0.54865982254E+02 -0.13029990098E+03  0.14334385405E+03  0.00000000000E+00 0.  1.
</event>
<event>
12    1  0.1345781E-002  0.2627338E+03  0.7818608E-02  0.1105512E+00
          1   -1    0    0  502    0  0.00000000000E+00  0.00000000000E+00  0.33397850552E+03  0.33397850552E+03  0.00000000000E+00 0. -1.
         -1   -1    0    0    0  501 -0.00000000000E+00 -0.00000000000E+00 -0.20785800999E+03  0.20785800999E+03  0.00000000000E+00 0.  1.
          6    2    1    2  502    0  0.19428840481E+03 -0.44056300368E+02  0.83404314573E+02  0.27569508011E+03  0.17135505729E+03 0.  0.
         24    2    3    3    0    0  0.80661664080E+02  0.18067832949E+02 -0.98455708661E+01  0.11604522798E+03  0.80850535137E+02 0.  0.
         -6    2    1    2    0  501 -0.19428840481E+03  0.44056300368E+02  0.42716180958E+02  0.26614143539E+03  0.17122397516E+03 0.  0.
        -24    2    5    5    0    0 -0.10662559140E+03  0.91617608854E+02  0.36374215775E+02  0.16609565866E+03  0.80634243703E+02 0.  0.
          5    1    3    3  502    0  0.11362674073E+03 -0.62124133317E+02  0.93249885439E+02  0.15964985213E+03  0.47000000000E+01 0. -1.
        -11    1    4    4    0    0  0.72262376032E+02 -0.15838963438E+02 -0.24832345368E+02  0.78034409904E+02  0.00000000000E+00 0.  1.
         12    1    4    4    0    0  0.83992880478E+01  0.33906796387E+02  0.14986774502E+02  0.38010818077E+02  0.00000000000E+00 0. -1.
         -5    1    5    5    0  501 -0.87662813412E+02 -0.47561308486E+02  0.63419651836E+01  0.10004577674E+03  0.47000000000E+01 0.  1.
         11    1    6    6    0    0 -0.31409120263E+02 -0.11672212523E+02  0.14285858101E+02  0.36426077508E+02  0.00000000000E+00 0. -1.
        -12    1    6    6    0    0 -0.75216471138E+02  0.10328982138E+03  0.22088357674E+02  0.12966958115E+03  0.00000000000E+00 0.  1.
</event>
<event>
12    1  0.1345781E-002  0.1812148E+03  0.7818608E-02  0.1166633E+00
         -2   -1    0    0    0  501 -0.00000000000E+00  0.00000000000E+00  0.36049399300E+03  0.36049399300E+03  0.00000000000E+00 0. -1.
          2   -1    0    0  502    0  0.00000000000E+00 -0.00000000000E+00 -0.12209257870E+03  0.12209257870E+03  0.00000000000E+00 0.  1.
          6    2    1    2  502    0 -0.48665827398E+02 -0.27246698695E+02  0.24080871775E+03  0.30140716620E+03  0.17247230487E+03 0.  0.
         24    2    3    3    0    0 -0.76055280283E+02 -0.51672111785E+02  0.23455453130E+03  0.26388400292E+03  0.78514495799E+02 0.  0.
         -6    2    1    2    0  501  0.48665827398E+02  0.27246698695E+02 -0.24073034459E+01  0.18117940551E+03  0.17236425536E+03 0.  0.
        -24    2    5    5    0    0  0.56432075938E+02  0.20414286888E+02  0.60933858966E+02  0.11682733232E+03  0.79588743584E+02 0.  0.
          5    1    3    3  502    0  0.27389452885E+02  0.24425413091E+02  0.62541864458E+01  0.37523163274E+02  0.47000000000E+01 0. -1.
        -13    1    4    4    0    0  0.89347939610E+01 -0.82768375669E+01  0.89044446415E+02  0.89873522355E+02  0.00000000000E+00 0.  1.
         14    1    4    4    0    0 -0.84990074244E+02 -0.43395274219E+02  0.14551008488E+03  0.17401048057E+03  0.00000000000E+00 0. -1.
         -5    1    5    5    0  501 -0.77662485400E+01  0.68324118066E+01 -0.63341162412E+02  0.64352073185E+02  0.47000000000E+01 0.  1.
         13    1    6    6    0    0  0.67475381804E+02 -0.77260856786E+01  0.32364361737E+02  0.75233446419E+02  0.00000000000E+00 0. -1.
        -14    1    6    6    0    0 -0.11043305865E+02  0.28140372567E+02  0.28569497230E+02  0.41593885904E+02  0.00000000000E+00 0.  1.
</event>
<event>
12    1  0.1345781E-002  0.9068683E+03  0.7818608E-02  0.9417036E-01
          1   -1    0    0  502    0  0.00000000000E+00  0.00000000000E+00  0.36954222859E+03  0.36954222859E+03  0.00000000000E+00 0. -1.
         -1   -1    0    0    0  501 -0.00000000000E+00 -0.00000000000E+00 -0.24551256918E+04  0.24551256918E+04  0.00000000000E+00 0.  1.
          6    2    1    2  502    0  0.85940232588E+03 -0.23385243515E+03 -0.14749376256E+04  0.17315322998E+04  0.17176666401E+03 0.  0.
         24    2    3    3    0    0  0.65111606719E+03 -0.14592284695E+03 -0.12023025743E+04  0.13773194553E+04  0.78941697448E+02 0.  0.
         -6    2    1    2    0  501 -0.85940232588E+03  0.23385243515E+03 -0.61064583763E+03  0.10931356205E+04  0.16969922437E+03 0.  0.
        -24    2    5    5    0    0 -0.84515449389E+03  0.21361174161E+03 -0.61177061679E+03  0.10679157570E+04  0.79149742228E+02 0.  0.
          5    1    3    3  502    0  0.20828625869E+03 -0.87929588199E+02 -0.27263505129E+03  0.35421284453E+03  0.47000000000E+01 0. -1.
        -11    1    4    4    0    0  0.20721445423E+03 -0.72417681822E+02 -0.45115542208E+03  0.50172040576E+03  0.00000000000E+00 0.  1.
         12    1    4    4    0    0  0.44390161296E+03 -0.73505165131E+02 -0.75114715218E+03  0.87559904951E+03  0.00000000000E+00 0. -1.
         -5    1    5    5    0  501 -0.14247831989E+02  0.20240693544E+02  0.11247791621E+01  0.25219863594E+02  0.47000000000E+01 0.  1.
         13    1    6    6    0    0 -0.45615306153E+03  0.88289535762E+02 -0.28930845872E+03  0.54732992058E+03  0.00000000000E+00 0. -1.
        -14    1    6    6    0    0 -0.38900143235E+03  0.12532220585E+03 -0.32246215806E+03  0.52058583638E+03  0.00000000000E+00 0.  1.
</event>
<event>
12    1  0.1345781E-002  0.1802367E+03  0.7818608E-02  0.1167574E+00
          2   -1    0    0  502    0  0.00000000000E+00  0.00000000000E+00  0.15562958754E+03  0.15562958754E+03  0.00000000000E+00 0. -1.
         -2   -1    0    0    0  501 -0.00000000000E+00 -0.00000000000E+00 -0.23249767376E+03  0.23249767376E+03  0.00000000000E+00 0.  1.
          6    2    1    2  502    0 -0.54493579316E+02 -0.16728864783E+02  0.23444897413E+02  0.18257084013E+03  0.17185180635E+03 0.  0.
         24    2    3    3    0    0  0.34024102125E+02 -0.11017079340E+02 -0.54787011956E+01  0.89154198265E+02  0.81482754856E+02 0.  0.
         -6    2    1    2    0  501  0.54493579316E+02  0.16728864783E+02 -0.10031298364E+03  0.20555642117E+03  0.17012155212E+03 0.  0.
        -24    2    5    5    0    0  0.70247459470E+02 -0.40044203530E+02 -0.39070477513E+02  0.12044413897E+03  0.80262348583E+02 0.  0.
          5    1    3    3  502    0 -0.88517681441E+02 -0.57117854432E+01  0.28923598609E+02  0.93416641864E+02  0.47000000000E+01 0. -1.
        -11    1    4    4    0    0  0.23498800798E+02 -0.26850955880E+01  0.37384520417E+02  0.44238057644E+02  0.00000000000E+00 0.  1.
         12    1    4    4    0    0  0.10525301327E+02 -0.83319837521E+01 -0.42863221613E+02  0.44916140621E+02  0.00000000000E+00 0. -1.
         -5    1    5    5    0  501 -0.15753880155E+02  0.56773068314E+02 -0.61242506122E+02  0.85112282203E+02  0.47000000000E+01 0.  1.
         13    1    6    6    0    0  0.55820863357E+02 -0.77947126760E+01 -0.57567899933E+02  0.80565435730E+02  0.00000000000E+00 0. -1.
        -14    1    6    6    0    0  0.14426596113E+02 -0.32249490854E+02  0.18497422419E+02  0.39878703238E+02  0.00000000000E+00 0.  1.
</event>
<event>
12    1  0.1345781E-002  0.1923006E+03  0.7818608E-02  0.1156403E+00
         -2   -1    0    0    0  501 -0.00000000000E+00  0.00000000000E+00  0.79168665373E+02  0.79168665373E+02  0.00000000000E+00 0.  1.
          2   -1    0    0  502    0  0.00000000000E+00 -0.00000000000E+00 -0.49443813014E+03  0.49443813014E+03  0.00000000000E+00 0. -1.
          6    2    1    2  502    0 -0.79772450332E+02  0.33037056881E+02 -0.13994418877E+03  0.23763370355E+03  0.17155264537E+03 0.  0.
         24    2    3    3    0    0 -0.10333374174E+03  0.57843753495E+02 -0.68324441442E+02  0.15812279325E+03  0.79440710266E+02 0.  0.
         -6    2    1    2    0  501  0.79772450332E+02 -0.33037056881E+02 -0.27532527599E+03  0.33597309196E+03  0.17210119104E+03 0.  0.
        -24    2    5    5    0    0  0.43569942710E+02  0.10982446422E+02 -0.45519235649E+02  0.99158302705E+02  0.75772119834E+02 0.  0.
          5    1    3    3  502    0  0.23561291406E+02 -0.24806696614E+02 -0.71619747329E+02  0.79510910302E+02  0.47000000000E+01 0. -1.
        -11    1    4    4    0    0 -0.16700860185E+02  0.19776392525E+02  0.16785678060E+02  0.30850987345E+02  0.00000000000E+00 0.  1.
         12    1    4    4    0    0 -0.86632881553E+02  0.38067360970E+02 -0.85110119502E+02  0.12727180591E+03  0.00000000000E+00 0. -1.
         -5    1    5    5    0  501  0.36202507622E+02 -0.44019503303E+02 -0.22980604034E+03  0.23681478925E+03  0.47000000000E+01 0.  1.
         11    1    6    6    0    0 -0.16746524560E+02  0.13679176671E+02 -0.29710669021E+02  0.36746289784E+02  0.00000000000E+00 0. -1.
        -12    1    6    6    0    0  0.60316467270E+02 -0.26967302491E+01 -0.15808566628E+02  0.62412012920E+02  0.00000000000E+00 0.  1.
</event>
<event>
12    1  0.1345781E-002  0.3130571E+03  0.7818608E-02  0.1078890E+00
          2   -1    0    0  502    0  0.00000000000E+00  0.00000000000E+00  0.17982819695E+04  0.17982819695E+04  0.00000000000E+00 0.  1.
         -2   -1    0    0    0  501 -0.00000000000E+00 -0.00000000000E+00 -0.54697655952E+02  0.54697655952E+02  0.00000000000E+00 0. -1.
          6    2    1    2  502    0 -0.25981728775E+03  0.43824066004E+02  0.92387341720E+03  0.97505731397E+03  0.16664063953E+03 0.  0.
         24    2    3    3    0    0 -0.65796746870E+02  0.20837570691E+02  0.45379312727E+03  0.46596997546E+03  0.80227173844E+02 0.  0.
         -6    2    1    2    0  501  0.25981728775E+03 -0.43824066004E+02  0.81971089634E+03  0.87792231147E+03  0.17145279127E+03 0.  0.
        -24    2    5    5    0    0  0.25385429496E+03  0.14185393301E+01  0.72029719000E+03  0.76843429556E+03  0.84965930528E+02 0.  0.
          5    1    3    3  502    0 -0.19402054088E+03  0.22986495314E+02  0.47008028992E+03  0.50908733850E+03  0.47000000000E+01 0. -1.
        -13    1    4    4    0    0 -0.57635549960E+02 -0.13487511135E+02  0.37493685708E+03  0.37958057955E+03  0.00000000000E+00 0.  1.
         14    1    4    4    0    0 -0.81611969093E+01  0.34325081826E+02  0.78856270192E+02  0.86389395911E+02  0.00000000000E+00 0. -1.
         -5    1    5    5    0  501  0.59629927900E+01 -0.45242605334E+02  0.99413706337E+02  0.10948801591E+03  0.47000000000E+01 0.  1.
         13    1    6    6    0    0  0.81782103713E+02 -0.36839567398E+02  0.20316563388E+03  0.22208498599E+03  0.00000000000E+00 0. -1.
        -14    1    6    6    0    0  0.17207219124E+03  0.38258106728E+02  0.51713155612E+03  0.54634930957E+03  0.00000000000E+00 0.  1.
</event>
<event>
12    1  0.1345781E-002  0.1948565E+03  0.7818608E-02  0.1154153E+00
          2   -1    0    0  502    0  0.00000000000E+00  0.00000000000E+00  0.98531341147E+02  0.98531341147E+02  0.00000000000E+00 0. -1.
         -2   -1    0    0    0  501 -0.00000000000E+00 -0.00000000000E+00 -0.47237037359E+03  0.47237037359E+03  0.00000000000E+00 0.  1.
          6    2    1    2  502    0  0.68235787948E+01  0.91480866191E+02 -0.30999417695E+03  0.36653202670E+03  0.17272529272E+03 0.  0.
         24    2    3    3    0    0  0.63283500529E+02  0.36222767315E+02 -0.12381929846E+03  0.16423433606E+03  0.79528662510E+02 0.  0.
         -6    2    1    2    0  501 -0.68235787948E+01 -0.91480866191E+02 -0.63844855491E+02  0.20436968804E+03  0.17110082907E+03 0.  0.
        -24    2    5    5    0    0 -0.44182175443E+02 -0.42237045137E+02  0.17222903347E+02  0.10231729866E+03  0.80225735246E+02 0.  0.
          5    1    3    3  502    0 -0.56459921734E+02  0.55258098876E+02 -0.18617487849E+03  0.20229769063E+03  0.47000000000E+01 0. -1.
        -11    1    4    4    0    0  0.54179391384E+02  0.58695419233E+02 -0.11115493055E+03  0.13687942605E+03  0.00000000000E+00 0.  1.
         12    1    4    4    0    0  0.91041091454E+01 -0.22472651917E+02 -0.12664367909E+02  0.27354910018E+02  0.00000000000E+00 0. -1.
         -5    1    5    5    0  501  0.37358596648E+02 -0.49243821054E+02 -0.81067758839E+02  0.10205238938E+03  0.47000000000E+01 0.  1.
         13    1    6    6    0    0 -0.27639196066E+02  0.21451000449E+02  0.77852359727E+01  0.35842439629E+02  0.00000000000E+00 0. -1.
        -14    1    6    6    0    0 -0.16542979377E+02 -0.63688045586E+02  0.94376673747E+01  0.66474859027E+02  0.00000000000E+00 0.  1.
</event>
<event>
12    1  0.1345781E-002  0.2330619E+03  0.7818608E-02  0.1124503E+00
          1   -1    0    0  502    0  0.00000000000E+00  0.00000000000E+00  0.71053791364E+02  0.71053791364E+02  0.00000000000E+00 0. -1.
         -1   -1    0    0    0  501 -0.00000000000E+00 -0.00000000000E+00 -0.76458678586E+03  0.76458678586E+03  0.00000000000E+00 0.  1.
          6    2    1    2  502    0  0.13781857160E+03 -0.75190274968E+02 -0.35305650567E+03  0.42345054600E+03  0.17324529601E+03 0.  0.
         24    2    3    3    0    0  0.49343583456E+02  0.62637179257E+01 -0.24306597957E+03  0.26040888778E+03  0.79105594115E+02 0.  0.
         -6    2    1    2    0  501 -0.13781857160E+03  0.75190274968E+02 -0.34047648883E+03  0.41219003122E+03  0.17125666781E+03 0.  0.
        -24    2    5    5    0    0 -0.49220673289E+02 -0.25603418493E+02 -0.12592479921E+03  0.15908239850E+03  0.79824462027E+02 0.  0.
          5    1    3    3  502    0  0.88474988139E+02 -0.81453992894E+02 -0.10999052610E+03  0.16304165823E+03  0.47000000000E+01 0. -1.
        -13    1    4    4    0    0  0.12147460579E+02 -0.35158217889E+02 -0.11178422583E+03  0.11781075599E+03  0.00000000000E+00 0.  1.
         14    1    4    4    0    0  0.37196122877E+02  0.41421935815E+02 -0.13128175374E+03  0.14259813179E+03  0.00000000000E+00 0. -1.
         -5    1    5    5    0  501 -0.88597898306E+02  0.10079369346E+03 -0.21455168962E+03  0.25310763273E+03  0.47000000000E+01 0.  1.
         11    1    6    6    0    0 -0.58748488961E+02 -0.37751191804E+02 -0.62208449554E+02  0.93522342966E+02  0.00000000000E+00 0. -1.
        -12    1    6    6    0    0  0.95278156718E+01  0.12147773311E+02 -0.63716349653E+02  0.65560055529E+02  0.00000000000E+00 0.  1.
</event>
<event>
12    1  0.1345781E-002  0.1817802E+03  0.7818608E-02  0.1166091E+00
         -2   -1    0    0    0  501 -0.00000000000E+00  0.00000000000E+00  0.26682422357E+02  0.26682422357E+02  0.00000000000E+00 0. -1.
          2   -1    0    0  502    0  0.00000000000E+00 -0.00000000000E+00 -0.14405433782E+04  0.14405433782E+04  0.00000000000E+00 0.  1.
          6    2    1    2  502    0 -0.10446857390E+02  0.58002514247E+02 -0.98086502064E+03  0.99752034020E+03  0.17168928885E+03 0.  0.
         24    2    3    3    0    0 -0.72348576582E+02  0.32540045058E+02 -0.66213358930E+03  0.67180270866E+03  0.81270032648E+02 0.  0.
         -6    2    1    2    0  501  0.10446857390E+02 -0.58002514247E+02 -0.43299593517E+03  0.46970546033E+03  0.17223330427E+03 0.  0.
        -24    2    5    5    0    0 -0.58547294573E+02 -0.19399187220E+02 -0.27979416215E+03  0.29724304958E+03  0.79148867243E+02 0.  0.
          5    1    3    3  502    0  0.61901719192E+02  0.25462469189E+02 -0.31873143133E+03  0.32571763154E+03  0.47000000000E+01 0. -1.
        -11    1    4    4    0    0 -0.16279999686E+02  0.70344732790E+01 -0.46346255319E+03  0.46380174688E+03  0.00000000000E+00 0.  1.
         12    1    4    4    0    0 -0.56068576896E+02  0.25505571779E+02 -0.19867103611E+03  0.20800096177E+03  0.00000000000E+00 0. -1.
         -5    1    5    5    0  501  0.68994151963E+02 -0.38603327028E+02 -0.15320177302E+03  0.17246241075E+03  0.47000000000E+01 0.  1.
         11    1    6    6    0    0 -0.58342888580E+02  0.18390152330E+02 -0.19593779154E+03  0.20526497145E+03  0.00000000000E+00 0. -1.
        -12    1    6    6    0    0 -0.20440599303E+00 -0.37789339549E+02 -0.83856370612E+02  0.91978078136E+02  0.00000000000E+00 0.  1.
</event>
<event>
12    1  0.1345781E-002  0.1731951E+03  0.7818608E-02  0.1174556E+00
         -2   -1    0    0    0  501 -0.00000000000E+00  0.00000000000E+00  0.52849189673E+02  0.52849189673E+02  0.00000000000E+00 0.  1.
          2   -1    0    0  502    0  0.00000000000E+00 -0.00000000000E+00 -0.56771855217E+03  0.56771855217E+03  0.00000000000E+00 0. -1.
          6    2    1    2  502    0  0.13738388024E+02  0.89090804192E+01 -0.25384222507E+03  0.30766818892E+03  0.17307722040E+03 0.  0.
         24    2    3    3    0    0  0.69915171676E+02  0.29502726757E+02 -0.19141643752E+03  0.22107143238E+03  0.80459825658E+02 0.  0.
         -6    2    1    2    0  501 -0.13738388024E+02 -0.89090804192E+01 -0.26102713742E+03  0.31289955292E+03  0.17176393315E+03 0.  0.
        -24    2    5    5    0    0 -0.26524767593E+02 -0.54137166716E+02 -0.87379355199E+02  0.13294202026E+03  0.80025201777E+02 0.  0.
          5    1    3    3  502    0 -0.56176783651E+02 -0.20593646337E+02 -0.62425787550E+02  0.86596756534E+02  0.47000000000E+01 0. -1.
        -11    1    4    4    0    0  0.51474008750E+00  0.12952475221E+01  0.79622421160E+01  0.80833113893E+01  0.00000000000E+00 0.  1.
         12    1    4    4    0    0  0.69400431588E+02  0.28207479234E+02 -0.19937867964E+03  0.21298812099E+03  0.00000000000E+00 0. -1.
         -5    1    5    5    0  501  0.12786379569E+02  0.45228086296E+02 -0.17364778222E+03  0.17995753266E+03  0.47000000000E+01 0.  1.
         13    1    6    6    0    0 -0.37475269967E+02 -0.18999536990E+02 -0.86457132079E+02  0.96126031606E+02  0.00000000000E+00 0. -1.
        -14    1    6    6    0    0  0.10950502374E+02 -0.35137629725E+02 -0.92222311961E+00  0.36815988652E+02  0.00000000000E+00 0.  1.
</event>
<event>
12    1  0.1345781E-002  0.3695725E+03  0.7818608E-02  0.1054857E+00
         -2   -1    0    0    0  501 -0.00000000000E+00  0.00000000000E+00  0.41461667178E+03  0.41461667178E+03  0.00000000000E+00 0. -1.
          2   -1    0    0  502    0  0.00000000000E+00 -0.00000000000E+00 -0.56552545714E+03  0.56552545714E+03  0.00000000000E+00 0.  1.
          6    2    1    2  502    0 -0.28196537585E+03  0.16495647147E+03 -0.39209925770E+03  0.53876954609E+03  0.17267219013E+03 0.  0.
         24    2    3    3    0    0 -0.16888698771E+03  0.38025687552E+02 -0.26207899015E+03  0.32470061853E+03  0.82318449120E+02 0.  0.
         -6    2    1    2    0  501  0.28196537585E+03 -0.16495647147E+03  0.24119047233E+03  0.44137258283E+03  0.17297919606E+03 0.  0.
        -24    2    5    5    0    0  0.28162353137E+03 -0.17355103474E+03  0.18854262270E+03  0.38782009039E+03  0.73650029541E+02 0.  0.
          5    1    3    3  502    0 -0.11307838814E+03  0.12693078392E+03 -0.13002026754E+03  0.21406892755E+03  0.47000000000E+01 0. -1.
        -11    1    4    4    0    0 -0.10584267345E+03  0.53139475146E+02 -0.21177777056E+03  0.24264438886E+03  0.00000000000E+00 0.  1.
         12    1    4    4    0    0 -0.63044314257E+02 -0.15113787595E+02 -0.50301219592E+02  0.82056229672E+02  0.00000000000E+00 0. -1.
         -5    1    5    5    0  501  0.34184447891E+00  0.85945632709E+01  0.52647849634E+02  0.53552492440E+02  0.47000000000E+01 0.  1.
         13    1    6    6    0    0  0.24762562493E+03 -0.15917534624E+03  0.13768946093E+03  0.32498250511E+03  0.00000000000E+00 0. -1.
        -14    1    6    6    0    0  0.33997906437E+02 -0.14375688503E+02  0.50853161767E+02  0.62837585279E+02  0.00000000000E+00 0.  1.
</event>
<event>
12    1  0.1345781E-002  0.1742873E+03  0.7818608E-02  0.1173449E+00
         -2   -1    0    0    0  501 -0.00000000000E+00  0.00000000000E+00  0.28398137822E+02  0.28398137822E+02  0.00000000000E+00 0. -1.
          2   -1    0    0  502    0  0.00000000000E+00 -0.00000000000E+00 -0.11197289327E+04  0.11197289327E+04  0.00000000000E+00 0.  1.
          6    2    1    2  502    0  0.91084276255E+01 -0.16569650536E+02 -0.42319657774E+03  0.45754432388E+03  0.17289866434E+03 0.  0.
         24    2    3    3    0    0  0.56281167165E+02 -0.10481222143E+02 -0.14209039385E+03  0.17240380951E+03  0.79094675629E+02 0.  0.
         -6    2    1    2    0  501 -0.91084276255E+01  0.16569650536E+02 -0.66813421715E+03  0.69058274665E+03  0.17361935686E+03 0.  0.
        -24    2    5    5    0    0  0.12116216207E+02  0.71183589037E+02 -0.31747251001E+03  0.33502840392E+03  0.79002093488E+02 0.  0.
          5    1    3    3  502    0 -0.47172739540E+02 -0.60884283925E+01 -0.28110618389E+03  0.28514051438E+03  0.47000000000E+01 0. -1.
        -11    1    4    4    0    0  0.19837900052E+02 -0.43479565523E+02 -0.80244000092E+02  0.93397614784E+02  0.00000000000E+00 0.  1.
         12    1    4    4    0    0  0.36443267114E+02  0.32998343380E+02 -0.61846393757E+02  0.79006194722E+02  0.00000000000E+00 0. -1.
         -5    1    5    5    0  501 -0.21224643832E+02 -0.54613938501E+02 -0.35066170714E+03  0.35555434273E+03  0.47000000000E+01 0.  1.
         13    1    6    6    0    0 -0.92698493209E+01  0.71245212927E+02 -0.15137269321E+03  0.16755746096E+03  0.00000000000E+00 0. -1.
        -14    1    6    6    0    0  0.21386065527E+02 -0.61623889729E-01 -0.16609981679E+03  0.16747094296E+03  0.00000000000E+00 0.  1.
</event>
<event>
12    1  0.1345781E-002  0.5487735E+03  0.7818608E-02  0.1001778E+00
         -2   -1    0    0    0  501 -0.00000000000E+00  0.00000000000E+00  0.16378892605E+03  0.16378892605E+03  0.00000000000E+00 0. -1.
          2   -1    0    0  502    0  0.00000000000E+00 -0.00000000000E+00 -0.24009673913E+04  0.24009673913E+04  0.00000000000E+00 0.  1.
          6    2    1    2  502    0 -0.15809445160E+02  0.52192336060E+03 -0.17404721914E+04  0.18251859000E+04  0.17148232407E+03 0.  0.
         24    2    3    3    0    0 -0.43858539423E+02  0.16498379776E+03 -0.52666214194E+03  0.55966247884E+03  0.81889275680E+02 0.  0.
         -6    2    1    2    0  501  0.15809445160E+02 -0.52192336060E+03 -0.49670627382E+03  0.73957041736E+03  0.16611245254E+03 0.  0.
        -24    2    5    5    0    0  0.27114175498E+02 -0.44870300605E+03 -0.48223804114E+03  0.66393684674E+03  0.78670464483E+02 0.  0.
          5    1    3    3  502    0  0.28049094263E+02  0.35693956284E+03 -0.12138100495E+04  0.12655234211E+04  0.47000000000E+01 0. -1.
        -11    1    4    4    0    0 -0.38524420917E+02  0.59775798446E+02 -0.31874252836E+03  0.32657935708E+03  0.00000000000E+00 0.  1.
         12    1    4    4    0    0 -0.53341185061E+01  0.10520799931E+03 -0.20791961358E+03  0.23308312176E+03  0.00000000000E+00 0. -1.
         -5    1    5    5    0  501 -0.11304730338E+02 -0.73220354553E+02 -0.14468232682E+02  0.75633570628E+02  0.47000000000E+01 0.  1.
         13    1    6    6    0    0  0.53104583016E+02 -0.25280048088E+03 -0.25910619230E+03  0.36587456698E+03  0.00000000000E+00 0. -1.
        -14    1    6    6    0    0 -0.25990407518E+02 -0.19590252517E+03 -0.22313184884E+03  0.29806227976E+03  0.00000000000E+00 0.  1.
</event>
<event>
12    1  0.1345781E-002  0.2201183E+03  0.7818608E-02  0.1133795E+00
         -1   -1    0    0    0  501 -0.00000000000E+00  0.00000000000E+00  0.29551272443E+02  0.29551272443E+02  0.00000000000E+00 0.  1.
          1   -1    0    0  502    0  0.00000000000E+00 -0.00000000000E+00 -0.18894674789E+04  0.18894674789E+04  0.00000000000E+00 0. -1.
          6    2    1    2  502    0 -0.13684781765E+03  0.18475335101E+02 -0.12786973770E+04  0.12974960211E+04  0.17134841551E+03 0.  0.
         24    2    3    3    0    0 -0.81936516148E+02 -0.53666134795E+02 -0.84735858347E+03  0.85670708345E+03  0.79604090003E+02 0.  0.
         -6    2    1    2    0  501  0.13684781765E+03 -0.18475335101E+02 -0.58121882948E+03  0.62152273031E+03  0.17148327426E+03 0.  0.
        -24    2    5    5    0    0  0.57650850093E+02 -0.71080513304E+02 -0.33528647073E+03  0.35781023625E+03  0.85059319437E+02 0.  0.
          5    1    3    3  502    0 -0.54911301506E+02  0.72141469896E+02 -0.43133879355E+03  0.44078893762E+03  0.47000000000E+01 0. -1.
        -13    1    4    4    0    0 -0.59569446169E+02 -0.69577146928E+02 -0.50417243886E+03  0.51242496661E+03  0.00000000000E+00 0.  1.
         14    1    4    4    0    0 -0.22367069979E+02  0.15911012132E+02 -0.34318614461E+03  0.34428211684E+03  0.00000000000E+00 0. -1.
         -5    1    5    5    0  501  0.79196967561E+02  0.52605178203E+02 -0.24593235874E+03  0.26371249406E+03  0.47000000000E+01 0.  1.
         13    1    6    6    0    0  0.35941331856E+02 -0.13312322015E+02 -0.24780767355E+03  0.25075414319E+03  0.00000000000E+00 0. -1.
        -14    1    6    6    0    0  0.21709518237E+02 -0.57768191289E+02 -0.87478797181E+02  0.10705609307E+03  0.00000000000E+00 0.  1.
</event>
<event>
12    1  0.1345781E-002  0.1834098E+03  0.7818608E-02  0.1164543E+00
          2   -1    0    0  502    0  0.00000000000E+00  0.00000000000E+00  0.32854352684E+03  0.32854352684E+03  0.00000000000E+00 0. -1.
         -2   -1    0    0    0  501 -0.00000000000E+00 -0.00000000000E+00 -0.17786377393E+03  0.17786377393E+03  0.00000000000E+00 0.  1.
          6    2    1    2  502    0  0.27356666505E+02  0.57860943022E+02 -0.89778316745E+02  0.20352139470E+03  0.17106880491E+03 0.  0.
         24    2    3    3    0    0  0.73969730573E+02  0.14161652395E+01 -0.60984363473E+02  0.12471801644E+03  0.79761923695E+02 0.  0.
         -6    2    1    2    0  501 -0.27356666505E+02 -0.57860943022E+02  0.24045806966E+03  0.30288590607E+03  0.17269485487E+03 0.  0.
        -24    2    5    5    0    0 -0.22903080260E+02 -0.59180931161E+02  0.26158379547E+03  0.28075079616E+03  0.79799710489E+02 0.  0.
          5    1    3    3  502    0 -0.46613064068E+02  0.56444777782E+02 -0.28793953272E+02  0.78803378263E+02  0.47000000000E+01 0. -1.
        -13    1    4    4    0    0 -0.10267147234E+02  0.15498045597E+02  0.18587027914E+01  0.18683107497E+02  0.00000000000E+00 0.  1.
         14    1    4    4    0    0  0.84236877807E+02 -0.14081880358E+02 -0.62843066264E+02  0.10603490894E+03  0.00000000000E+00 0. -1.
         -5    1    5    5    0  501 -0.44535862452E+01  0.13199881394E+01 -0.21125725815E+02  0.22135109901E+02  0.47000000000E+01 0.  1.
         13    1    6    6    0    0  0.14278002039E+02 -0.61373002927E+02  0.18797907600E+03  0.19825902210E+03  0.00000000000E+00 0. -1.
        -14    1    6    6    0    0 -0.37181082298E+02  0.21920717654E+01  0.73604719478E+02  0.82491774068E+02  0.00000000000E+00 0.  1.
</event>
<event>
12    1  0.1345781E-002  0.1858436E+03  0.7818608E-02  0.1162264E+00
         -2   -1    0    0    0  501 -0.00000000000E+00  0.00000000000E+00  0.14619558664E+03  0.14619558664E+03  0.00000000000E+00 0.  1.
          2   -1    0    0  502    0  0.00000000000E+00 -0.00000000000E+00 -0.29872680631E+03  0.29872680631E+03  0.00000000000E+00 0. -1.
          6    2    1    2  502    0  0.52487054639E+01 -0.60701556248E+02  0.22286053675E+02  0.19567090174E+03  0.18460283248E+03 0.  0.
         24    2    3    3    0    0  0.33048370415E+02  0.58841537571E+01 -0.41170431216E+02  0.99466465133E+02  0.84093728821E+02 0.  0.
         -6    2    1    2    0  501 -0.52487054639E+01  0.60701556248E+02 -0.17481727335E+03  0.24925149121E+03  0.16689217767E+03 0.  0.
        -24    2    5    5    0    0  0.31694417116E+02  0.93104506646E+02 -0.13856753912E+03  0.18800707324E+03  0.80453163119E+02 0.  0.
          5    1    3    3  502    0 -0.27799664951E+02 -0.66585710005E+02  0.63456484891E+02  0.96204436607E+02  0.47000000000E+01 0. -1.
        -13    1    4    4    0    0  0.25124692219E+02 -0.34261492784E+02 -0.15598104292E+01  0.42515092091E+02  0.00000000000E+00 0.  1.
         14    1    4    4    0    0  0.79236781955E+01  0.40145646541E+02 -0.39610620786E+02  0.56951373042E+02  0.00000000000E+00 0. -1.
         -5    1    5    5    0  501 -0.36943122580E+02 -0.32402950399E+02 -0.36249734233E+02  0.61244417970E+02  0.47000000000E+01 0.  1.
         13    1    6    6    0    0  0.57993177511E+02  0.72711119595E+02 -0.11083175758E+03  0.14468515487E+03  0.00000000000E+00 0. -1.
        -14    1    6    6    0    0 -0.26298760395E+02  0.20393387051E+02 -0.27735781537E+02  0.43321918369E+02  0.00000000000E+00 0.  1.
</event>
<event>
12    1  0.1345781E-002  0.2162600E+03  0.7818608E-02  0.1136702E+00
          2   -1    0    0  502    0  0.00000000000E+00  0.00000000000E+00  0.41978248655E+03  0.41978248655E+03  0.00000000000E+00 0.  1.
         -2   -1    0    0    0  501 -0.00000000000E+00 -0.00000000000E+00 -0.19736305792E+03  0.19736305792E+03  0.00000000000E+00 0. -1.
          6    2    1    2  502    0 -0.12118819466E+03 -0.46432957309E+02  0.31464960039E+03  0.38142551886E+03  0.17215823350E+03 0.  0.
         24    2    3    3    0    0 -0.10132097112E+03 -0.78634427962E+02  0.14905417917E+03  0.21149737283E+03  0.77876042119E+02 0.  0.
         -6    2    1    2    0  501  0.12118819466E+03  0.46432957309E+02 -0.92230171760E+02  0.23572002561E+03  0.17382441670E+03 0.  0.
        -24    2    5    5    0    0  0.17105134284E+02  0.16821492693E+02 -0.89883543912E+02  0.12737927171E+03  0.87010799096E+02 0.  0.
          5    1    3    3  502    0 -0.19867223542E+02  0.32201470654E+02  0.16559542123E+03  0.16992814603E+03  0.47000000000E+01 0. -1.
        -13    1    4    4    0    0  0.63046413150E+01 -0.19025405061E+00  0.36751171120E+02  0.37288514014E+02  0.00000000000E+00 0.  1.
         14    1    4    4    0    0 -0.10762561243E+03 -0.78444173912E+02  0.11230300805E+03  0.17420885881E+03  0.00000000000E+00 0. -1.
         -5    1    5    5    0  501  0.10408306037E+03  0.29611464615E+02 -0.23466278489E+01  0.10834075390E+03  0.47000000000E+01 0.  1.
         11    1    6    6    0    0  0.52698831649E+02  0.75318429967E+01 -0.48572957307E+02  0.72064052742E+02  0.00000000000E+00 0. -1.
        -12    1    6    6    0    0 -0.35593697365E+02  0.92896496968E+01 -0.41310586605E+02  0.55315218966E+02  0.00000000000E+00 0.  1.
</event>
<event>
12    1  0.1345781E-002  0.2547750E+03  0.7818608E-02  0.1110324E+00
         -2   -1    0    0    0  501 -0.00000000000E+00  0.00000000000E+00  0.17632991965E+03  0.17632991965E+03  0.00000000000E+00 0.  1.
          2   -1    0    0  502    0  0.00000000000E+00 -0.00000000000E+00 -0.37047204347E+03  0.37047204347E+03  0.00000000000E+00 0. -1.
          6    2    1    2  502    0  0.16177951435E+03  0.94623875305E+02 -0.11903881653E+03  0.28165068076E+03  0.17329332673E+03 0.  0.
         24    2    3    3    0    0  0.12377573617E+03  0.78296460711E+02 -0.12813564645E+02  0.16755963921E+03  0.80382066585E+02 0.  0.
         -6    2    1    2    0  501 -0.16177951435E+03 -0.94623875305E+02 -0.75103307283E+02  0.26515128237E+03  0.17186741034E+03 0.  0.
        -24    2    5    5    0    0 -0.12834079824E+03 -0.90737105291E+02  0.76408869029E+01  0.17569768329E+03  0.78145441278E+02 0.  0.
          5    1    3    3  502    0  0.38003778172E+02  0.16327414594E+02 -0.10622525189E+03  0.11409104155E+03  0.47000000000E+01 0. -1.
        -11    1    4    4    0    0  0.46417814640E+02 -0.12027279332E+02 -0.73565508374E+01  0.48511728523E+02  0.00000000000E+00 0.  1.
         12    1    4    4    0    0  0.77357921534E+02  0.90323740044E+02 -0.54570138076E+01  0.11904791069E+03  0.00000000000E+00 0. -1.
         -5    1    5    5    0  501 -0.33438716111E+02 -0.38867700142E+01 -0.82744194185E+02  0.89453599076E+02  0.47000000000E+01 0.  1.
         11    1    6    6    0    0 -0.33955186940E+02 -0.42865239524E+02 -0.31205589945E+02  0.62961673448E+02  0.00000000000E+00 0. -1.
        -12    1    6    6    0    0 -0.94385611295E+02 -0.47871865767E+02  0.38846476848E+02  0.11273600984E+03  0.00000000000E+00 0.  1.
</event>
<event>
12    1  0.1345781E-002  0.1737369E+03  0.7818608E-02  0.1174006E+00
         -2   -1    0    0    0  501 -0.00000000000E+00  0.00000000000E+00  0.21935307762E+03  0.21935307762E+03  0.00000000000E+00 0. -1.
          2   -1    0    0  502    0  0.00000000000E+00 -0.00000000000E+00 -0.17439229516E+03  0.17439229516E+03  0.00000000000E+00 0.  1.
          6    2    1    2  502    0 -0.21518170324E+02  0.11068797505E+02  0.11293261903E+03  0.20749601977E+03  0.17238118182E+03 0.  0.
         24    2    3    3    0    0 -0.38342145073E+02  0.10276529331E+02  0.14642656279E+03  0.16971231848E+03  0.76064483232E+02 0.  0.
         -6    2    1    2    0  501  0.21518170324E+02 -0.11068797505E+02 -0.67971836573E+02  0.18624935301E+03  0.17170643843E+03 0.  0.
        -24    2    5    5    0    0 -0.45281628588E+02 -0.14381513819E+01 -0.73363065383E+02  0.11838096694E+03  0.81113622809E+02 0.  0.
          5    1    3    3  502    0  0.16823974750E+02  0.79226817324E+00 -0.33493943754E+02  0.37783701293E+02  0.47000000000E+01 0. -1.
        -13    1    4    4    0    0  0.54151161807E+01  0.52000592362E+01 -0.68917835018E+01  0.10191210877E+02  0.00000000000E+00 0.  1.
         14    1    4    4    0    0 -0.43757261254E+02  0.50764700951E+01  0.15331834629E+03  0.15952110760E+03  0.00000000000E+00 0. -1.
         -5    1    5    5    0  501  0.66799798911E+02 -0.96306461226E+01  0.53912288101E+01  0.67868386068E+02  0.47000000000E+01 0.  1.
         11    1    6    6    0    0  0.55775199758E+01  0.29435323466E+02 -0.10296515749E+02  0.31679097734E+02  0.00000000000E+00 0. -1.
        -12    1    6    6    0    0 -0.50859148563E+02 -0.30873474848E+02 -0.63066549634E+02  0.86701869210E+02  0.00000000000E+00 0.  1.
</event>
<event>
12    1  0.1345781E-002  0.1770427E+03  0.7818608E-02  0.1170696E+00
         -2   -1    0    0    0  501 -0.00000000000E+00  0.00000000000E+00  0.17726486906E+04  0.17726486906E+04  0.00000000000E+00 0.  1.
          2   -1    0    0  502    0  0.00000000000E+00 -0.00000000000E+00 -0.20290433987E+02  0.20290433987E+02  0.00000000000E+00 0. -1.
          6    2    1    2  502    0 -0.40463644796E+02  0.10522888162E+02  0.55437839720E+03  0.58193492135E+03  0.17194419932E+03 0.  0.
         24    2    3    3    0    0  0.39399102443E+02  0.16082307268E+02  0.36237986446E+03  0.37386163592E+03  0.81501084429E+02 0.  0.
         -6    2    1    2    0  501  0.40463644796E+02 -0.10522888162E+02  0.11979798594E+04  0.12110042033E+04  0.17212611357E+03 0.  0.
        -24    2    5    5    0    0  0.52441111648E+02  0.82653043054E+01  0.36170585840E+03  0.37442022619E+03  0.80876401566E+02 0.  0.
          5    1    3    3  502    0 -0.79862747238E+02 -0.55594191059E+01  0.19199853274E+03  0.20807328544E+03  0.47000000000E+01 0. -1.
        -13    1    4    4    0    0  0.60033375915E+02 -0.59594094751E+01  0.20873281880E+03  0.21727611565E+03  0.00000000000E+00 0.  1.
         14    1    4    4    0    0 -0.20634273473E+02  0.22041716743E+02  0.15364704566E+03  0.15658552027E+03  0.00000000000E+00 0. -1.
         -5    1    5    5    0  501 -0.11977466852E+02 -0.18788192468E+02  0.83627400102E+03  0.83658397706E+03  0.47000000000E+01 0.  1.
         11    1    6    6    0    0 -0.88347899561E+01 -0.23178779921E+02  0.14270621598E+03  0.14484603354E+03  0.00000000000E+00 0. -1.
        -12    1    6    6    0    0  0.61275901604E+02  0.31444084226E+02  0.21899964242E+03  0.22957419265E+03  0.00000000000E+00 0.  1.
</event>
<event>
12    1  0.1345781E-002  0.1918737E+03  0.7818608E-02  0.1156782E+00
         -1   -1    0    0    0  501 -0.00000000000E+00  0.00000000000E+00  0.54961177171E+02  0.54961177171E+02  0.00000000000E+00 0.  1.
          1   -1    0    0  502    0  0.00000000000E+00 -0.00000000000E+00 -0.98598184800E+03  0.98598184800E+03  0.00000000000E+00 0. -1.
          6    2    1    2  502    0 -0.56108600617E+02 -0.65392585816E+02 -0.16976951361E+03  0.25572973911E+03  0.17073853218E+03 0.  0.
         24    2    3    3    0    0 -0.57280258772E+02 -0.38088056561E+02 -0.25396803362E+02  0.10871790434E+03  0.80267409355E+02 0.  0.
         -6    2    1    2    0  501  0.56108600617E+02  0.65392585816E+02 -0.76125115722E+03  0.78521328606E+03  0.17214010251E+03 0.  0.
        -24    2    5    5    0    0  0.41820781538E+02 -0.30075264382E+02 -0.33064574201E+03  0.34389552548E+03  0.79271851488E+02 0.  0.
          5    1    3    3  502    0  0.11716581548E+01 -0.27304529255E+02 -0.14437271024E+03  0.14701183478E+03  0.47000000000E+01 0. -1.
        -11    1    4    4    0    0 -0.95374204122E+00 -0.48386314874E+02 -0.99030087143E+01  0.49398529053E+02  0.00000000000E+00 0.  1.
         12    1    4    4    0    0 -0.56326516731E+02  0.10298258313E+02 -0.15493794648E+02  0.59319375282E+02  0.00000000000E+00 0. -1.
         -5    1    5    5    0  501  0.14287819079E+02  0.95467850198E+02 -0.43060541521E+03  0.44131776058E+03  0.47000000000E+01 0.  1.
         11    1    6    6    0    0  0.36323516235E+02  0.13719184408E+02 -0.23947692910E+03  0.24260423208E+03  0.00000000000E+00 0. -1.
        -12    1    6    6    0    0  0.54972653031E+01 -0.43794448790E+02 -0.91168812911E+02  0.10129129340E+03  0.00000000000E+00 0.  1.
</event>
<event>
12    1  0.1345781E-002  0.2193721E+03  0.7818608E-02  0.1134352E+00
         -1   -1    0    0    0  501 -0.00000000000E+00  0.00000000000E+00  0.42009049016E+03  0.42009049016E+03  0.00000000000E+00 0.  1.
          1   -1    0    0  502    0  0.00000000000E+00 -0.00000000000E+00 -0.23902304116E+03  0.23902304116E+03  0.00000000000E+00 0. -1.
          6    2    1    2  502    0 -0.15082388349E+02  0.13570301432E+03 -0.14715975977E+03  0.26465890482E+03  0.17246899568E+03 0.  0.
         24    2    3    3    0    0 -0.18291312586E+02  0.12700931959E+03 -0.17737736479E+03  0.23270470046E+03  0.78884781147E+02 0.  0.
         -6    2    1    2    0  501  0.15082388349E+02 -0.13570301432E+03  0.32822720877E+03  0.39445462651E+03  0.17093438877E+03 0.  0.
        -24    2    5    5    0    0 -0.83425324507E+01 -0.10776166444E+03  0.11228163332E+03  0.17540205861E+03  0.80476970696E+02 0.  0.
          5    1    3    3  502    0  0.32089242373E+01  0.86936947260E+01  0.30217605022E+02  0.31954204355E+02  0.47000000000E+01 0. -1.
        -11    1    4    4    0    0 -0.28326902976E+02  0.66857647090E+01 -0.44407092730E+02  0.53095223577E+02  0.00000000000E+00 0.  1.
         12    1    4    4    0    0  0.10035590390E+02  0.12032355488E+03 -0.13297027206E+03  0.17960947688E+03  0.00000000000E+00 0. -1.
         -5    1    5    5    0  501  0.23424920800E+02 -0.27941349877E+02  0.21594557545E+03  0.21905256790E+03  0.47000000000E+01 0.  1.
         13    1    6    6    0    0  0.30821820435E+02 -0.15949745525E+02  0.24538957862E+02  0.42503405160E+02  0.00000000000E+00 0. -1.
        -14    1    6    6    0    0 -0.39164352886E+02 -0.91811918916E+02  0.87742675459E+02  0.13289865345E+03  0.00000000000E+00 0.  1.
</event>
<event>
12    1  0.1345781E-002  0.2082991E+03  0.7818608E-02  0.1142920E+00
         -3   -1    0    0    0  501 -0.00000000000E+00  0.00000000000E+00  0.36143497200E+02  0.36143497200E+02  0.00000000000E+00 0.  1.
          3   -1    0    0  502    0  0.00000000000E+00 -0.00000000000E+00 -0.12006203997E+04  0.12006203997E+04  0.00000000000E+00 0. -1.
          6    2    1    2  502    0  0.10846093196E+03 -0.34072975863E+02 -0.57596540944E+03  0.61164694478E+03  0.17161320095E+03 0.  0.
         24    2    3    3    0    0  0.78461244733E+02 -0.86234577483E+02 -0.44897717188E+03  0.47104496614E+03  0.81916359680E+02 0.  0.
         -6    2    1    2    0  501 -0.10846093196E+03  0.34072975863E+02 -0.58851149302E+03  0.62511695207E+03  0.17748432301E+03 0.  0.
        -24    2    5    5    0    0 -0.10801492657E+03  0.26765134076E+02 -0.59723131606E+03  0.61279912815E+03  0.80336354299E+02 0.  0.
          5    1    3    3  502    0  0.29999687229E+02  0.52161601620E+02 -0.12698823756E+03  0.14060197863E+03  0.47000000000E+01 0. -1.
        -11    1    4    4    0    0  0.69783201989E+02 -0.95863038717E+02 -0.31729446235E+03  0.33872583797E+03  0.00000000000E+00 0.  1.
         12    1    4    4    0    0  0.86780427443E+01  0.96284612336E+01 -0.13168270953E+03  0.13231912817E+03  0.00000000000E+00 0. -1.
         -5    1    5    5    0  501 -0.44600539297E+00  0.73078417869E+01  0.87198230386E+01  0.12317823924E+02  0.47000000000E+01 0.  1.
         11    1    6    6    0    0 -0.59832623516E+02  0.42481104015E+02 -0.21400164692E+03  0.22623282679E+03  0.00000000000E+00 0. -1.
        -12    1    6    6    0    0 -0.48182303053E+02 -0.15715969939E+02 -0.38322966914E+03  0.38656630136E+03  0.00000000000E+00 0.  1.
</event>
<event>
12    1  0.1345781E-002  0.1912591E+03  0.7818608E-02  0.1157331E+00
         -2   -1    0    0    0  501 -0.00000000000E+00  0.00000000000E+00  0.92043465319E+03  0.92043465319E+03  0.00000000000E+00 0. -1.
          2   -1    0    0  502    0  0.00000000000E+00 -0.00000000000E+00 -0.41366767726E+02  0.41366767726E+02  0.00000000000E+00 0.  1.
          6    2    1    2  502    0  0.70740596723E+01 -0.85901201153E+02  0.34749852759E+03  0.39735816145E+03  0.17236363629E+03 0.  0.
         24    2    3    3    0    0 -0.54505106283E+02 -0.19251392534E+02  0.14872214894E+03  0.17879849139E+03  0.80679614603E+02 0.  0.
         -6    2    1    2    0  501 -0.70740596723E+01  0.85901201153E+02  0.53156935788E+03  0.56444325947E+03  0.16911875190E+03 0.  0.
        -24    2    5    5    0    0 -0.37729494659E+02  0.61005081005E+02  0.50342288903E+03  0.51572071642E+03  0.85954159123E+02 0.  0.
          5    1    3    3  502    0  0.61579165956E+02 -0.66649808619E+02  0.19877637865E+03  0.21855967006E+03  0.47000000000E+01 0. -1.
        -13    1    4    4    0    0 -0.44989063380E+02 -0.33081886887E+02  0.39761673398E+02  0.68552299270E+02  0.00000000000E+00 0.  1.
         14    1    4    4    0    0 -0.95160429031E+01  0.13830494353E+02  0.10896047554E+03  0.11024619212E+03  0.00000000000E+00 0. -1.
         -5    1    5    5    0  501  0.30655434986E+02  0.24896120147E+02  0.28146468852E+02  0.48722543052E+02  0.47000000000E+01 0.  1.
         11    1    6    6    0    0 -0.58769106534E+02  0.47324109105E+02  0.25214993148E+03  0.26319758193E+03  0.00000000000E+00 0. -1.
        -12    1    6    6    0    0  0.21039611876E+02  0.13680971900E+02  0.25127295755E+03  0.25252313449E+03  0.00000000000E+00 0.  1.
</event>
<event>
12    1  0.1345781E-002  0.1813759E+03  0.7818608E-02  0.1166478E+00
         -1   -1    0    0    0  501 -0.00000000000E+00  0.00000000000E+00  0.39227979529E+03  0.39227979529E+03  0.00000000000E+00 0. -1.
          1   -1    0    0  502    0  0.00000000000E+00 -0.00000000000E+00 -0.12811767135E+03  0.12811767135E+03  0.00000000000E+00 0.  1.
          6    2    1    2  502    0  0.50812525415E+02 -0.19438091274E+02 -0.20518227810E+02  0.18321359965E+03  0.17374254889E+03 0.  0.
         24    2    3    3    0    0  0.32486085629E+02  0.58619443005E+01  0.55178998332E+02  0.10118854104E+03  0.78132520953E+02 0.  0.
         -6    2    1    2    0  501 -0.50812525415E+02  0.19438091274E+02  0.28468035174E+03  0.33718386698E+03  0.17230875008E+03 0.  0.
        -24    2    5    5    0    0 -0.16557402047E+02 -0.55252428840E+02  0.16627440238E+03  0.19298211208E+03  0.79170324246E+02 0.  0.
          5    1    3    3  502    0  0.18326439785E+02 -0.25300035575E+02 -0.75697226141E+02  0.82025058615E+02  0.47000000000E+01 0. -1.
        -13    1    4    4    0    0  0.10832206888E+02 -0.35877554093E+02  0.20129739940E+02  0.42541062796E+02  0.00000000000E+00 0.  1.
         14    1    4    4    0    0  0.21653878742E+02  0.41739498393E+02  0.35049258391E+02  0.58647478245E+02  0.00000000000E+00 0. -1.
         -5    1    5    5    0  501 -0.34255123368E+02  0.74690520114E+02  0.11840594937E+03  0.14420175490E+03  0.47000000000E+01 0.  1.
         13    1    6    6    0    0 -0.37564941784E+02 -0.80925639114E+01  0.11045357818E+03  0.11694702808E+03  0.00000000000E+00 0. -1.
        -14    1    6    6    0    0  0.21007539737E+02 -0.47159864929E+02  0.55820824194E+02  0.76035084004E+02  0.00000000000E+00 0.  1.
</event>
<event>
12    1  0.1345781E-002  0.2588535E+03  0.7818608E-02  0.1107834E+00
         -1   -1    0    0    0  501 -0.00000000000E+00  0.00000000000E+00  0.22405761535E+03  0.22405761535E+03  0.00000000000E+00 0.  1.
          1   -1    0    0  502    0  0.00000000000E+00 -0.00000000000E+00 -0.50712670706E+03  0.50712670706E+03  0.00000000000E+00 0. -1.
          6    2    1    2  502    0 -0.87918713832E+02  0.17670409221E+03 -0.37680447577E+03  0.45916697187E+03  0.17291228598E+03 0.  0.
         24    2    3    3    0    0 -0.10808182905E+03  0.16694778892E+03 -0.24540770218E+03  0.32579179134E+03  0.79762804756E+02 0.  0.
         -6    2    1    2    0  501  0.87918713832E+02 -0.17670409221E+03  0.93735384056E+02  0.27201735055E+03  0.16202802328E+03 0.  0.
        -24    2    5    5    0    0 -0.95046577290E+01 -0.49351838461E+02  0.16401953729E+02  0.93937426616E+02  0.77648396989E+02 0.  0.
          5    1    3    3  502    0  0.20163115213E+02  0.97563032913E+01 -0.13139677359E+03  0.13337518052E+03  0.47000000000E+01 0. -1.
        -13    1    4    4    0    0 -0.14988351536E+02  0.31369679346E+01 -0.58214950724E+02  0.60195280026E+02  0.00000000000E+00 0.  1.
         14    1    4    4    0    0 -0.93093477510E+02  0.16381082098E+03 -0.18719275146E+03  0.26559651132E+03  0.00000000000E+00 0. -1.
         -5    1    5    5    0  501  0.97423371561E+02 -0.12735225375E+03  0.77333430327E+02  0.17807992393E+03  0.47000000000E+01 0.  1.
         11    1    6    6    0    0 -0.13350049454E+02  0.19425038590E+02  0.29826445947E+01  0.23758200971E+02  0.00000000000E+00 0. -1.
        -12    1    6    6    0    0  0.38453917246E+01 -0.68776877051E+02  0.13419309134E+02  0.70179225644E+02  0.00000000000E+00 0.  1.
</event>
<event>
12    1  0.1345781E-002  0.3278435E+03  0.7818608E-02  0.1072095E+00
         -2   -1    0    0    0  501 -0.00000000000E+00  0.00000000000E+00  0.14686594359E+03  0.14686594359E+03  0.00000000000E+00 0. -1.
          2   -1    0    0  502    0  0.00000000000E+00 -0.00000000000E+00 -0.83960794854E+03  0.83960794854E+03  0.00000000000E+00 0.  1.
          6    2    1    2  502    0  0.94072207123E+02  0.26301974249E+03 -0.16940460371E+03  0.36878299924E+03  0.17109650983E+03 0.  0.
         24    2    3    3    0    0  0.90802380413E+02  0.28217912784E+03 -0.16409450293E+03  0.34809336454E+03  0.79823881541E+02 0.  0.
         -6    2    1    2    0  501 -0.94072207123E+02 -0.26301974249E+03 -0.52333740124E+03  0.61769089289E+03  0.17213668559E+03 0.  0.
        -24    2    5    5    0    0 -0.98845174473E+02 -0.10999866767E+03 -0.23201876105E+03  0.28856041621E+03  0.86973173553E+02 0.  0.
          5    1    3    3  502    0  0.32698267104E+01 -0.19159385350E+02 -0.53101007786E+01  0.20689634699E+02  0.47000000000E+01 0. -1.
        -13    1    4    4    0    0  0.31991784124E+02  0.96205610542E+02 -0.10095777568E+03  0.14307853166E+03  0.00000000000E+00 0.  1.
         14    1    4    4    0    0  0.58810596289E+02  0.18597351730E+03 -0.63136727253E+02  0.20501483288E+03  0.00000000000E+00 0. -1.
         -5    1    5    5    0  501  0.47729673501E+01 -0.15302107482E+03 -0.29131864019E+03  0.32913047668E+03  0.47000000000E+01 0.  1.
         13    1    6    6    0    0 -0.17796831558E+02  0.14515526395E+02 -0.29248720822E+02  0.37187570366E+02  0.00000000000E+00 0. -1.
        -14    1    6    6    0    0 -0.81048342916E+02 -0.12451419407E+03 -0.20277004022E+03  0.25137284584E+03  0.00000000000E+00 0.  1.
</event>
<event>
12    1  0.1345781E-002  0.1861919E+03  0.7818608E-02  0.1161942E+00
          1   -1    0    0  502    0  0.00000000000E+00  0.00000000000E+00  0.75684403166E+03  0.75684403166E+03  0.00000000000E+00 0. -1.
         -1   -1    0    0    0  501 -0.00000000000E+00 -0.00000000000E+00 -0.83731551687E+02  0.83731551687E+02  0.00000000000E+00 0.  1.
          6    2    1    2  502    0  0.17346011386E+02 -0.69772165272E+02  0.53837411666E+02  0.19395691694E+03  0.17190631046E+03 0.  0.
         24    2    3    3    0    0 -0.39646751465E+02  0.88118344241E+01  0.18010116912E+02  0.90374558041E+02  0.78699956177E+02 0.  0.
         -6    2    1    2    0  501 -0.17346011386E+02  0.69772165272E+02  0.61927506831E+03  0.64661866641E+03  0.17159560124E+03 0.  0.
        -24    2    5    5    0    0 -0.11851251920E+02  0.16981380167E+02  0.12471747799E+03  0.14919896483E+03  0.79227913939E+02 0.  0.
          5    1    3    3  502    0  0.56992762851E+02 -0.78583999696E+02  0.35827294754E+02  0.10358235890E+03  0.47000000000E+01 0. -1.
        -13    1    4    4    0    0 -0.58581634224E+01 -0.18542365428E+02 -0.23338258365E+02  0.30377815883E+02  0.00000000000E+00 0.  1.
         14    1    4    4    0    0 -0.33788588042E+02  0.27354199852E+02  0.41348375277E+02  0.59996742157E+02  0.00000000000E+00 0. -1.
         -5    1    5    5    0  501 -0.54947594662E+01  0.52790785105E+02  0.49455759032E+03  0.49741970158E+03  0.47000000000E+01 0.  1.
         13    1    6    6    0    0  0.20013364364E+01  0.35734732322E+02  0.12024565516E+03  0.12545913289E+03  0.00000000000E+00 0. -1.
        -14    1    6    6    0    0 -0.13852588356E+02 -0.18753352156E+02  0.44718228323E+01  0.23739831943E+02  0.00000000000E+00 0.  1.
</event>
<event>
12    1  0.1345781E-002  0.1904696E+03  0.7818608E-02  0.1158038E+00
         -1   -1    0    0    0  501 -0.00000000000E+00  0.00000000000E+00  0.15179414071E+02  0.15179414071E+02  0.00000000000E+00 0. -1.
          1   -1    0    0  502    0  0.00000000000E+00 -0.00000000000E+00 -0.23913918723E+04  0.23913918723E+04  0.00000000000E+00 0.  1.
          6    2    1    2  502    0 -0.96927458822E+01 -0.80920875347E+02 -0.11583652975E+04  0.11739040696E+04  0.17204204376E+03 0.  0.
         24    2    3    3    0    0 -0.10418281789E+02  0.98982506301E+01 -0.80591103008E+03  0.80990579947E+03  0.79046186832E+02 0.  0.
         -6    2    1    2    0  501  0.96927458822E+01  0.80920875347E+02 -0.12178471607E+04  0.12326672168E+04  0.17226323744E+03 0.  0.
        -24    2    5    5    0    0  0.47754857951E+02  0.91294004449E+00 -0.44171749999E+03  0.45148264550E+03  0.80255027708E+02 0.  0.
          5    1    3    3  502    0  0.72553590682E+00 -0.90819125978E+02 -0.35245426741E+03  0.36399827014E+03  0.47000000000E+01 0. -1.
        -11    1    4    4    0    0  0.76542606791E+01  0.38018490717E+02 -0.60424171688E+03  0.60548496741E+03  0.00000000000E+00 0.  1.
         12    1    4    4    0    0 -0.18072542468E+02 -0.28120240087E+02 -0.20166931321E+03  0.20442083207E+03  0.00000000000E+00 0. -1.
         -5    1    5    5    0  501 -0.38062112069E+02  0.80007935303E+02 -0.77612966076E+03  0.78118457128E+03  0.47000000000E+01 0.  1.
         11    1    6    6    0    0  0.36572704210E+02  0.39135721585E+02 -0.25524951173E+03  0.26080928020E+03  0.00000000000E+00 0. -1.
        -12    1    6    6    0    0  0.11182153741E+02 -0.38222781540E+02 -0.18646798826E+03  0.19067336530E+03  0.00000000000E+00 0.  1.
</event>
<event>
12    1  0.1345781E-002  0.2152249E+03  0.7818608E-02  0.1137494E+00
         -2   -1    0    0    0  501 -0.00000000000E+00  0.00000000000E+00  0.57845381217E+02  0.57845381217E+02  0.00000000000E+00 0.  1.
          2   -1    0    0  502    0  0.00000000000E+00 -0.00000000000E+00 -0.11926471688E+04  0.11926471688E+04  0.00000000000E+00 0. -1.
          6    2    1    2  502    0 -0.79288108448E+02  0.10425145921E+03 -0.20805623975E+03  0.29896146509E+03  0.17010463785E+03 0.  0.
         24    2    3    3    0    0 -0.92638650423E+02  0.31854964606E+02 -0.18182943863E+03  0.22067082389E+03  0.77698194580E+02 0.  0.
         -6    2    1    2    0  501  0.79288108448E+02 -0.10425145921E+03 -0.92674554779E+03  0.95153108489E+03  0.17146172830E+03 0.  0.
        -24    2    5    5    0    0  0.15408639576E+01 -0.33108944396E+02 -0.23300338869E+03  0.24981450053E+03  0.83774274554E+02 0.  0.
          5    1    3    3  502    0  0.13350541975E+02  0.72396494606E+02 -0.26226801122E+02  0.78290641198E+02  0.47000000000E+01 0. -1.
        -13    1    4    4    0    0 -0.48022475034E+02 -0.11938055045E+02 -0.33645554080E+02  0.59838938627E+02  0.00000000000E+00 0.  1.
         14    1    4    4    0    0 -0.44616175388E+02  0.43793019651E+02 -0.14818388455E+03  0.16083188526E+03  0.00000000000E+00 0. -1.
         -5    1    5    5    0  501  0.77747244490E+02 -0.71142514816E+02 -0.69374215910E+03  0.70171658436E+03  0.47000000000E+01 0.  1.
         13    1    6    6    0    0  0.32736511417E+02 -0.36970789551E+02 -0.19142111413E+03  0.19768804059E+03  0.00000000000E+00 0. -1.
        -14    1    6    6    0    0 -0.31195647460E+02  0.38618451553E+01 -0.41582274557E+02  0.52126459939E+02  0.00000000000E+00 0.  1.
</event>
<event>
12    1  0.1345781E-002  0.3188599E+03  0.7818608E-02  0.1076175E+00
          1   -1    0    0  502    0  0.00000000000E+00  0.00000000000E+00  0.54096340552E+02  0.54096340552E+02  0.00000000000E+00 0.  1.
         -1   -1    0    0    0  501 -0.00000000000E+00 -0.00000000000E+00 -0.18843723927E+04  0.18843723927E+04  0.00000000000E+00 0. -1.
          6    2    1    2  502    0  0.17186678079E+02 -0.26745513394E+03 -0.96265058245E+03  0.10138699515E+04  0.17148907848E+03 0.  0.
         24    2    3    3    0    0  0.21593100242E+01 -0.15982604937E+03 -0.36434438010E+03  0.40575627509E+03  0.79638550885E+02 0.  0.
         -6    2    1    2    0  501 -0.17186678079E+02  0.26745513394E+03 -0.86762546974E+03  0.92459878181E+03  0.17401528963E+03 0.  0.
        -24    2    5    5    0    0  0.45853933360E+02  0.17273819521E+03 -0.65003838981E+03  0.67901448972E+03  0.81053696606E+02 0.  0.
          5    1    3    3  502    0  0.15027368054E+02 -0.10762908457E+03 -0.59830620235E+03  0.60811367638E+03  0.47000000000E+01 0. -1.
        -11    1    4    4    0    0 -0.29939791061E+02 -0.35187751754E+02 -0.63428003359E+02  0.78470889968E+02  0.00000000000E+00 0.  1.
         12    1    4    4    0    0  0.32099101085E+02 -0.12463829762E+03 -0.30091637674E+03  0.32728538512E+03  0.00000000000E+00 0. -1.
         -5    1    5    5    0  501 -0.63040611438E+02  0.94716938735E+02 -0.21758707993E+03  0.24558429210E+03  0.47000000000E+01 0.  1.
         13    1    6    6    0    0 -0.85955797002E+01  0.12041614493E+03 -0.39749101884E+03  0.41541911609E+03  0.00000000000E+00 0. -1.
        -14    1    6    6    0    0  0.54449513060E+02  0.52322050280E+02 -0.25254737097E+03  0.26359537363E+03  0.00000000000E+00 0.  1.
</event>
<event>
12    1  0.1345781E-002  0.4191350E+03  0.7818608E-02  0.1037348E+00
          1   -1    0    0  502    0  0.00000000000E+00  0.00000000000E+00  0.11534093676E+03  0.11534093676E+03  0.00000000000E+00 0.  1.
         -1   -1    0    0    0  501 -0.00000000000E+00 -0.00000000000E+00 -0.15393080446E+04  0.15393080446E+04  0.00000000000E+00 0. -1.
          6    2    1    2  502    0 -0.31985602214E+03 -0.20904706816E+03 -0.62749228900E+03  0.75474496751E+03  0.17287232752E+03 0.  0.
         24    2    3    3    0    0 -0.31192850531E+03 -0.22432138683E+03 -0.55158968052E+03  0.67677416331E+03  0.78438609407E+02 0.  0.
         -6    2    1    2    0  501  0.31985602214E+03  0.20904706816E+03 -0.79647481882E+03  0.89990401383E+03  0.17159995774E+03 0.  0.
        -24    2    5    5    0    0  0.30738153113E+03  0.23051357880E+03 -0.73140450136E+03  0.83009957114E+03  0.80578146589E+02 0.  0.
          5    1    3    3  502    0 -0.79275168246E+01  0.15274318674E+02 -0.75902608483E+02  0.77970804205E+02  0.47000000000E+01 0. -1.
        -13    1    4    4    0    0 -0.10208996264E+03 -0.50142706869E+02 -0.11311127213E+03  0.16040826477E+03  0.00000000000E+00 0.  1.
         14    1    4    4    0    0 -0.20983854267E+03 -0.17417867996E+03 -0.43847840839E+03  0.51636589853E+03  0.00000000000E+00 0. -1.
         -5    1    5    5    0  501  0.12474491011E+02 -0.21466510648E+02 -0.65070317456E+02  0.69804442690E+02  0.47000000000E+01 0.  1.
         13    1    6    6    0    0  0.13910593328E+03  0.75628954382E+02 -0.23276935025E+03  0.28151690861E+03  0.00000000000E+00 0. -1.
        -14    1    6    6    0    0  0.16827559785E+03  0.15488462442E+03 -0.49863515111E+03  0.54858266254E+03  0.00000000000E+00 0.  1.
</event>
<event>
12    1  0.1345781E-002  0.2091847E+03  0.7818608E-02  0.1142213E+00
          2   -1    0    0  502    0  0.00000000000E+00  0.00000000000E+00  0.14024661216E+03  0.14024661216E+03  0.00000000000E+00 0.  1.
         -2   -1    0    0    0  501 -0.00000000000E+00 -0.00000000000E+00 -0.50129597593E+03  0.50129597593E+03  0.00000000000E+00 0. -1.
          6    2    1    2  502    0 -0.51352806500E+02  0.10674262188E+03  0.16451376501E+02  0.21007864479E+03  0.17271737362E+03 0.  0.
         24    2    3    3    0    0  0.17451943633E+02  0.10629019223E+03  0.29840329552E+02  0.13982444636E+03  0.84013422930E+02 0.  0.
         -6    2    1    2    0  501  0.51352806500E+02 -0.10674262188E+03 -0.37750074026E+03  0.43146394330E+03  0.17211399538E+03 0.  0.
        -24    2    5    5    0    0  0.32007996782E+02 -0.13092130884E+02 -0.28527996707E+03  0.29853013595E+03  0.80868205831E+02 0.  0.
          5    1    3    3  502    0 -0.68804750133E+02  0.45242964987E+00 -0.13388953051E+02  0.70254198431E+02  0.47000000000E+01 0. -1.
        -11    1    4    4    0    0 -0.15430688201E+02  0.98518940708E+02  0.89988926034E+01  0.10012526097E+03  0.00000000000E+00 0.  1.
         12    1    4    4    0    0  0.32882631834E+02  0.77712515180E+01  0.20841436948E+02  0.39699185389E+02  0.00000000000E+00 0. -1.
         -5    1    5    5    0  501  0.19344809718E+02 -0.93650490992E+02 -0.92220773196E+02  0.13293380734E+03  0.47000000000E+01 0.  1.
         11    1    6    6    0    0 -0.44072885676E-01 -0.35263710615E+02 -0.21753382086E+03  0.22037353391E+03  0.00000000000E+00 0. -1.
        -12    1    6    6    0    0  0.32052069667E+02  0.22171579731E+02 -0.67746146205E+02  0.78156602046E+02  0.00000000000E+00 0.  1.
</event>
<event>
12    1  0.1345781E-002  0.2058542E+03  0.7818608E-02  0.1144892E+00
         -2   -1    0    0    0  501 -0.00000000000E+00  0.00000000000E+00  0.25984191296E+02  0.25984191296E+02  0.00000000000E+00 0. -1.
          2   -1    0    0  502    0  0.00000000000E+00 -0.00000000000E+00 -0.16589144706E+04  0.16589144706E+04  0.00000000000E+00 0.  1.
          6    2    1    2  502    0 -0.32958961333E+02 -0.10527918047E+03 -0.70181311566E+03  0.73100875790E+03  0.17222704738E+03 0.  0.
         24    2    3    3    0    0  0.67951300731E+01 -0.12574367613E+03 -0.62831000032E+03  0.64484622932E+03  0.72080212919E+02 0.  0.
         -6    2    1    2    0  501  0.32958961333E+02  0.10527918047E+03 -0.93111716365E+03  0.95388990399E+03  0.17537610307E+03 0.  0.
        -24    2    5    5    0    0  0.26413650601E+02  0.10531114575E+03 -0.38810526659E+03  0.41081822137E+03  0.79735780563E+02 0.  0.
          5    1    3    3  502    0 -0.39754091406E+02  0.20464495667E+02 -0.73503115341E+02  0.86162528580E+02  0.47000000000E+01 0. -1.
        -13    1    4    4    0    0 -0.10313934464E+02 -0.86200257254E+01 -0.20088858269E+03  0.20133778766E+03  0.00000000000E+00 0.  1.
         14    1    4    4    0    0  0.17109064537E+02 -0.11712365041E+03 -0.42742141763E+03  0.44350844166E+03  0.00000000000E+00 0. -1.
         -5    1    5    5    0  501  0.65453107322E+01 -0.31965287219E-01 -0.54301189706E+03  0.54307168262E+03  0.47000000000E+01 0.  1.
         13    1    6    6    0    0  0.17708173836E+02 -0.91238258033E+01 -0.54886028107E+02  0.58389208757E+02  0.00000000000E+00 0. -1.
        -14    1    6    6    0    0  0.87054767655E+01  0.11443497156E+03 -0.33321923848E+03  0.35242901262E+03  0.00000000000E+00 0.  1.
</event>
<event>
12    1  0.1345781E-002  0.1838072E+03  0.7818608E-02  0.1164168E+00
         -4   -1    0    0    0  501 -0.00000000000E+00  0.00000000000E+00  0.17158311744E+04  0.17158311744E+04  0.00000000000E+00 0. -1.
          4   -1    0    0  502    0  0.00000000000E+00 -0.00000000000E+00 -0.19695408885E+02  0.19695408885E+02  0.00000000000E+00 0.  1.
          6    2    1    2  502    0 -0.54306270092E+02  0.32888124423E+02  0.86484258033E+03  0.88429666895E+03  0.17319673863E+03 0.  0.
         24    2    3    3    0    0 -0.32630522155E+02 -0.29778935135E+02  0.24357191221E+03  0.25947963056E+03  0.77787314540E+02 0.  0.
         -6    2    1    2    0  501  0.54306270092E+02 -0.32888124423E+02  0.83129318519E+03  0.85122991433E+03  0.17179408493E+03 0.  0.
        -24    2    5    5    0    0 -0.25863995075E+01  0.38382759035E+02  0.31881542121E+03  0.33068033624E+03  0.78906820491E+02 0.  0.
          5    1    3    3  502    0 -0.21675747937E+02  0.62667059558E+02  0.62127066812E+03  0.62481703839E+03  0.47000000000E+01 0. -1.
        -13    1    4    4    0    0 -0.48621481158E+02  0.60684988699E+01  0.15597307814E+03  0.16348845896E+03  0.00000000000E+00 0.  1.
         14    1    4    4    0    0  0.15990959003E+02 -0.35847434005E+02  0.87598834075E+02  0.95991171604E+02  0.00000000000E+00 0. -1.
         -5    1    5    5    0  501  0.56892669600E+02 -0.71270883458E+02  0.51247776398E+03  0.52054957810E+03  0.47000000000E+01 0.  1.
         13    1    6    6    0    0  0.58967117315E+01  0.19719180172E+02  0.30559263610E+03  0.30628495966E+03  0.00000000000E+00 0. -1.
        -14    1    6    6    0    0 -0.84831112389E+01  0.18663578864E+02  0.13222785109E+02  0.24395376577E+02  0.00000000000E+00 0.  1.
</event>
<event>
12    1  0.1345781E-002  0.2210624E+03  0.7818608E-02  0.1133093E+00
         -2   -1    0    0    0  501 -0.00000000000E+00  0.00000000000E+00  0.34894427667E+02  0.34894427667E+02  0.00000000000E+00 0. -1.
          2   -1    0    0  502    0  0.00000000000E+00 -0.00000000000E+00 -0.18680473644E+04  0.18680473644E+04  0.00000000000E+00 0.  1.
          6    2    1    2  502    0  0.11967420691E+02 -0.13858261230E+03 -0.13951083110E+04  0.14126413502E+04  0.17285839696E+03 0.  0.
         24    2    3    3    0    0  0.36940666172E+02 -0.86042215946E+02 -0.48677193862E+03  0.50243191740E+03  0.81994119640E+02 0.  0.
         -6    2    1    2    0  501 -0.11967420691E+02  0.13858261230E+03 -0.43804462577E+03  0.49030044186E+03  0.17077198112E+03 0.  0.
        -24    2    5    5    0    0 -0.23069111838E+02  0.14410936448E+03 -0.23403935525E+03  0.28586455231E+03  0.75129419075E+02 0.  0.
          5    1    3    3  502    0 -0.24973245481E+02 -0.52540396353E+02 -0.90833637236E+03  0.91020943282E+03  0.47000000000E+01 0. -1.
        -11    1    4    4    0    0  0.14451627336E+02 -0.10237311111E+02 -0.28751085081E+03  0.28805579564E+03  0.00000000000E+00 0.  1.
         12    1    4    4    0    0  0.22489038836E+02 -0.75804904834E+02 -0.19926108781E+03  0.21437612176E+03  0.00000000000E+00 0. -1.
         -5    1    5    5    0  501  0.11101691147E+02 -0.55267521841E+01 -0.20400527052E+03  0.20443588955E+03  0.47000000000E+01 0.  1.
         13    1    6    6    0    0  0.25824728463E+02  0.73022607375E+02 -0.12087306813E+03  0.14356014902E+03  0.00000000000E+00 0. -1.
        -14    1    6    6    0    0 -0.48893840301E+02  0.71086757107E+02 -0.11316628712E+03  0.14230440329E+03  0.00000000000E+00 0.  1.
</event>
<event>
12    1  0.1345781E-002  0.1894067E+03  0.7818608E-02  0.1158998E+00
         -2   -1    0    0    0  501 -0.00000000000E+00  0.00000000000E+00  0.74547395785E+02  0.74547395785E+02  0.00000000000E+00 0. -1.
          2   -1    0    0  502    0  0.00000000000E+00 -0.00000000000E+00 -0.49401732554E+03  0.49401732554E+03  0.00000000000E+00 0.  1.
          6    2    1    2  502    0 -0.73236447266E+02  0.31593953271E+02 -0.25602683455E+03  0.31878851158E+03  0.17237929114E+03 0.  0.
         24    2    3    3    0    0 -0.15245710677E+01  0.71423689061E+02 -0.16334924414E+03  0.19493284233E+03  0.78817319049E+02 0.  0.
         -6    2    1    2    0  501  0.73236447266E+02 -0.31593953271E+02 -0.16344309521E+03  0.24977620975E+03  0.17120967990E+03 0.  0.
        -24    2    5    5    0    0 -0.18594035365E+02  0.73204779799E+01 -0.11118764399E+03  0.13708240920E+03  0.77650287745E+02 0.  0.
          5    1    3    3  502    0 -0.71711876198E+02 -0.39829735790E+02 -0.92677590409E+02  0.12385566925E+03  0.47000000000E+01 0. -1.
        -11    1    4    4    0    0 -0.18495208209E+02  0.47318547265E+02 -0.15667582594E+03  0.16470710998E+03  0.00000000000E+00 0.  1.
         12    1    4    4    0    0  0.16970637141E+02  0.24105141796E+02 -0.66734181995E+01  0.30225732356E+02  0.00000000000E+00 0. -1.
         -5    1    5    5    0  501  0.91830482631E+02 -0.38914431251E+02 -0.52255451219E+02  0.11269380055E+03  0.47000000000E+01 0.  1.
         13    1    6    6    0    0  0.19220717655E+02  0.17809024408E+02 -0.91430618521E+01  0.27752349766E+02  0.00000000000E+00 0. -1.
        -14    1    6    6    0    0 -0.37814753020E+02 -0.10488546428E+02 -0.10204458213E+03  0.10933005943E+03  0.00000000000E+00 0.  1.
</event>
<event>
12    1  0.1345781E-002  0.1890767E+03  0.7818608E-02  0.1159297E+00
          2   -1    0    0  502    0  0.00000000000E+00  0.00000000000E+00  0.49313540442E+04  0.49313540442E+04  0.00000000000E+00 0.  1.
         -2   -1    0    0    0  501 -0.00000000000E+00 -0.00000000000E+00 -0.78213151783E+01  0.78213151783E+01  0.00000000000E+00 0. -1.
          6    2    1    2  502    0  0.72931983247E+02  0.18930157449E+02  0.31454974983E+04  0.31512563692E+04  0.17488501273E+03 0.  0.
         24    2    3    3    0    0  0.86730397582E+02 -0.11529368116E+01  0.30588826736E+04  0.30611567312E+04  0.79961434356E+02 0.  0.
         -6    2    1    2    0  501 -0.72931983247E+02 -0.18930157449E+02  0.17780352307E+04  0.17879189901E+04  0.17195234413E+03 0.  0.
        -24    2    5    5    0    0 -0.90798202392E+02  0.35717967559E+02  0.10251184347E+04  0.10327955492E+04  0.79238592414E+02 0.  0.
          5    1    3    3  502    0 -0.13798414335E+02  0.20083094260E+02  0.86614824706E+02  0.90099638024E+02  0.47000000000E+01 0. -1.
        -11    1    4    4    0    0  0.90780561730E+02  0.16086295940E+02  0.19976720783E+04  0.19997983928E+04  0.00000000000E+00 0.  1.
         12    1    4    4    0    0 -0.40501641478E+01 -0.17239232752E+02  0.10612105953E+04  0.10613583384E+04  0.00000000000E+00 0. -1.
         -5    1    5    5    0  501  0.17866219145E+02 -0.54648125007E+02  0.75291679595E+03  0.75512344089E+03  0.47000000000E+01 0.  1.
         13    1    6    6    0    0 -0.17303668786E+02 -0.24338216874E+02  0.19588992291E+03  0.19815304099E+03  0.00000000000E+00 0. -1.
        -14    1    6    6    0    0 -0.73494533606E+02  0.60056184432E+02  0.82922851180E+03  0.83464250822E+03  0.00000000000E+00 0.  1.
</event>
<event>
12    1  0.1345781E-002  0.1831619E+03  0.7818608E-02  0.1164778E+00
          2   -1    0    0  502    0  0.00000000000E+00  0.00000000000E+00  0.25454470814E+04  0.25454470814E+04  0.00000000000E+00 0.  1.
         -2   -1    0    0    0  501 -0.00000000000E+00 -0.00000000000E+00 -0.13658132896E+02  0.13658132896E+02  0.00000000000E+00 0. -1.
          6    2    1    2  502    0  0.97348947555E+00 -0.22712601349E+02  0.97009161163E+03  0.98547652809E+03  0.17195767654E+03 0.  0.
         24    2    3    3    0    0  0.48096780461E+01  0.53283145751E+02  0.49644944786E+03  0.50573799594E+03  0.80290968622E+02 0.  0.
         -6    2    1    2    0  501 -0.97348947555E+00  0.22712601349E+02  0.15616973369E+04  0.15736286862E+04  0.19207253866E+03 0.  0.
        -24    2    5    5    0    0 -0.56869161227E+02 -0.16955010513E+02  0.50043261916E+03  0.51014256189E+03  0.79316160079E+02 0.  0.
          5    1    3    3  502    0 -0.38361885705E+01 -0.75995747101E+02  0.47364216377E+03  0.47973853214E+03  0.47000000000E+01 0. -1.
        -13    1    4    4    0    0  0.15275711748E+02 -0.14838373775E+02  0.21161297975E+03  0.21268187019E+03  0.00000000000E+00 0.  1.
         14    1    4    4    0    0 -0.10466033702E+02  0.68121519526E+02  0.28483646810E+03  0.29305612576E+03  0.00000000000E+00 0. -1.
         -5    1    5    5    0  501  0.55895671752E+02  0.39667611862E+02  0.10612647177E+04  0.10634861243E+04  0.47000000000E+01 0.  1.
         13    1    6    6    0    0 -0.41488045052E+01 -0.23642836711E+02  0.39974182759E+02  0.46627584045E+02  0.00000000000E+00 0. -1.
        -14    1    6    6    0    0 -0.52720356722E+02  0.66878261981E+01  0.46045843640E+03  0.46351497785E+03  0.00000000000E+00 0.  1.
</event>
<event>
12    1  0.1345781E-002  0.1711734E+03  0.7818608E-02  0.1176630E+00
         -2   -1    0    0    0  501 -0.00000000000E+00  0.00000000000E+00  0.93216593942E+02  0.93216593942E+02  0.00000000000E+00 0. -1.
          2   -1    0    0  502    0  0.00000000000E+00 -0.00000000000E+00 -0.33879728936E+03  0.33879728936E+03  0.00000000000E+00 0.  1.
          6    2    1    2  502    0  0.13006162601E+02  0.32691510922E+02 -0.18425699363E+03  0.25556377696E+03  0.17356355966E+03 0.  0.
         24    2    3    3    0    0  0.64784021674E+02  0.16853222900E+02 -0.16987082442E+03  0.19934234046E+03  0.80001694514E+02 0.  0.
         -6    2    1    2    0  501 -0.13006162601E+02 -0.32691510922E+02 -0.61323701781E+02  0.17645010634E+03  0.16166678222E+03 0.  0.
        -24    2    5    5    0    0  0.89700072493E+01 -0.66573929215E+02 -0.11803580197E+01  0.10385339767E+03  0.79193344926E+02 0.  0.
          5    1    3    3  502    0 -0.51777859073E+02  0.15838288021E+02 -0.14386169211E+02  0.56221436501E+02  0.47000000000E+01 0. -1.
        -13    1    4    4    0    0 -0.31646814048E+01  0.83183413861E+01 -0.10380842842E+03  0.10418925003E+03  0.00000000000E+00 0.  1.
         14    1    4    4    0    0  0.67948703079E+02  0.85348815144E+01 -0.66062396002E+02  0.95153090429E+02  0.00000000000E+00 0. -1.
         -5    1    5    5    0  501 -0.21976169850E+02  0.33882418294E+02 -0.60143343762E+02  0.72596708669E+02  0.47000000000E+01 0.  1.
         13    1    6    6    0    0 -0.20047778012E+02  0.90406882225E+01  0.52410123336E+01  0.22607867149E+02  0.00000000000E+00 0. -1.
        -14    1    6    6    0    0  0.29017785261E+02 -0.75614617438E+02 -0.64213703534E+01  0.81245530517E+02  0.00000000000E+00 0.  1.
</event>
<event>
12    1  0.1345781E-002  0.2347955E+03  0.7818608E-02  0.1123309E+00
          1   -1    0    0  502    0  0.00000000000E+00  0.00000000000E+00  0.75044303513E+03  0.75044303513E+03  0.00000000000E+00 0. -1.
         -1   -1    0    0    0  501 -0.00000000000E+00 -0.00000000000E+00 -0.73577843854E+02  0.73577843854E+02  0.00000000000E+00 0.  1.
          6    2    1    2  502    0  0.13980407407E+03  0.77395601583E+02  0.35557633399E+03  0.42641532480E+03  0.17280116222E+03 0.  0.
         24    2    3    3    0    0  0.14556337742E+03  0.91970754890E+02  0.21877335247E+03  0.28863742229E+03  0.76173914144E+02 0.  0.
         -6    2    1    2    0  501 -0.13980407407E+03 -0.77395601583E+02  0.32128885729E+03  0.39760555418E+03  0.17125533167E+03 0.  0.
        -24    2    5    5    0    0 -0.10032075017E+02 -0.46289620024E+02  0.82294271957E+02  0.12383766774E+03  0.79498737748E+02 0.  0.
          5    1    3    3  502    0 -0.57593033485E+01 -0.14575153308E+02  0.13680298151E+03  0.13777790251E+03  0.47000000000E+01 0. -1.
        -11    1    4    4    0    0  0.24549332272E+02 -0.11267405329E+02  0.17876196076E+02  0.32391087107E+02  0.00000000000E+00 0.  1.
         12    1    4    4    0    0  0.12101404515E+03  0.10323816022E+03  0.20089715640E+03  0.25624633519E+03  0.00000000000E+00 0. -1.
         -5    1    5    5    0  501 -0.12977199905E+03 -0.31105981558E+02  0.23899458533E+03  0.27376788644E+03  0.47000000000E+01 0.  1.
         11    1    6    6    0    0  0.14574676113E+02  0.66657546879E+01 -0.67209689365E+01  0.17378863392E+02  0.00000000000E+00 0. -1.
        -12    1    6    6    0    0 -0.24606751130E+02 -0.52955374712E+02  0.89015240894E+02  0.10645880435E+03  0.00000000000E+00 0.  1.
</event>
<event>
12    1  0.1345781E-002  0.1784202E+03  0.7818608E-02  0.1169341E+00
         -2   -1    0    0    0  501 -0.00000000000E+00  0.00000000000E+00  0.57480166956E+02  0.57480166956E+02  0.00000000000E+00 0.  1.
          2   -1    0    0  502    0  0.00000000000E+00 -0.00000000000E+00 -0.57878691270E+03  0.57878691270E+03  0.00000000000E+00 0. -1.
          6    2    1    2  502    0  0.33500979948E+02  0.42107362793E+01 -0.19135933879E+03  0.26001123035E+03  0.17276399338E+03 0.  0.
         24    2    3    3    0    0  0.45547671833E+02  0.64220819998E+02 -0.13561899511E+03  0.17709314519E+03  0.82283449783E+02 0.  0.
         -6    2    1    2    0  501 -0.33500979948E+02 -0.42107362793E+01 -0.32994740696E+03  0.37625584931E+03  0.17766014416E+03 0.  0.
        -24    2    5    5    0    0  0.25243030346E+02  0.32554127047E+02 -0.81858772894E+02  0.11862709650E+03  0.75329592829E+02 0.  0.
          5    1    3    3  502    0 -0.12046691885E+02 -0.60010083719E+02 -0.55740343682E+02  0.82918085163E+02  0.47000000000E+01 0. -1.
        -13    1    4    4    0    0 -0.13285697923E+01  0.21058499854E+02  0.58833660617E+01  0.21905239328E+02  0.00000000000E+00 0.  1.
         14    1    4    4    0    0  0.46876241625E+02  0.43162320144E+02 -0.14150236117E+03  0.15518790586E+03  0.00000000000E+00 0. -1.
         -5    1    5    5    0  501 -0.58744010294E+02 -0.36764863326E+02 -0.24808863406E+03  0.25762875280E+03  0.47000000000E+01 0.  1.
         11    1    6    6    0    0  0.15944011313E+02  0.54517761291E+02 -0.74465725599E+02  0.93656511156E+02  0.00000000000E+00 0. -1.
        -12    1    6    6    0    0  0.92990190321E+01 -0.21963634244E+02 -0.73930472949E+01  0.24970585345E+02  0.00000000000E+00 0.  1.
</event>
<event>
12    1  0.1345781E-002  0.2621614E+03  0.7818608E-02  0.1105852E+00
         -1   -1    0    0    0  501 -0.00000000000E+00  0.00000000000E+00  0.65027526573E+02  0.65027526573E+02  0.00000000000E+00 0. -1.
          1   -1    0    0  502    0  0.00000000000E+00 -0.00000000000E+00 -0.10617327569E+04  0.10617327569E+04  0.00000000000E+00 0.  1.
          6    2    1    2  502    0 -0.18963018914E+03  0.35691011722E+02 -0.54440832575E+03  0.60652023912E+03  0.18507543964E+03 0.  0.
         24    2    3    3    0    0 -0.19089410141E+03  0.71617815124E+02 -0.38476174871E+03  0.44280874826E+03  0.80425834601E+02 0.  0.
         -6    2    1    2    0  501  0.18963018914E+03 -0.35691011722E+02 -0.45229690460E+03  0.52024004438E+03  0.16983449860E+03 0.  0.
        -24    2    5    5    0    0  0.13702679626E+03 -0.83212064470E+02 -0.26061979440E+03  0.31581995737E+03  0.78223894536E+02 0.  0.
          5    1    3    3  502    0  0.12639122633E+01 -0.35926803403E+02 -0.15964657704E+03  0.16371149086E+03  0.47000000000E+01 0. -1.
        -13    1    4    4    0    0 -0.68046212140E+02  0.21254343256E+02 -0.21969252178E+03  0.23096934476E+03  0.00000000000E+00 0.  1.
         14    1    4    4    0    0 -0.12284788927E+03  0.50363471868E+02 -0.16506922694E+03  0.21183940350E+03  0.00000000000E+00 0. -1.
         -5    1    5    5    0  501  0.52603392886E+02  0.47521052748E+02 -0.19167711020E+03  0.20442008701E+03  0.47000000000E+01 0.  1.
         11    1    6    6    0    0  0.11435600994E+03 -0.31999026555E+02 -0.14556280669E+03  0.18785570367E+03  0.00000000000E+00 0. -1.
        -12    1    6    6    0    0  0.22670786313E+02 -0.51213037915E+02 -0.11505698771E+03  0.12796425370E+03  0.00000000000E+00 0.  1.
</event>
<event>
12    1  0.1345781E-002  0.1903534E+03  0.7818608E-02  0.1158143E+00
         -2   -1    0    0    0  501 -0.00000000000E+00  0.00000000000E+00  0.22926883460E+03  0.22926883460E+03  0.00000000000E+00 0. -1.
          2   -1    0    0  502    0  0.00000000000E+00 -0.00000000000E+00 -0.17982536819E+03  0.17982536819E+03  0.00000000000E+00 0.  1.
          6    2    1    2  502    0  0.34230790259E+02 -0.69035015220E+02 -0.46124989636E+02  0.19835749906E+03  0.17686323088E+03 0.  0.
         24    2    3    3    0    0  0.42393562204E+01 -0.94929182381E+02 -0.77053547061E+02  0.14787324733E+03  0.83064591447E+02 0.  0.
         -6    2    1    2    0  501 -0.34230790259E+02  0.69035015220E+02  0.95568456040E+02  0.21073670373E+03  0.17128645066E+03 0.  0.
        -24    2    5    5    0    0 -0.85902249992E+02  0.30374059865E+02  0.45905542995E+02  0.12917014102E+03  0.79220113523E+02 0.  0.
          5    1    3    3  502    0  0.29991434038E+02  0.25894167161E+02  0.30928557425E+02  0.50484251733E+02  0.47000000000E+01 0. -1.
        -13    1    4    4    0    0 -0.26866941001E+02 -0.67365352297E+02 -0.77724463400E+02  0.10630623415E+03  0.00000000000E+00 0.  1.
         14    1    4    4    0    0  0.31106297221E+02 -0.27563830084E+02  0.67091633884E+00  0.41567013177E+02  0.00000000000E+00 0. -1.
         -5    1    5    5    0  501  0.51671459733E+02  0.38660955355E+02  0.49662913044E+02  0.81566562708E+02  0.47000000000E+01 0.  1.
         11    1    6    6    0    0  0.28207072302E+01 -0.12896240569E+02  0.24995913278E+02  0.28267739398E+02  0.00000000000E+00 0. -1.
        -12    1    6    6    0    0 -0.88722957222E+02  0.43270300434E+02  0.20909629718E+02  0.10090240162E+03  0.00000000000E+00 0.  1.
</event>
<event>
12    1  0.1345781E-002  0.2703521E+03  0.7818608E-02  0.1101078E+00
         -1   -1    0    0    0  501 -0.00000000000E+00  0.00000000000E+00  0.15638078229E+03  0.15638078229E+03  0.00000000000E+00 0. -1.
          1   -1    0    0  502    0  0.00000000000E+00 -0.00000000000E+00 -0.54696075412E+03  0.54696075412E+03  0.00000000000E+00 0.  1.
          6    2    1    2  502    0 -0.11656550556E+03  0.17296178743E+03 -0.60937799968E+02  0.27679183990E+03  0.17145556326E+03 0.  0.
         24    2    3    3    0    0 -0.32843307390E+02  0.14685734044E+03 -0.77707678462E+02  0.18738173173E+03  0.80172743571E+02 0.  0.
         -6    2    1    2    0  501  0.11656550556E+03 -0.17296178743E+03 -0.32964217186E+03  0.42654969652E+03  0.17256125037E+03 0.  0.
        -24    2    5    5    0    0  0.58542511661E+02 -0.15468504871E+03 -0.15860343622E+03  0.24495386482E+03  0.86560129058E+02 0.  0.
          5    1    3    3  502    0 -0.83722198169E+02  0.26104446993E+02  0.16769878494E+02  0.89410108175E+02  0.47000000000E+01 0. -1.
        -11    1    4    4    0    0 -0.11921889608E+02 -0.61476937793E+01 -0.16502473462E+02  0.21266340094E+02  0.00000000000E+00 0.  1.
         12    1    4    4    0    0 -0.20921417782E+02  0.15300503422E+03 -0.61205205000E+02  0.16611539163E+03  0.00000000000E+00 0. -1.
         -5    1    5    5    0  501  0.58022993898E+02 -0.18276738716E+02 -0.17103873564E+03  0.18159583169E+03  0.47000000000E+01 0.  1.
         11    1    6    6    0    0  0.58027367211E+02 -0.58813043508E+02 -0.38149214253E+02  0.91002813035E+02  0.00000000000E+00 0. -1.
        -12    1    6    6    0    0  0.51514444987E+00 -0.95872005206E+02 -0.12045422197E+03  0.15395105179E+03  0.00000000000E+00 0.  1.
</event>
<event>
12    1  0.1345781E-002  0.2077491E+03  0.7818608E-02  0.1143361E+00
          2   -1    0    0  502    0  0.00000000000E+00  0.00000000000E+00  0.86977319556E+03  0.86977319556E+03  0.00000000000E+00 0. -1.
         -2   -1    0    0    0  501 -0.00000000000E+00 -0.00000000000E+00 -0.61541891854E+02  0.61541891854E+02  0.00000000000E+00 0.  1.
          6    2    1    2  502    0 -0.59540925369E+02 -0.10151090058E+03  0.61189640719E+03  0.64679780377E+03  0.17343760001E+03 0.  0.
         24    2    3    3    0    0  0.17512340967E+02 -0.32200654623E+02  0.15297199257E+03  0.17629294260E+03  0.79594012690E+02 0.  0.
         -6    2    1    2    0  501  0.59540925369E+02  0.10151090058E+03  0.19633489652E+03  0.28451728365E+03  0.16897665038E+03 0.  0.
        -24    2    5    5    0    0  0.28306362426E+02 -0.13339422127E+02  0.68531248148E+02  0.10981165385E+03  0.79892909644E+02 0.  0.
          5    1    3    3  502    0 -0.77053266336E+02 -0.69310245955E+02  0.45892441462E+03  0.47050486117E+03  0.47000000000E+01 0. -1.
        -13    1    4    4    0    0 -0.24320438528E+02  0.10394597698E+02  0.33035888245E+02  0.42319041856E+02  0.00000000000E+00 0.  1.
         14    1    4    4    0    0  0.41832779494E+02 -0.42595252320E+02  0.11993610432E+03  0.13397390074E+03  0.00000000000E+00 0. -1.
         -5    1    5    5    0  501  0.31234562943E+02  0.11485032270E+03  0.12780364837E+03  0.17470562980E+03  0.47000000000E+01 0.  1.
         11    1    6    6    0    0  0.30090421777E+02 -0.23043445599E+02 -0.26094133436E+01  0.37990036928E+02  0.00000000000E+00 0. -1.
        -12    1    6    6    0    0 -0.17840593514E+01  0.97040234716E+01  0.71140661492E+02  0.71821616919E+02  0.00000000000E+00 0.  1.
</event>
<event>
12    1  0.1345781E-002  0.5553730E+03  0.7818608E-02  0.1000258E+00
         -1   -1    0    0    0  501 -0.00000000000E+00  0.00000000000E+00  0.99278825081E+02  0.99278825081E+02  0.00000000000E+00 0.  1.
          1   -1    0    0  502    0  0.00000000000E+00 -0.00000000000E+00 -0.33270313744E+04  0.33270313744E+04  0.00000000000E+00 0. -1.
          6    2    1    2  502    0  0.39284466130E+03 -0.35264194925E+03 -0.20544918507E+04  0.21282183251E+04  0.17231715611E+03 0.  0.
         24    2    3    3    0    0  0.23043909080E+03 -0.15535339095E+03 -0.88290097809E+03  0.92907462754E+03  0.80179023204E+02 0.  0.
         -6    2    1    2    0  501 -0.39284466130E+03  0.35264194925E+03 -0.11732606986E+04  0.12980918744E+04  0.17268055825E+03 0.  0.
        -24    2    5    5    0    0 -0.86431574863E+02  0.10836052432E+03 -0.28438178232E+03  0.32665468552E+03  0.81350261802E+02 0.  0.
          5    1    3    3  502    0  0.16240557050E+03 -0.19728855831E+03 -0.11715908726E+04  0.11991436975E+04  0.47000000000E+01 0. -1.
        -13    1    4    4    0    0  0.87623966707E+02 -0.16155731775E+02 -0.24321744969E+03  0.25902450665E+03  0.00000000000E+00 0.  1.
         14    1    4    4    0    0  0.14281512410E+03 -0.13919765917E+03 -0.63968352840E+03  0.67005012089E+03  0.00000000000E+00 0. -1.
         -5    1    5    5    0  501 -0.30641308644E+03  0.24428142494E+03 -0.88887891632E+03  0.97143718891E+03  0.47000000000E+01 0.  1.
         11    1    6    6    0    0 -0.96288008349E+02  0.81967216836E+02 -0.26108917017E+03  0.29009922435E+03  0.00000000000E+00 0. -1.
        -12    1    6    6    0    0  0.98564334863E+01  0.26393307479E+02 -0.23292612145E+02  0.36555461169E+02  0.00000000000E+00 0.  1.
</event>
<event>
12    1  0.1345781E-002  0.1945711E+03  0.7818608E-02  0.1154402E+00
         -4   -1    0    0    0  501 -0.00000000000E+00  0.00000000000E+00  0.86306219635E+03  0.86306219635E+03  0.00000000000E+00 0. -1.
          4   -1    0    0  502    0  0.00000000000E+00 -0.00000000000E+00 -0.43878625385E+02  0.43878625385E+02  0.00000000000E+00 0.  1.
          6    2    1    2  502    0  0.70134842951E+02 -0.46992917593E+02  0.41717747775E+03  0.46022107495E+03  0.17504045070E+03 0.  0.
         24    2    3    3    0    0 -0.91955000734E+01 -0.47767167768E+02  0.12074464041E+03  0.15331975556E+03  0.81002590812E+02 0.  0.
         -6    2    1    2    0  501 -0.70134842951E+02  0.46992917593E+02  0.40200609321E+03  0.44671974679E+03  0.17556310174E+03 0.  0.
        -24    2    5    5    0    0  0.56979693212E+00  0.50140309205E+01  0.32296485550E+03  0.33256642758E+03  0.79174905693E+02 0.  0.
          5    1    3    3  502    0  0.79330343024E+02  0.77425017525E+00  0.29643283734E+03  0.30690131939E+03  0.47000000000E+01 0. -1.
        -13    1    4    4    0    0  0.18793258338E+02 -0.24521371997E+02  0.41401609450E+01  0.31170902718E+02  0.00000000000E+00 0.  1.
         14    1    4    4    0    0 -0.27988758412E+02 -0.23245795771E+02  0.11660447947E+03  0.12214885284E+03  0.00000000000E+00 0. -1.
         -5    1    5    5    0  501 -0.70704639883E+02  0.41978886673E+02  0.79041237711E+02  0.11415331921E+03  0.47000000000E+01 0.  1.
         11    1    6    6    0    0 -0.14669082206E+02 -0.14917991140E+02  0.29183602067E+03  0.29258501567E+03  0.00000000000E+00 0. -1.
        -12    1    6    6    0    0  0.15238879138E+02  0.19932022060E+02  0.31128834830E+02  0.39981411914E+02  0.00000000000E+00 0.  1.
</event>
<event>
12    1  0.1345781E-002  0.2740336E+03  0.7818608E-02  0.1098993E+00
         -3   -1    0    0    0  501 -0.00000000000E+00  0.00000000000E+00  0.43342463081E+02  0.43342463081E+02  0.00000000000E+00 0.  1.
          3   -1    0    0  502    0  0.00000000000E+00 -0.00000000000E+00 -0.20507353807E+04  0.20507353807E+04  0.00000000000E+00 0. -1.
          6    2    1    2  502    0  0.17884958549E+03 -0.11427834994E+03 -0.14152193422E+04  0.14414521038E+04  0.17289206324E+03 0.  0.
         24    2    3    3    0    0  0.16309058580E+03 -0.14963076895E+03 -0.12028091662E+04  0.12254930510E+04  0.78073181515E+02 0.  0.
         -6    2    1    2    0  501 -0.17884958549E+03  0.11427834994E+03 -0.59217357543E+03  0.65262573999E+03  0.17379326098E+03 0.  0.
        -24    2    5    5    0    0 -0.18480067546E+03  0.49262381952E+02 -0.47654914528E+03  0.51975892543E+03  0.80449864902E+02 0.  0.
          5    1    3    3  502    0  0.15758999688E+02  0.35352419006E+02 -0.21241017601E+03  0.21595905277E+03  0.47000000000E+01 0. -1.
        -11    1    4    4    0    0  0.66696319187E+02 -0.84438933057E+02 -0.39696998567E+03  0.41129490871E+03  0.00000000000E+00 0.  1.
         12    1    4    4    0    0  0.96394266610E+02 -0.65191835889E+02 -0.80583918049E+03  0.81419814229E+03  0.00000000000E+00 0. -1.
         -5    1    5    5    0  501  0.59510899747E+01  0.65015967987E+02 -0.11562443014E+03  0.13286681456E+03  0.47000000000E+01 0.  1.
         11    1    6    6    0    0 -0.22139176663E+02 -0.15029212278E+02 -0.11571138483E+03  0.11876508302E+03  0.00000000000E+00 0. -1.
        -12    1    6    6    0    0 -0.16266149880E+03  0.64291594230E+02 -0.36083776045E+03  0.40099384241E+03  0.00000000000E+00 0.  1.
</event>
<event>
12    1  0.1345781E-002  0.2234576E+03  0.7818608E-02  0.1131331E+00
         -1   -1    0    0    0  501 -0.00000000000E+00  0.00000000000E+00  0.19386951826E+03  0.19386951826E+03  0.00000000000E+00 0.  1.
          1   -1    0    0  502    0  0.00000000000E+00 -0.00000000000E+00 -0.43475395593E+03  0.43475395593E+03  0.00000000000E+00 0. -1.
          6    2    1    2  502    0  0.10825064156E+03 -0.94330471328E+02  0.79855019546E+02  0.23835606819E+03  0.17268570259E+03 0.  0.
         24    2    3    3    0    0 -0.17190619942E+01 -0.63767288053E+02  0.58020677450E+02  0.12205356449E+03  0.86379693177E+02 0.  0.
         -6    2    1    2    0  501 -0.10825064156E+03  0.94330471328E+02 -0.32073945722E+03  0.39026740599E+03  0.16975985845E+03 0.  0.
        -24    2    5    5    0    0 -0.25195332441E+02 -0.70745434302E+00 -0.74864248735E+02  0.11384906391E+03  0.81985659399E+02 0.  0.
          5    1    3    3  502    0  0.10996970356E+03 -0.30563183275E+02  0.21834342096E+02  0.11630250370E+03  0.47000000000E+01 0. -1.
        -13    1    4    4    0    0  0.46208846025E+01 -0.79984189393E+02  0.65125161085E+02  0.10324780740E+03  0.00000000000E+00 0.  1.
         14    1    4    4    0    0 -0.63399465968E+01  0.16216901340E+02 -0.71044836344E+01  0.18805757087E+02  0.00000000000E+00 0. -1.
         -5    1    5    5    0  501 -0.83055309123E+02  0.95037925671E+02 -0.24587520849E+03  0.27641834208E+03  0.47000000000E+01 0.  1.
         13    1    6    6    0    0 -0.49965557777E+02 -0.91765631425E+01 -0.23026250388E+02  0.55776110316E+02  0.00000000000E+00 0. -1.
        -14    1    6    6    0    0  0.24770225336E+02  0.84691087995E+01 -0.51837998346E+02  0.58072953598E+02  0.00000000000E+00 0.  1.
</event>
<event>
12    1  0.1345781E-002  0.2107693E+03  0.7818608E-02  0.1140958E+00
         -1   -1    0    0    0  501 -0.00000000000E+00  0.00000000000E+00  0.20800368342E+02  0.20800368342E+02  0.00000000000E+00 0.  1.
          1   -1    0    0  502    0  0.00000000000E+00 -0.00000000000E+00 -0.23562208384E+04  0.23562208384E+04  0.00000000000E+00 0. -1.
          6    2    1    2  502    0  0.10979306476E+03 -0.63266266576E+02 -0.15179145014E+04  0.15321238291E+04  0.16517220304E+03 0.  0.
         24    2    3    3    0    0  0.36169200321E+02 -0.29598043303E+02 -0.12147508830E+04  0.12183017582E+04  0.80344328256E+02 0.  0.
         -6    2    1    2    0  501 -0.10979306476E+03  0.63266266576E+02 -0.81750596864E+03  0.84489737760E+03  0.17169284306E+03 0.  0.
        -24    2    5    5    0    0 -0.64179197884E+01  0.64628771664E+01 -0.49181747677E+03  0.49847548253E+03  0.80687159773E+02 0.  0.
          5    1    3    3  502    0  0.73623864442E+02 -0.33668223272E+02 -0.30316361841E+03  0.31382207093E+03  0.47000000000E+01 0. -1.
        -11    1    4    4    0    0 -0.15581949053E+02  0.52216873971E+01 -0.72075623953E+02  0.73925359138E+02  0.00000000000E+00 0.  1.
         12    1    4    4    0    0  0.51751149374E+02 -0.34819730700E+02 -0.11426752591E+04  0.11443763991E+04  0.00000000000E+00 0. -1.
         -5    1    5    5    0  501 -0.10337514497E+03  0.56803389409E+02 -0.32568849187E+03  0.34642189507E+03  0.47000000000E+01 0.  1.
         11    1    6    6    0    0 -0.42723948246E+02 -0.26789163017E+01 -0.29995588628E+03  0.30299512547E+03  0.00000000000E+00 0. -1.
        -12    1    6    6    0    0  0.36306028458E+02  0.91417934681E+01 -0.19186159050E+03  0.19548035707E+03  0.00000000000E+00 0.  1.
</event>
<event>
12    1  0.1345781E-002  0.2328505E+03  0.7818608E-02  0.1124649E+00
          2   -1    0    0  502    0  0.00000000000E+00  0.00000000000E+00  0.14936621669E+04  0.14936621669E+04  0.00000000000E+00 0. -1.
         -2   -1    0    0    0  501 -0.00000000000E+00 -0.00000000000E+00 -0.37017364720E+02  0.37017364720E+02  0.00000000000E+00 0.  1.
          6    2    1    2  502    0 -0.15520697538E+03  0.83766678843E+01  0.83997582481E+03  0.87211167888E+03  0.17567020355E+03 0.  0.
         24    2    3    3    0    0 -0.11994226669E+03 -0.59707055951E+02  0.58551816516E+03  0.60631140860E+03  0.82649395630E+02 0.  0.
         -6    2    1    2    0  501  0.15520697538E+03 -0.83766678843E+01  0.61666897739E+03  0.65856785275E+03  0.17108949480E+03 0.  0.
        -24    2    5    5    0    0  0.74655852832E+02  0.27489693101E+02  0.50346850101E+03  0.51500143242E+03  0.73598670464E+02 0.  0.
          5    1    3    3  502    0 -0.35264708690E+02  0.68083723835E+02  0.25445765965E+03  0.26580027028E+03  0.47000000000E+01 0. -1.
        -13    1    4    4    0    0 -0.67954831914E+02  0.82321049590E+01  0.32416504778E+03  0.33131345420E+03  0.00000000000E+00 0.  1.
         14    1    4    4    0    0 -0.51987434779E+02 -0.67939160910E+02  0.26135311738E+03  0.27499795440E+03  0.00000000000E+00 0. -1.
         -5    1    5    5    0  501  0.80551122552E+02 -0.35866360986E+02  0.11320047638E+03  0.14356642033E+03  0.47000000000E+01 0.  1.
         13    1    6    6    0    0  0.27516390033E+02  0.38163778294E+02  0.12685134822E+03  0.13529556622E+03  0.00000000000E+00 0. -1.
        -14    1    6    6    0    0  0.47139462799E+02 -0.10674085193E+02  0.37661715279E+03  0.37970586620E+03  0.00000000000E+00 0.  1.
</event>
<event>
12    1  0.1345781E-002  0.2142458E+03  0.7818608E-02  0.1138247E+00
         -2   -1    0    0    0  501 -0.00000000000E+00  0.00000000000E+00  0.22800726012E+02  0.22800726012E+02  0.00000000000E+00 0.  1.
          2   -1    0    0  502    0  0.00000000000E+00 -0.00000000000E+00 -0.20296252158E+04  0.20296252158E+04  0.00000000000E+00 0. -1.
          6    2    1    2  502    0 -0.57473361578E+01  0.12695953468E+03 -0.91134540384E+03  0.93620928189E+03  0.17258510679E+03 0.  0.
         24    2    3    3    0    0  0.34479956356E+02  0.11651520096E+03 -0.84709740489E+03  0.85954628861E+03  0.80505586456E+02 0.  0.
         -6    2    1    2    0  501  0.57473361578E+01 -0.12695953468E+03 -0.10954790860E+04  0.11162166600E+04  0.17237589394E+03 0.  0.
        -24    2    5    5    0    0  0.26979577439E+02 -0.96365170822E+02 -0.10479025432E+04  0.10556159950E+04  0.78811452762E+02 0.  0.
          5    1    3    3  502    0 -0.40227292514E+02  0.10444333720E+02 -0.64247998953E+02  0.76662993284E+02  0.47000000000E+01 0. -1.
        -13    1    4    4    0    0  0.32771528190E+02  0.59840031897E+02 -0.23153122684E+03  0.24137421461E+03  0.00000000000E+00 0.  1.
         14    1    4    4    0    0  0.17084281662E+01  0.56675169061E+02 -0.61556617804E+03  0.61817207400E+03  0.00000000000E+00 0. -1.
         -5    1    5    5    0  501 -0.21232241281E+02 -0.30594363857E+02 -0.47576542732E+02  0.60600664913E+02  0.47000000000E+01 0.  1.
         11    1    6    6    0    0  0.41812946213E+02 -0.14723003207E+02 -0.34829085836E+03  0.35110057150E+03  0.00000000000E+00 0. -1.
        -12    1    6    6    0    0 -0.14833368774E+02 -0.81642167615E+02 -0.69961168489E+03  0.70451542354E+03  0.00000000000E+00 0.  1.
</event>
<event>
12    1  0.1345781E-002  0.1782275E+03  0.7818608E-02  0.1169530E+00
          2   -1    0    0  502    0  0.00000000000E+00  0.00000000000E+00  0.35357981867E+04  0.35357981867E+04  0.00000000000E+00 0. -1.
         -2   -1    0    0    0  501 -0.00000000000E+00 -0.00000000000E+00 -0.11997561097E+02  0.11997561097E+02  0.00000000000E+00 0.  1.
          6    2    1    2  502    0  0.19991977408E+02  0.39019554751E+02  0.87497014042E+03  0.89299526882E+03  0.17304796642E+03 0.  0.
         24    2    3    3    0    0 -0.49813805245E+02  0.12046729507E+02  0.34463543799E+03  0.35738592685E+03  0.79527207350E+02 0.  0.
         -6    2    1    2    0  501 -0.19991977408E+02 -0.39019554751E+02  0.26488304851E+04  0.26548004789E+04  0.17245416540E+03 0.  0.
        -24    2    5    5    0    0 -0.63965431551E+02 -0.16787981339E+02  0.23169339197E+04  0.23192333058E+04  0.79290136948E+02 0.  0.
          5    1    3    3  502    0  0.69805782653E+02  0.26972825243E+02  0.53033470244E+03  0.53560934197E+03  0.47000000000E+01 0. -1.
        -11    1    4    4    0    0 -0.35866644865E+02 -0.30798011961E+02  0.13729729793E+03  0.14520840807E+03  0.00000000000E+00 0.  1.
         12    1    4    4    0    0 -0.13947160380E+02  0.42844741469E+02  0.20733814006E+03  0.21217751878E+03  0.00000000000E+00 0. -1.
         -5    1    5    5    0  501  0.43973454143E+02 -0.22231573411E+02  0.33189656545E+03  0.33556717313E+03  0.47000000000E+01 0.  1.
         13    1    6    6    0    0 -0.55734184979E+02 -0.45280416011E+02  0.14274456710E+04  0.14292507684E+04  0.00000000000E+00 0. -1.
        -14    1    6    6    0    0 -0.82312465721E+01  0.28492434672E+02  0.88948824870E+03  0.88998253738E+03  0.00000000000E+00 0.  1.
</event>
<event>
12    1  0.1345781E-002  0.2058064E+03  0.7818608E-02  0.1144931E+00
          1   -1    0    0  502    0  0.00000000000E+00  0.00000000000E+00  0.30788642553E+03  0.30788642553E+03  0.00000000000E+00 0.  1.
         -1   -1    0    0    0  501 -0.00000000000E+00 -0.00000000000E+00 -0.14659649616E+03  0.14659649616E+03  0.00000000000E+00 0. -1.
          6    2    1    2  502    0  0.39017151687E+02 -0.10157983403E+03  0.13681029007E+03  0.24664372164E+03  0.17399789984E+03 0.  0.
         24    2    3    3    0    0  0.85022749194E+02 -0.93204477265E+02  0.13303869364E+03  0.19949526947E+03  0.78632856183E+02 0.  0.
         -6    2    1    2    0  501 -0.39017151687E+02  0.10157983403E+03  0.24479639297E+02  0.20783920004E+03  0.17537696407E+03 0.  0.
        -24    2    5    5    0    0 -0.30860202639E+02 -0.13283237267E+02 -0.10771729312E+02  0.87320280554E+02  0.79874931890E+02 0.  0.
          5    1    3    3  502    0 -0.46005597507E+02 -0.83753567661E+01  0.37715964331E+01  0.47148452176E+02  0.47000000000E+01 0. -1.
        -11    1    4    4    0    0  0.43632157173E+02 -0.21081847002E+02  0.97867838680E+02  0.10920770696E+03  0.00000000000E+00 0.  1.
         12    1    4    4    0    0  0.41390592022E+02 -0.72122630264E+02  0.35170854959E+02  0.90287562502E+02  0.00000000000E+00 0. -1.
         -5    1    5    5    0  501 -0.81569490484E+01  0.11486307130E+03  0.35251368609E+02  0.12051891949E+03  0.47000000000E+01 0.  1.
         13    1    6    6    0    0  0.11224669314E+02 -0.17087247634E+02 -0.33570497751E+02  0.39305795401E+02  0.00000000000E+00 0. -1.
        -14    1    6    6    0    0 -0.42084871953E+02  0.38040103664E+01  0.22798768439E+02  0.48014485153E+02  0.00000000000E+00 0.  1.
</event>
<event>
12    1  0.1345781E-002  0.2245600E+03  0.7818608E-02  0.1130528E+00
          1   -1    0    0  502    0  0.00000000000E+00  0.00000000000E+00  0.65375745532E+03  0.65375745532E+03  0.00000000000E+00 0.  1.
         -1   -1    0    0    0  501 -0.00000000000E+00 -0.00000000000E+00 -0.10420157594E+03  0.10420157594E+03  0.00000000000E+00 0. -1.
          6    2    1    2  502    0  0.60665369877E+02 -0.13084003825E+03  0.46787460521E+03  0.51894727667E+03  0.17204716520E+03 0.  0.
         24    2    3    3    0    0  0.63188211636E+02 -0.16215444488E+03  0.38278665631E+03  0.42812323888E+03  0.80480241893E+02 0.  0.
         -6    2    1    2    0  501 -0.60665369877E+02  0.13084003825E+03  0.81681274164E+02  0.23901175459E+03  0.17220739117E+03 0.  0.
        -24    2    5    5    0    0 -0.97620382655E+01  0.45774537871E+02 -0.23060021501E+02  0.94719975404E+02  0.79053800924E+02 0.  0.
          5    1    3    3  502    0 -0.25228417593E+01  0.31314406631E+02  0.85087948900E+02  0.90824037794E+02  0.47000000000E+01 0. -1.
        -13    1    4    4    0    0 -0.36261287123E+01 -0.49358361066E+02  0.17975548500E+03  0.18644417664E+03  0.00000000000E+00 0.  1.
         14    1    4    4    0    0  0.66814340348E+02 -0.11279608381E+03  0.20303117131E+03  0.24167906224E+03  0.00000000000E+00 0. -1.
         -5    1    5    5    0  501 -0.50903331611E+02  0.85065500376E+02  0.10474129567E+03  0.14429177919E+03  0.47000000000E+01 0.  1.
         13    1    6    6    0    0  0.33314811445E+01  0.55497604695E+02 -0.42034922658E+02  0.69699480747E+02  0.00000000000E+00 0. -1.
        -14    1    6    6    0    0 -0.13093519410E+02 -0.97230668242E+01  0.18974901157E+02  0.25020494658E+02  0.00000000000E+00 0.  1.
</event>
<event>
12    1  0.1345781E-002  0.3220691E+03  0.7818608E-02  0.1074701E+00
          2   -1    0    0  502    0  0.00000000000E+00  0.00000000000E+00  0.15393381892E+04  0.15393381892E+04  0.00000000000E+00 0.  1.
         -2   -1    0    0    0  501 -0.00000000000E+00 -0.00000000000E+00 -0.73778835907E+02  0.73778835907E+02  0.00000000000E+00 0. -1.
          6    2    1    2  502    0 -0.98357597731E+01 -0.27262166295E+03  0.49389280220E+03  0.58924344012E+03  0.16987765710E+03 0.  0.
         24    2    3    3    0    0  0.31468896809E+02 -0.25317441310E+03  0.46868875612E+03  0.53688311048E+03  0.59048702643E+02 0.  0.
         -6    2    1    2    0  501  0.98357597731E+01  0.27262166295E+03  0.97166655106E+03  0.10238735850E+04  0.17251642890E+03 0.  0.
        -24    2    5    5    0    0  0.68947347634E+02  0.12586738706E+03  0.53805438029E+03  0.56227570589E+03  0.77814635005E+02 0.  0.
          5    1    3    3  502    0 -0.41304656582E+02 -0.19447249841E+02  0.25204046081E+02  0.52360329646E+02  0.47000000000E+01 0. -1.
        -13    1    4    4    0    0  0.12492170693E+02 -0.21599813678E+03  0.35454708378E+03  0.41534911103E+03  0.00000000000E+00 0.  1.
         14    1    4    4    0    0  0.18976726116E+02 -0.37176276326E+02  0.11414167234E+03  0.12153399944E+03  0.00000000000E+00 0. -1.
         -5    1    5    5    0  501 -0.59111587861E+02  0.14675427588E+03  0.43361217078E+03  0.46159787906E+03  0.47000000000E+01 0.  1.
         13    1    6    6    0    0  0.65566770546E+02  0.71039718588E+02  0.23208172086E+03  0.25141115364E+03  0.00000000000E+00 0. -1.
        -14    1    6    6    0    0  0.33805770881E+01  0.54827668473E+02  0.30597265942E+03  0.31086455225E+03  0.00000000000E+00 0.  1.
</event>
<event>
12    1  0.1345781E-002  0.2031075E+03  0.7818608E-02  0.1147143E+00
          2   -1    0    0  502    0  0.00000000000E+00  0.00000000000E+00  0.12269846217E+04  0.12269846217E+04  0.00000000000E+00 0.  1.
         -2   -1    0    0    0  501 -0.00000000000E+00 -0.00000000000E+00 -0.61928352754E+02  0.61928352754E+02  0.00000000000E+00 0. -1.
          6    2    1    2  502    0  0.46758093365E+02 -0.96784064097E+02  0.14733933258E+03  0.25119190008E+03  0.17272816037E+03 0.  0.
         24    2    3    3    0    0 -0.43402078722E+02 -0.59506510088E+02  0.81319332069E+02  0.13329701838E+03  0.75700040698E+02 0.  0.
         -6    2    1    2    0  501 -0.46758093365E+02  0.96784064097E+02  0.10177169363E+04  0.10377210743E+04  0.17194124363E+03 0.  0.
        -24    2    5    5    0    0 -0.85296190712E+02  0.44258804898E+02  0.82091611521E+03  0.83036451911E+03  0.79797772030E+02 0.  0.
          5    1    3    3  502    0  0.90160172086E+02 -0.37277554009E+02  0.66020000507E+02  0.11789488170E+03  0.47000000000E+01 0. -1.
        -13    1    4    4    0    0 -0.19392489498E+02 -0.47663547256E+01  0.69569672806E+02  0.72379045038E+02  0.00000000000E+00 0.  1.
         14    1    4    4    0    0 -0.24009589224E+02 -0.54740155362E+02  0.11749659264E+02  0.60917973346E+02  0.00000000000E+00 0. -1.
         -5    1    5    5    0  501  0.38538097348E+02  0.52525259199E+02  0.19680082113E+03  0.20735655523E+03  0.47000000000E+01 0.  1.
         11    1    6    6    0    0 -0.38397982426E+02  0.12134711991E+02  0.10931431255E+03  0.11649581631E+03  0.00000000000E+00 0. -1.
        -12    1    6    6    0    0 -0.46898208287E+02  0.32124092907E+02  0.71160180266E+03  0.71386870280E+03  0.00000000000E+00 0.  1.
</event>
<event>
12    1  0.1345781E-002  0.1904111E+03  0.7818608E-02  0.1158091E+00
         -2   -1    0    0    0  501 -0.00000000000E+00  0.00000000000E+00  0.40380219661E+03  0.40380219661E+03  0.00000000000E+00 0.  1.
          2   -1    0    0  502    0  0.00000000000E+00 -0.00000000000E+00 -0.16194699113E+03  0.16194699113E+03  0.00000000000E+00 0. -1.
          6    2    1    2  502    0  0.80572853705E+02  0.21421084448E+02  0.30972729974E+03  0.36354170600E+03  0.17111611318E+03 0.  0.
         24    2    3    3    0    0  0.86039701364E+02 -0.27291823288E+02  0.28023348196E+03  0.30614127839E+03  0.83928565411E+02 0.  0.
         -6    2    1    2    0  501 -0.80572853705E+02 -0.21421084448E+02 -0.67872094254E+02  0.20220748174E+03  0.17126119490E+03 0.  0.
        -24    2    5    5    0    0  0.72735508926E+01  0.17030607014E+02 -0.68185729772E+02  0.10619856682E+03  0.79283641009E+02 0.  0.
          5    1    3    3  502    0 -0.54668476585E+01  0.48712907736E+02  0.29493817776E+02  0.57400427615E+02  0.47000000000E+01 0. -1.
        -13    1    4    4    0    0  0.30635197295E+02  0.10015322200E+02  0.19603207557E+03  0.19866402957E+03  0.00000000000E+00 0.  1.
         14    1    4    4    0    0  0.55404504069E+02 -0.37307145488E+02  0.84201406390E+02  0.10747724882E+03  0.00000000000E+00 0. -1.
         -5    1    5    5    0  501 -0.87846404598E+02 -0.38451691462E+02  0.31363551818E+00  0.96008914921E+02  0.47000000000E+01 0.  1.
         13    1    6    6    0    0 -0.56048595045E+01  0.46154663832E+02 -0.25765329585E+02  0.53155617315E+02  0.00000000000E+00 0. -1.
        -14    1    6    6    0    0  0.12878410397E+02 -0.29124056818E+02 -0.42420400187E+02  0.53042949502E+02  0.00000000000E+00 0.  1.
</event>
<event>
12    1  0.1345781E-002  0.2350371E+03  0.7818608E-02  0.1123144E+00
          2   -1    0    0  502    0  0.00000000000E+00  0.00000000000E+00  0.74228670932E+03  0.74228670932E+03  0.00000000000E+00 0. -1.
         -2   -1    0    0    0  501 -0.00000000000E+00 -0.00000000000E+00 -0.76568837733E+02  0.76568837733E+02  0.00000000000E+00 0.  1.
          6    2    1    2  502    0 -0.10060801343E+03  0.12463635831E+03  0.26441847143E+03  0.35383527943E+03  0.17212229012E+03 0.  0.
         24    2    3    3    0    0 -0.77598754828E+02  0.15821041334E+03  0.22707326947E+03  0.29839705018E+03  0.80165006147E+02 0.  0.
         -6    2    1    2    0  501  0.10060801343E+03 -0.12463635831E+03  0.40129940016E+03  0.46502026763E+03  0.17189079835E+03 0.  0.
        -24    2    5    5    0    0  0.39547792219E+02 -0.85391227751E+02  0.36180907310E+03  0.38225489553E+03  0.79732741913E+02 0.  0.
          5    1    3    3  502    0 -0.23009258606E+02 -0.33574055028E+02  0.37345201967E+02  0.55438229252E+02  0.47000000000E+01 0. -1.
        -13    1    4    4    0    0 -0.39082593032E+02  0.46577275415E+02  0.28014692348E+02  0.66945609644E+02  0.00000000000E+00 0.  1.
         14    1    4    4    0    0 -0.38516161796E+02  0.11163313792E+03  0.19905857712E+03  0.23145144054E+03  0.00000000000E+00 0. -1.
         -5    1    5    5    0  501  0.61060221214E+02 -0.39245130557E+02  0.39490327058E+02  0.82765372097E+02  0.47000000000E+01 0.  1.
         11    1    6    6    0    0  0.54371934919E+02 -0.36105545907E+02  0.13873910491E+03  0.15332467833E+03  0.00000000000E+00 0. -1.
        -12    1    6    6    0    0 -0.14824142700E+02 -0.49285681844E+02  0.22306996819E+03  0.22893021720E+03  0.00000000000E+00 0.  1.
</event>
<event>
12    1  0.1345781E-002  0.2910668E+03  0.7818608E-02  0.1089793E+00
          2   -1    0    0  502    0  0.00000000000E+00  0.00000000000E+00  0.10730415951E+04  0.10730415951E+04  0.00000000000E+00 0.  1.
         -2   -1    0    0    0  501 -0.00000000000E+00 -0.00000000000E+00 -0.16327769451E+03  0.16327769451E+03  0.00000000000E+00 0. -1.
          6    2    1    2  502    0 -0.16342493203E+03  0.16808162685E+03  0.89888529844E+03  0.94474084823E+03  0.17199229306E+03 0.  0.
         24    2    3    3    0    0 -0.15475417747E+03  0.14399499420E+03  0.54592061781E+03  0.59081782887E+03  0.79705534108E+02 0.  0.
         -6    2    1    2    0  501  0.16342493203E+03 -0.16808162685E+03  0.10878602191E+02  0.29157844143E+03  0.17303323908E+03 0.  0.
        -24    2    5    5    0    0  0.11791275858E+03 -0.29603835044E+02  0.17212933428E+02  0.14560011938E+03  0.78251543119E+02 0.  0.
          5    1    3    3  502    0 -0.86707545505E+01  0.24086632656E+02  0.35296468063E+03  0.35392301936E+03  0.47000000000E+01 0. -1.
        -13    1    4    4    0    0 -0.93585367586E+02  0.94335500999E+02  0.43442394502E+03  0.45429238578E+03  0.00000000000E+00 0.  1.
         14    1    4    4    0    0 -0.61168809889E+02  0.49659493198E+02  0.11149667279E+03  0.13652544309E+03  0.00000000000E+00 0. -1.
         -5    1    5    5    0  501  0.45512173447E+02 -0.13847779181E+03 -0.63343312373E+01  0.14597832205E+03  0.47000000000E+01 0.  1.
         13    1    6    6    0    0  0.16623811395E+02  0.62307096086E+01 -0.24576721130E+02  0.30318114537E+02  0.00000000000E+00 0. -1.
        -14    1    6    6    0    0  0.10128894718E+03 -0.35834544652E+02  0.41789654559E+02  0.11528200484E+03  0.00000000000E+00 0.  1.
</event>
<event>
12    1  0.1345781E-002  0.2229881E+03  0.7818608E-02  0.1131675E+00
         -1   -1    0    0    0  501 -0.00000000000E+00  0.00000000000E+00  0.28289432645E+02  0.28289432645E+02  0.00000000000E+00 0. -1.
          1   -1    0    0  502    0  0.00000000000E+00 -0.00000000000E+00 -0.22799146927E+04  0.22799146927E+04  0.00000000000E+00 0.  1.
          6    2    1    2  502    0 -0.63583177067E+02  0.12659547158E+03 -0.57448463590E+03  0.61633919892E+03  0.17254616022E+03 0.  0.
         24    2    3    3    0    0 -0.91232941150E+02  0.14046570021E+03 -0.42321057626E+03  0.46186323374E+03  0.78462681190E+02 0.  0.
         -6    2    1    2    0  501  0.63583177067E+02 -0.12659547158E+03 -0.16771406241E+04  0.16918649264E+04  0.17186338252E+03 0.  0.
        -24    2    5    5    0    0  0.80361490913E+02 -0.25938020262E+02 -0.68783308533E+03  0.69729721596E+03  0.77319493003E+02 0.  0.
          5    1    3    3  502    0  0.27649764083E+02 -0.13870228635E+02 -0.15127405964E+03  0.15447596518E+03  0.47000000000E+01 0. -1.
        -11    1    4    4    0    0 -0.34573488755E+02  0.58547710288E+02 -0.27508678646E+03  0.28336531296E+03  0.00000000000E+00 0.  1.
         12    1    4    4    0    0 -0.56659452396E+02  0.81917989925E+02 -0.14812378979E+03  0.17849792078E+03  0.00000000000E+00 0. -1.
         -5    1    5    5    0  501 -0.16778313846E+02 -0.10065745132E+03 -0.98930753880E+03  0.99456771044E+03  0.47000000000E+01 0.  1.
         13    1    6    6    0    0  0.40279077911E+02 -0.46955285469E+02 -0.26880454877E+03  0.27583163051E+03  0.00000000000E+00 0. -1.
        -14    1    6    6    0    0  0.40082413003E+02  0.21017265207E+02 -0.41902853656E+03  0.42146558545E+03  0.00000000000E+00 0.  1.
</event>
<event>
12    1  0.1345781E-002  0.1815180E+03  0.7818608E-02  0.1166342E+00
         -3   -1    0    0    0  501 -0.00000000000E+00  0.00000000000E+00  0.88386477387E+03  0.88386477387E+03  0.00000000000E+00 0. -1.
          3   -1    0    0  502    0  0.00000000000E+00 -0.00000000000E+00 -0.40045740093E+02  0.40045740093E+02  0.00000000000E+00 0.  1.
          6    2    1    2  502    0 -0.56766482718E+02  0.14837155664E+02  0.29917493522E+03  0.34962420168E+03  0.17113990120E+03 0.  0.
         24    2    3    3    0    0  0.30402218592E+02  0.90308037692E+01  0.80859210208E+02  0.11443078765E+03  0.74500623997E+02 0.  0.
         -6    2    1    2    0  501  0.56766482718E+02 -0.14837155664E+02  0.54464409856E+03  0.57428631229E+03  0.17240939545E+03 0.  0.
        -24    2    5    5    0    0 -0.29590125889E+02 -0.21380945564E+02  0.18123336775E+03  0.20066921645E+03  0.78037686164E+02 0.  0.
          5    1    3    3  502    0 -0.87168701309E+02  0.58063518950E+01  0.21831572501E+03  0.23519341402E+03  0.47000000000E+01 0. -1.
        -11    1    4    4    0    0  0.16682388758E+02  0.24289372178E+02  0.87922968664E+02  0.92729305584E+02  0.00000000000E+00 0.  1.
         12    1    4    4    0    0  0.13719829834E+02 -0.15258568409E+02 -0.70637584557E+01  0.21701482071E+02  0.00000000000E+00 0. -1.
         -5    1    5    5    0  501  0.86356608606E+02  0.65437898995E+01  0.36341073081E+03  0.37361709584E+03  0.47000000000E+01 0.  1.
         11    1    6    6    0    0 -0.25602698172E+02  0.13964422423E+02  0.15158093786E+03  0.15436088873E+03  0.00000000000E+00 0. -1.
        -12    1    6    6    0    0 -0.39874277170E+01 -0.35345367987E+02  0.29652429891E+02  0.46308327722E+02  0.00000000000E+00 0.  1.
</event>
<event>
12    1  0.1345781E-002  0.2218474E+03  0.7818608E-02  0.1132513E+00
          2   -1    0    0  502    0  0.00000000000E+00  0.00000000000E+00  0.19810840603E+04  0.19810840603E+04  0.00000000000E+00 0.  1.
         -2   -1    0    0    0  501 -0.00000000000E+00 -0.00000000000E+00 -0.26491662246E+02  0.26491662246E+02  0.00000000000E+00 0. -1.
          6    2    1    2  502    0  0.96748389944E+02  0.10194575861E+03  0.12275134454E+04  0.12473915200E+04  0.17159008388E+03 0.  0.
         24    2    3    3    0    0  0.91902380476E+02  0.79782953888E+02  0.12064674312E+04  0.12160913853E+04  0.92212946734E+02 0.  0.
         -6    2    1    2    0  501 -0.96748389944E+02 -0.10194575861E+03  0.72707895266E+03  0.76018420255E+03  0.17170623095E+03 0.  0.
        -24    2    5    5    0    0 -0.15817177684E+02 -0.25266558862E+02  0.14890219681E+03  0.17133786283E+03  0.79348704579E+02 0.  0.
          5    1    3    3  502    0  0.48460094679E+01  0.22162804725E+02  0.21046014261E+02  0.31300134781E+02  0.47000000000E+01 0. -1.
        -11    1    4    4    0    0 -0.15619020620E+02  0.22579288151E+02  0.13796277323E+03  0.14066806622E+03  0.00000000000E+00 0.  1.
         12    1    4    4    0    0  0.10752140110E+03  0.57203665737E+02  0.10685046580E+04  0.10754233190E+04  0.00000000000E+00 0. -1.
         -5    1    5    5    0  501 -0.80931212259E+02 -0.76679199752E+02  0.57817675585E+03  0.58884633971E+03  0.47000000000E+01 0.  1.
         11    1    6    6    0    0 -0.33447048007E+01  0.17444539274E+02  0.11237521435E+03  0.11377032917E+03  0.00000000000E+00 0. -1.
        -12    1    6    6    0    0 -0.12472472884E+02 -0.42711098135E+02  0.36526982466E+02  0.57567533661E+02  0.00000000000E+00 0.  1.
</event>
<event>
12    1  0.1345781E-002  0.1842448E+03  0.7818608E-02  0.1163757E+00
         -1   -1    0    0    0  501 -0.00000000000E+00  0.00000000000E+00  0.64839508849E+02  0.64839508849E+02  0.00000000000E+00 0.  1.
          1   -1    0    0  502    0  0.00000000000E+00 -0.00000000000E+00 -0.54141492399E+03  0.54141492399E+03  0.00000000000E+00 0. -1.
          6    2    1    2  502    0  0.50018652023E+02 -0.39399255480E+02 -0.29150646251E+03  0.34408433816E+03  0.17135882587E+03 0.  0.
         24    2    3    3    0    0 -0.29436760490E+02 -0.32294238096E+02 -0.95724212203E+02  0.13262175664E+03  0.80721526558E+02 0.  0.
         -6    2    1    2    0  501 -0.50018652023E+02  0.39399255480E+02 -0.18506895264E+03  0.26217009468E+03  0.17443759466E+03 0.  0.
        -24    2    5    5    0    0 -0.40519816163E+02  0.59375841914E+02 -0.20533130528E+03  0.23180655037E+03  0.80037402250E+02 0.  0.
          5    1    3    3  502    0  0.79455412513E+02 -0.71050173839E+01 -0.19578225030E+03  0.21146258152E+03  0.47000000000E+01 0. -1.
        -11    1    4    4    0    0 -0.83160384351E+01 -0.51473981295E+02 -0.28112355686E+02  0.59237081189E+02  0.00000000000E+00 0.  1.
         12    1    4    4    0    0 -0.21120722055E+02  0.19179743199E+02 -0.67611856517E+02  0.73384675451E+02  0.00000000000E+00 0. -1.
         -5    1    5    5    0  501 -0.94988358604E+01 -0.19976586434E+02  0.20262352649E+02  0.30363544311E+02  0.47000000000E+01 0.  1.
         13    1    6    6    0    0  0.12803995394E+01  0.45707572393E+02 -0.16802754890E+03  0.17413810263E+03  0.00000000000E+00 0. -1.
        -14    1    6    6    0    0 -0.41800215702E+02  0.13668269521E+02 -0.37303756382E+02  0.57668447739E+02  0.00000000000E+00 0.  1.
</event>
<event>
12    1  0.1345781E-002  0.2104837E+03  0.7818608E-02  0.1141184E+00
         -1   -1    0    0    0  501 -0.00000000000E+00  0.00000000000E+00  0.67961893804E+02  0.67961893804E+02  0.00000000000E+00 0.  1.
          1   -1    0    0  502    0  0.00000000000E+00 -0.00000000000E+00 -0.81406716305E+03  0.81406716305E+03  0.00000000000E+00 0. -1.
          6    2    1    2  502    0  0.93856294938E+02  0.77066136768E+02 -0.17600445787E+03  0.27426358692E+03  0.17174036329E+03 0.  0.
         24    2    3    3    0    0  0.86708881696E+02  0.31241863449E+02 -0.35952516505E+02  0.12665740202E+03  0.79088746643E+02 0.  0.
         -6    2    1    2    0  501 -0.93856294938E+02 -0.77066136768E+02 -0.57010081138E+03  0.60776546994E+03  0.17209223626E+03 0.  0.
        -24    2    5    5    0    0 -0.95852806532E+01  0.18992063167E+02 -0.20396824439E+03  0.21994601680E+03  0.79502386874E+02 0.  0.
          5    1    3    3  502    0  0.71474132422E+01  0.45824273319E+02 -0.14005194137E+03  0.14760618490E+03  0.47000000000E+01 0. -1.
        -11    1    4    4    0    0  0.69638542410E+02 -0.15670062616E+02 -0.24210149427E+02  0.75373793766E+02  0.00000000000E+00 0.  1.
         12    1    4    4    0    0  0.17070339286E+02  0.46911926065E+02 -0.11742367078E+02  0.51283608249E+02  0.00000000000E+00 0. -1.
         -5    1    5    5    0  501 -0.84271014285E+02 -0.96058199935E+02 -0.36613256699E+03  0.38781945314E+03  0.47000000000E+01 0.  1.
         11    1    6    6    0    0 -0.43080613308E+01 -0.29016923617E+02 -0.11533986893E+03  0.11901187594E+03  0.00000000000E+00 0. -1.
        -12    1    6    6    0    0 -0.52772193223E+01  0.48008986783E+02 -0.88628375455E+02  0.10093414086E+03  0.00000000000E+00 0.  1.
</event>
<event>
12    1  0.1345781E-002  0.1726127E+03  0.7818608E-02  0.1175150E+00
          2   -1    0    0  502    0  0.00000000000E+00  0.00000000000E+00  0.14787140807E+04  0.14787140807E+04  0.00000000000E+00 0. -1.
         -2   -1    0    0    0  501 -0.00000000000E+00 -0.00000000000E+00 -0.32110477390E+02  0.32110477390E+02  0.00000000000E+00 0.  1.
          6    2    1    2  502    0  0.91674209288E+01  0.18511289658E+02  0.26260842064E+03  0.31433252532E+03  0.17150814683E+03 0.  0.
         24    2    3    3    0    0  0.26220558381E+02 -0.31954675144E+02  0.22017014254E+03  0.24606305521E+03  0.10180135818E+03 0.  0.
         -6    2    1    2    0  501 -0.91674209288E+01 -0.18511289658E+02  0.11839951827E+04  0.11964920328E+04  0.17123633511E+03 0.  0.
        -24    2    5    5    0    0  0.41397315825E+02  0.16355052385E+02  0.94842636862E+03  0.95300238092E+03  0.81973994917E+02 0.  0.
          5    1    3    3  502    0 -0.17053137453E+02  0.50465964802E+02  0.42438278108E+02  0.68269470110E+02  0.47000000000E+01 0. -1.
        -13    1    4    4    0    0 -0.35532273506E+02 -0.98169941830E+01  0.40366518136E+02  0.54666000601E+02  0.00000000000E+00 0.  1.
         14    1    4    4    0    0  0.61752831887E+02 -0.22137680961E+02  0.17980362440E+03  0.19139705461E+03  0.00000000000E+00 0. -1.
         -5    1    5    5    0  501 -0.50564736754E+02 -0.34866342043E+02  0.23556881409E+03  0.24348965190E+03  0.47000000000E+01 0.  1.
         11    1    6    6    0    0  0.35886901753E+02 -0.21780410160E+02  0.72981112127E+03  0.73101746129E+03  0.00000000000E+00 0. -1.
        -12    1    6    6    0    0  0.55104140725E+01  0.38135462546E+02  0.21861524735E+03  0.22198491962E+03  0.00000000000E+00 0.  1.
</event>
<event>
12    1  0.1345781E-002  0.2597817E+03  0.7818608E-02  0.1107274E+00
          2   -1    0    0  502    0  0.00000000000E+00  0.00000000000E+00  0.58208122840E+03  0.58208122840E+03  0.00000000000E+00 0.  1.
         -2   -1    0    0    0  501 -0.00000000000E+00 -0.00000000000E+00 -0.14544153638E+03  0.14544153638E+03  0.00000000000E+00 0. -1.
          6    2    1    2  502    0 -0.19167059114E+03  0.34172479529E+02  0.38119416969E+03  0.46050728748E+03  0.16986051027E+03 0.  0.
         24    2    3    3    0    0 -0.21022356969E+03  0.79131020390E+01  0.32217994433E+03  0.39313862478E+03  0.80631850567E+02 0.  0.
         -6    2    1    2    0  501  0.19167059114E+03 -0.34172479529E+02  0.55445522326E+02  0.26701547730E+03  0.17411974416E+03 0.  0.
        -24    2    5    5    0    0  0.12943334920E+03  0.13580176903E+02 -0.24989495489E+02  0.15456249792E+03  0.79546701939E+02 0.  0.
          5    1    3    3  502    0  0.18552978551E+02  0.26259377490E+02  0.59014225363E+02  0.67368662704E+02  0.47000000000E+01 0. -1.
        -13    1    4    4    0    0 -0.13929625479E+03  0.41130715165E+02  0.18533425278E+03  0.23546542757E+03  0.00000000000E+00 0.  1.
         14    1    4    4    0    0 -0.70927314901E+02 -0.33217613126E+02  0.13684569155E+03  0.15767319721E+03  0.00000000000E+00 0. -1.
         -5    1    5    5    0  501  0.62237241947E+02 -0.47752656432E+02  0.80435017815E+02  0.11245297938E+03  0.47000000000E+01 0.  1.
         11    1    6    6    0    0  0.59174804706E+02 -0.26795868818E+02  0.11021430608E+02  0.65887389008E+02  0.00000000000E+00 0. -1.
        -12    1    6    6    0    0  0.70258544491E+02  0.40376045721E+02 -0.36010926097E+02  0.88675108911E+02  0.00000000000E+00 0.  1.
</event>
<event>
12    1  0.1345781E-002  0.1899256E+03  0.7818608E-02  0.1158528E+00
         -2   -1    0    0    0  501 -0.00000000000E+00  0.00000000000E+00  0.12039222297E+02  0.12039222297E+02  0.00000000000E+00 0.  1.
          2   -1    0    0  502    0  0.00000000000E+00 -0.00000000000E+00 -0.34493523784E+04  0.34493523784E+04  0.00000000000E+00 0. -1.
          6    2    1    2  502    0 -0.41321776668E+02 -0.69409554293E+02 -0.10879071679E+04  0.11042858611E+04  0.17140618851E+03 0.  0.
         24    2    3    3    0    0 -0.58461679027E+02 -0.10557677308E+03 -0.73178340043E+03  0.74588933242E+03  0.79244735734E+02 0.  0.
         -6    2    1    2    0  501  0.41321776668E+02  0.69409554293E+02 -0.23494059882E+04  0.23571057396E+04  0.17237689835E+03 0.  0.
        -24    2    5    5    0    0  0.40013166894E+02  0.59921639652E+02 -0.73175199731E+03  0.73941656765E+03  0.78001400805E+02 0.  0.
          5    1    3    3  502    0  0.17139902359E+02  0.36167218788E+02 -0.35612376751E+03  0.35839652866E+03  0.47000000000E+01 0. -1.
        -13    1    4    4    0    0 -0.37399000753E+02 -0.26371011360E+02 -0.45307644253E+03  0.45538157437E+03  0.00000000000E+00 0.  1.
         14    1    4    4    0    0 -0.21062678274E+02 -0.79205761721E+02 -0.27870695790E+03  0.29050775805E+03  0.00000000000E+00 0. -1.
         -5    1    5    5    0  501  0.13086097741E+01  0.94879146408E+01 -0.16176539909E+04  0.16176891720E+04  0.47000000000E+01 0.  1.
         11    1    6    6    0    0  0.63059548807E+01 -0.78628490958E+01 -0.35453518605E+03  0.35467842846E+03  0.00000000000E+00 0. -1.
        -12    1    6    6    0    0  0.33707212013E+02  0.67784488748E+02 -0.37721681125E+03  0.38473813919E+03  0.00000000000E+00 0.  1.
</event>
<event>
12    1  0.1345781E-002  0.1803772E+03  0.7818608E-02  0.1167438E+00
         -2   -1    0    0    0  501 -0.00000000000E+00  0.00000000000E+00  0.12186806324E+03  0.12186806324E+03  0.00000000000E+00 0. -1.
          2   -1    0    0  502    0  0.00000000000E+00 -0.00000000000E+00 -0.44358078861E+03  0.44358078861E+03  0.00000000000E+00 0.  1.
          6    2    1    2  502    0 -0.49078324414E+02 -0.23549668709E+02 -0.33977375460E+03  0.38515002866E+03  0.17300598671E+03 0.  0.
         24    2    3    3    0    0 -0.94840141181E+02 -0.32785431671E+02 -0.28766482904E+03  0.31502960856E+03  0.80144017215E+02 0.  0.
         -6    2    1    2    0  501  0.49078324414E+02  0.23549668709E+02  0.18061029231E+02  0.18029882319E+03  0.17093330876E+03 0.  0.
        -24    2    5    5    0    0  0.65825056334E+02 -0.18103080138E+02  0.57980928292E+02  0.12004027311E+03  0.79920082405E+02 0.  0.
          5    1    3    3  502    0  0.45761816767E+02  0.92357629617E+01 -0.52108925567E+02  0.70120420100E+02  0.47000000000E+01 0. -1.
        -11    1    4    4    0    0 -0.59367320538E+02 -0.21779991901E+02 -0.26287889137E+03  0.27037780663E+03  0.00000000000E+00 0.  1.
         12    1    4    4    0    0 -0.35472820643E+02 -0.11005439770E+02 -0.24785937671E+02  0.44651801925E+02  0.00000000000E+00 0. -1.
         -5    1    5    5    0  501 -0.16746731921E+02  0.41652748847E+02 -0.39919899061E+02  0.60258550079E+02  0.47000000000E+01 0.  1.
         11    1    6    6    0    0  0.49240800094E+02 -0.32761313849E+01  0.76539492925E+02  0.91069662391E+02  0.00000000000E+00 0. -1.
        -12    1    6    6    0    0  0.16584256241E+02 -0.14826948753E+02 -0.18558564633E+02  0.28970610722E+02  0.00000000000E+00 0.  1.
</event>
<event>
12    1  0.1345781E-002  0.2578853E+03  0.7818608E-02  0.1108420E+00
         -1   -1    0    0    0  501 -0.00000000000E+00  0.00000000000E+00  0.12176904622E+04  0.12176904622E+04  0.00000000000E+00 0. -1.
          1   -1    0    0  502    0  0.00000000000E+00 -0.00000000000E+00 -0.63497479592E+02  0.63497479592E+02  0.00000000000E+00 0.  1.
          6    2    1    2  502    0 -0.15069055730E+03  0.11923167746E+03  0.33717728729E+03  0.42438609998E+03  0.17173002599E+03 0.  0.
         24    2    3    3    0    0 -0.11355048717E+03  0.40233469212E+02  0.29203647259E+03  0.32599969408E+03  0.80486359311E+02 0.  0.
         -6    2    1    2    0  501  0.15069055730E+03 -0.11923167746E+03  0.81701569532E+03  0.85680184181E+03  0.17225246809E+03 0.  0.
        -24    2    5    5    0    0  0.11514782872E+03 -0.13016196676E+03  0.47540869011E+03  0.51314475577E+03  0.84279046572E+02 0.  0.
          5    1    3    3  502    0 -0.37140070129E+02  0.78998208244E+02  0.45140814697E+02  0.98386405902E+02  0.47000000000E+01 0. -1.
        -13    1    4    4    0    0 -0.20739407292E+02  0.11530144832E+02  0.68162406950E+01  0.24688628797E+02  0.00000000000E+00 0.  1.
         14    1    4    4    0    0 -0.92811079874E+02  0.28703324380E+02  0.28522023190E+03  0.30131106528E+03  0.00000000000E+00 0. -1.
         -5    1    5    5    0  501  0.35542728577E+02  0.10930289303E+02  0.34160700521E+03  0.34365708604E+03  0.47000000000E+01 0.  1.
         13    1    6    6    0    0  0.62025961454E+02 -0.24934985246E+02  0.24989779957E+03  0.25868491184E+03  0.00000000000E+00 0. -1.
        -14    1    6    6    0    0  0.53121867264E+02 -0.10522698151E+03  0.22551089054E+03  0.25445984393E+03  0.00000000000E+00 0.  1.
</event>
<event>
12    1  0.1345781E-002  0.2260463E+03  0.7818608E-02  0.1129454E+00
         -1   -1    0    0    0  501 -0.00000000000E+00  0.00000000000E+00  0.13363333514E+03  0.13363333514E+03  0.00000000000E+00 0. -1.
          1   -1    0    0  502    0  0.00000000000E+00 -0.00000000000E+00 -0.40956112044E+03  0.40956112044E+03  0.00000000000E+00 0.  1.
          6    2    1    2  502    0  0.14248418990E+03  0.33837775693E+02 -0.20828858893E+03  0.30782169560E+03  0.17298358467E+03 0.  0.
         24    2    3    3    0    0  0.77747346439E+02  0.14636134211E+02 -0.28874392537E+02  0.11606376015E+03  0.79863631107E+02 0.  0.
         -6    2    1    2    0  501 -0.14248418990E+03 -0.33837775693E+02 -0.67639196357E+02  0.23537275998E+03  0.17140167975E+03 0.  0.
        -24    2    5    5    0    0 -0.12722869734E+03 -0.22260460159E+02 -0.10998896804E+03  0.18865705117E+03  0.82530239012E+02 0.  0.
          5    1    3    3  502    0  0.64736843465E+02  0.19201641482E+02 -0.17941419640E+03  0.19175793545E+03  0.47000000000E+01 0. -1.
        -11    1    4    4    0    0  0.58501771412E+02  0.22139335816E+02 -0.54629678493E+02  0.83048234303E+02  0.00000000000E+00 0.  1.
         12    1    4    4    0    0  0.19245575026E+02 -0.75032016049E+01  0.25755285956E+02  0.33015525849E+02  0.00000000000E+00 0. -1.
         -5    1    5    5    0  501 -0.15255492561E+02 -0.11577315534E+02  0.42349771682E+02  0.46715708811E+02  0.47000000000E+01 0.  1.
         11    1    6    6    0    0 -0.41228464347E+02 -0.25793311032E+02  0.45499845016E+00  0.48634228585E+02  0.00000000000E+00 0. -1.
        -12    1    6    6    0    0 -0.86000232996E+02  0.35328508728E+01 -0.11044396649E+03  0.14002282258E+03  0.00000000000E+00 0.  1.
</event>
<event>
12    1  0.1345781E-002  0.1947388E+03  0.7818608E-02  0.1154255E+00
         -2   -1    0    0    0  501 -0.00000000000E+00  0.00000000000E+00  0.38522511929E+02  0.38522511929E+02  0.00000000000E+00 0.  1.
          2   -1    0    0  502    0  0.00000000000E+00 -0.00000000000E+00 -0.10608022201E+04  0.10608022201E+04  0.00000000000E+00 0. -1.
          6    2    1    2  502    0 -0.88608620313E+02 -0.17098297944E+02 -0.36437270601E+03  0.41328347876E+03  0.17289281519E+03 0.  0.
         24    2    3    3    0    0 -0.23931607961E+02 -0.36427362628E+02 -0.31834080959E+03  0.33144367086E+03  0.81328723692E+02 0.  0.
         -6    2    1    2    0  501  0.88608620313E+02  0.17098297944E+02 -0.65790700212E+03  0.68604125323E+03  0.17224151156E+03 0.  0.
        -24    2    5    5    0    0  0.11015493822E+03  0.49365698373E+02 -0.39808707392E+03  0.42329819616E+03  0.78338763478E+02 0.  0.
          5    1    3    3  502    0 -0.64677012352E+02  0.19329064684E+02 -0.46031896417E+02  0.81839807894E+02  0.47000000000E+01 0. -1.
        -11    1    4    4    0    0 -0.13728490065E+02 -0.16347122395E+02 -0.12425014235E+02  0.24699814348E+02  0.00000000000E+00 0.  1.
         12    1    4    4    0    0 -0.10203117896E+02 -0.20080240233E+02 -0.30591579535E+03  0.30674385652E+03  0.00000000000E+00 0. -1.
         -5    1    5    5    0  501 -0.21546317904E+02 -0.32267400430E+02 -0.25981992820E+03  0.26274305707E+03  0.47000000000E+01 0.  1.
         13    1    6    6    0    0  0.18521711129E+01 -0.12159922798E+02 -0.92292444409E+02  0.93108482724E+02  0.00000000000E+00 0. -1.
        -14    1    6    6    0    0  0.10830276710E+03  0.61525621171E+02 -0.30579462951E+03  0.33018971344E+03  0.00000000000E+00 0.  1.
</event>
<event>
12    1  0.1345781E-002  0.2038977E+03  0.7818608E-02  0.1146492E+00
          2   -1    0    0  502    0  0.00000000000E+00  0.00000000000E+00  0.46418305037E+03  0.46418305037E+03  0.00000000000E+00 0.  1.
         -2   -1    0    0    0  501 -0.00000000000E+00 -0.00000000000E+00 -0.89926616242E+02  0.89926616242E+02  0.00000000000E+00 0. -1.
          6    2    1    2  502    0 -0.26507225738E+02  0.10254434677E+03  0.20380033774E+03  0.28761936639E+03  0.17312523267E+03 0.  0.
         24    2    3    3    0    0  0.16406904484E+02  0.93910149875E+01  0.33914012437E+02  0.89118436110E+02  0.80215695085E+02 0.  0.
         -6    2    1    2    0  501  0.26507225738E+02 -0.10254434677E+03  0.17045609638E+03  0.26649030022E+03  0.17533916632E+03 0.  0.
        -24    2    5    5    0    0 -0.47288550287E+02 -0.32836079470E+02  0.64268454333E+02  0.11951083086E+03  0.82692136067E+02 0.  0.
          5    1    3    3  502    0 -0.42914130221E+02  0.93153331785E+02  0.16988632530E+03  0.19850093028E+03  0.47000000000E+01 0. -1.
        -13    1    4    4    0    0  0.45655564667E+02 -0.45840410543E+01  0.33302973113E+02  0.56696843260E+02  0.00000000000E+00 0.  1.
         14    1    4    4    0    0 -0.29248660183E+02  0.13975056042E+02  0.61103932353E+00  0.32421592850E+02  0.00000000000E+00 0. -1.
         -5    1    5    5    0  501  0.73795776025E+02 -0.69708267302E+02  0.10618764205E+03  0.14697946936E+03  0.47000000000E+01 0.  1.
         11    1    6    6    0    0 -0.26818036650E+02 -0.13733917466E+02 -0.16271370602E+02  0.34243029656E+02  0.00000000000E+00 0. -1.
        -12    1    6    6    0    0 -0.20470513637E+02 -0.19102162005E+02  0.80539824935E+02  0.85267801205E+02  0.00000000000E+00 0.  1.
</event>
<event>
12    1  0.1345781E-002  0.1728095E+03  0.7818608E-02  0.1174949E+00
          1   -1    0    0  502    0  0.00000000000E+00  0.00000000000E+00  0.42710851113E+03  0.42710851113E+03  0.00000000000E+00 0. -1.
         -1   -1    0    0    0  501 -0.00000000000E+00 -0.00000000000E+00 -0.93222898398E+02  0.93222898398E+02  0.00000000000E+00 0.  1.
          6    2    1    2  502    0 -0.11109070822E+02  0.16935369332E+01  0.36433671894E+02  0.17602195567E+03  0.17184305894E+03 0.  0.
         24    2    3    3    0    0 -0.51610569890E+02  0.52837232973E+01 -0.27450103094E+02  0.10015043550E+03  0.81148215727E+02 0.  0.
         -6    2    1    2    0  501  0.11109070822E+02 -0.16935369332E+01  0.29745194084E+03  0.34430945386E+03  0.17304641975E+03 0.  0.
        -24    2    5    5    0    0  0.45200212868E+02  0.52986657443E+02  0.14869651455E+03  0.18212931798E+03  0.78802220271E+02 0.  0.
          5    1    3    3  502    0  0.40501499068E+02 -0.35901863641E+01  0.63883774988E+02  0.75871520162E+02  0.47000000000E+01 0. -1.
        -11    1    4    4    0    0 -0.66783822030E+02  0.81477839892E+01  0.15486695553E+01  0.67296832364E+02  0.00000000000E+00 0.  1.
         12    1    4    4    0    0  0.15173252140E+02 -0.28640606919E+01 -0.28998772650E+02  0.32853603141E+02  0.00000000000E+00 0. -1.
         -5    1    5    5    0  501 -0.34091142046E+02 -0.54680194377E+02  0.14875542629E+03  0.16218013588E+03  0.47000000000E+01 0.  1.
         11    1    6    6    0    0 -0.14741442715E+02  0.36752546359E+02  0.81623038232E+02  0.90721442710E+02  0.00000000000E+00 0. -1.
        -12    1    6    6    0    0  0.59941655583E+02  0.16234111085E+02  0.67073476319E+02  0.91407875275E+02  0.00000000000E+00 0.  1.
</event>
<event>
12    1  0.1345781E-002  0.2243420E+03  0.7818608E-02  0.1130687E+00
          2   -1    0    0  502    0  0.00000000000E+00  0.00000000000E+00  0.28613118627E+03  0.28613118627E+03  0.00000000000E+00 0. -1.
         -2   -1    0    0    0  501 -0.00000000000E+00 -0.00000000000E+00 -0.21387728540E+03  0.21387728540E+03  0.00000000000E+00 0.  1.
          6    2    1    2  502    0  0.74012441848E+02  0.12359554305E+03 -0.69259930696E+02  0.23454759254E+03  0.17164479414E+03 0.  0.
         24    2    3    3    0    0  0.62030015523E+02  0.16594002099E+02 -0.71330465055E+02  0.12675480327E+03  0.82798920131E+02 0.  0.
         -6    2    1    2    0  501 -0.74012441848E+02 -0.12359554305E+03  0.14151383156E+03  0.26546087913E+03  0.17230674396E+03 0.  0.
        -24    2    5    5    0    0  0.17089897983E+02 -0.50248346312E+02  0.17991238672E+02  0.95286355344E+02  0.77063895085E+02 0.  0.
          5    1    3    3  502    0  0.11982426325E+02  0.10700154095E+03  0.20705343591E+01  0.10779278927E+03  0.47000000000E+01 0. -1.
        -11    1    4    4    0    0  0.28755344154E+02 -0.29984234285E+02 -0.51514728233E+02  0.66179236532E+02  0.00000000000E+00 0.  1.
         12    1    4    4    0    0  0.33274671369E+02  0.46578236385E+02 -0.19815736823E+02  0.60575566735E+02  0.00000000000E+00 0. -1.
         -5    1    5    5    0  501 -0.91102339831E+02 -0.73347196735E+02  0.12352259289E+03  0.17017452379E+03  0.47000000000E+01 0.  1.
         11    1    6    6    0    0 -0.98460903352E+01  0.59107426742E+01  0.29760526797E+02  0.31899393867E+02  0.00000000000E+00 0. -1.
        -12    1    6    6    0    0  0.26935988318E+02 -0.56159088986E+02 -0.11769288124E+02  0.63386961477E+02  0.00000000000E+00 0.  1.
</event>
<event>
12    1  0.1345781E-002  0.2079375E+03  0.7818608E-02  0.1143210E+00
         -2   -1    0    0    0  501 -0.00000000000E+00  0.00000000000E+00  0.67114062897E+02  0.67114062897E+02  0.00000000000E+00 0.  1.
          2   -1    0    0  502    0  0.00000000000E+00 -0.00000000000E+00 -0.11093199152E+04  0.11093199152E+04  0.00000000000E+00 0. -1.
          6    2    1    2  502    0  0.77395925944E+02  0.87376248564E+02 -0.14021302697E+03  0.25077934595E+03  0.17206350357E+03 0.  0.
         24    2    3    3    0    0 -0.17527264205E+02  0.26127580150E+02 -0.94326611441E+02  0.12875695235E+03  0.81798457917E+02 0.  0.
         -6    2    1    2    0  501 -0.77395925944E+02 -0.87376248564E+02 -0.90199282536E+03  0.92565463217E+03  0.17210666137E+03 0.  0.
        -24    2    5    5    0    0 -0.13793619390E+02 -0.92449534711E+02 -0.76879165250E+03  0.77788577861E+03  0.72996569802E+02 0.  0.
          5    1    3    3  502    0  0.94923190149E+02  0.61248668414E+02 -0.45886415527E+02  0.12202239360E+03  0.47000000000E+01 0. -1.
        -13    1    4    4    0    0  0.18678944718E+02  0.22261501087E+02 -0.15618192247E+01  0.29101833030E+02  0.00000000000E+00 0.  1.
         14    1    4    4    0    0 -0.36206208923E+02  0.38660790633E+01 -0.92764792216E+02  0.99655119320E+02  0.00000000000E+00 0. -1.
         -5    1    5    5    0  501 -0.63602306554E+02  0.50732861467E+01 -0.13320117286E+03  0.14776885356E+03  0.47000000000E+01 0.  1.
         13    1    6    6    0    0 -0.29943033203E+02 -0.92259701991E+02 -0.54910457622E+03  0.55760584060E+03  0.00000000000E+00 0. -1.
        -14    1    6    6    0    0  0.16149413813E+02 -0.18983271916E+00 -0.21968707628E+03  0.22027993800E+03  0.00000000000E+00 0.  1.
</event>
<event>
12    1  0.1345781E-002  0.2325615E+03  0.7818608E-02  0.1124850E+00
         -1   -1    0    0    0  501 -0.00000000000E+00  0.00000000000E+00  0.32425037929E+02  0.32425037929E+02  0.00000000000E+00 0.  1.
          1   -1    0    0  502    0  0.00000000000E+00 -0.00000000000E+00 -0.16681532587E+04  0.16681532587E+04  0.00000000000E+00 0. -1.
          6    2    1    2  502    0 -0.11165353900E+03 -0.11415366350E+03 -0.81150774893E+03  0.84356904648E+03  0.16603113547E+03 0.  0.
         24    2    3    3    0    0 -0.12563849434E+03 -0.10069204949E+03 -0.49598083520E+03  0.52741067269E+03  0.79000687931E+02 0.  0.
         -6    2    1    2    0  501  0.11165353900E+03  0.11415366350E+03 -0.82422047182E+03  0.85700925013E+03  0.17212756020E+03 0.  0.
        -24    2    5    5    0    0  0.14603742345E+03  0.72436322227E+02 -0.63930808634E+03  0.66429892768E+03  0.77487329529E+02 0.  0.
          5    1    3    3  502    0  0.13984955342E+02 -0.13461614007E+02 -0.31552691373E+03  0.31615837379E+03  0.47000000000E+01 0. -1.
        -13    1    4    4    0    0  0.71033535284E+01 -0.25317891418E+02 -0.86187292391E+02  0.90109392556E+02  0.00000000000E+00 0.  1.
         14    1    4    4    0    0 -0.13274184787E+03 -0.75374158071E+02 -0.40979354281E+03  0.43730128013E+03  0.00000000000E+00 0. -1.
         -5    1    5    5    0  501 -0.34383884453E+02  0.41717341269E+02 -0.18491238548E+03  0.19271032244E+03  0.47000000000E+01 0.  1.
         11    1    6    6    0    0  0.60958160922E+02  0.67086137600E+02 -0.40346473115E+03  0.41352174855E+03  0.00000000000E+00 0. -1.
        -12    1    6    6    0    0  0.85079262529E+02  0.53501846276E+01 -0.23584335519E+03  0.25077717913E+03  0.00000000000E+00 0.  1.
</event>
<event>
12    1  0.1345781E-002  0.1928664E+03  0.7818608E-02  0.1155901E+00
         -2   -1    0    0    0  501 -0.00000000000E+00  0.00000000000E+00  0.11256722160E+04  0.11256722160E+04  0.00000000000E+00 0. -1.
          2   -1    0    0  502    0  0.00000000000E+00 -0.00000000000E+00 -0.33099587284E+02  0.33099587284E+02  0.00000000000E+00 0.  1.
          6    2    1    2  502    0  0.16973907346E+02  0.93198112797E+02  0.55468231660E+03  0.58592703241E+03  0.16329119142E+03 0.  0.
         24    2    3    3    0    0 -0.26474145736E+02 -0.14905692768E+01  0.24874863184E+03  0.26270700007E+03  0.80224583862E+02 0.  0.
         -6    2    1    2    0  501 -0.16973907346E+02 -0.93198112797E+02  0.53789031215E+03  0.57284477092E+03  0.17277483005E+03 0.  0.
        -24    2    5    5    0    0 -0.73252888862E+02 -0.71581135363E+02  0.41199137917E+03  0.43317641803E+03  0.86110788841E+02 0.  0.
          5    1    3    3  502    0  0.43448053082E+02  0.94688682073E+02  0.30593368476E+03  0.32322003233E+03  0.47000000000E+01 0. -1.
        -11    1    4    4    0    0  0.48744267349E+01 -0.29508802502E+02  0.17730431101E+03  0.17980919933E+03  0.00000000000E+00 0.  1.
         12    1    4    4    0    0 -0.31348572471E+02  0.28018233225E+02  0.71444320824E+02  0.82897800737E+02  0.00000000000E+00 0. -1.
         -5    1    5    5    0  501  0.56278981516E+02 -0.21616977433E+02  0.12589893298E+03  0.13966835289E+03  0.47000000000E+01 0.  1.
         13    1    6    6    0    0  0.17955826136E+02 -0.13535324877E+02  0.11357923106E+03  0.11578367087E+03  0.00000000000E+00 0. -1.
        -14    1    6    6    0    0 -0.91208714998E+02 -0.58045810487E+02  0.29841214811E+03  0.31739274715E+03  0.00000000000E+00 0.  1.
</event>
<event>
12    1  0.1345781E-002  0.1995503E+03  0.7818608E-02  0.1150119E+00
          1   -1    0    0  502    0  0.00000000000E+00  0.00000000000E+00  0.47978047235E+03  0.47978047235E+03  0.00000000000E+00 0.  1.
         -1   -1    0    0    0  501 -0.00000000000E+00 -0.00000000000E+00 -0.94504796612E+02  0.94504796612E+02  0.00000000000E+00 0. -1.
          6    2    1    2  502    0 -0.23854253007E+02 -0.97947495704E+02  0.92285985770E+02  0.21969405782E+03  0.17200592597E+03 0.  0.
         24    2    3    3    0    0  0.48125566611E+02 -0.33300131050E+02  0.27852928017E+02  0.10335797090E+03  0.80511587111E+02 0.  0.
         -6    2    1    2    0  501  0.23854253007E+02  0.97947495704E+02  0.29298968997E+03  0.35459121115E+03  0.17242166712E+03 0.  0.
        -24    2    5    5    0    0  0.63828506580E+02  0.70322589766E+02  0.11277582300E+03  0.16788233555E+03  0.80291640000E+02 0.  0.
          5    1    3    3  502    0 -0.71979819618E+02 -0.64647364654E+02  0.64433057753E+02  0.11633608692E+03  0.47000000000E+01 0. -1.
        -11    1    4    4    0    0 -0.12535987289E+01  0.19202732308E+02  0.24568547640E+02  0.31207851112E+02  0.00000000000E+00 0.  1.
         12    1    4    4    0    0  0.49379165340E+02 -0.52502863358E+02  0.32843803770E+01  0.72150119785E+02  0.00000000000E+00 0. -1.
         -5    1    5    5    0  501 -0.39974253573E+02  0.27624905939E+02  0.18021386697E+03  0.18670887559E+03  0.47000000000E+01 0.  1.
         11    1    6    6    0    0  0.40358570430E+02 -0.36955109844E+01  0.15441819754E+02  0.43369583879E+02  0.00000000000E+00 0. -1.
        -12    1    6    6    0    0  0.23469936151E+02  0.74018100750E+02  0.97334003246E+02  0.12451275167E+03  0.00000000000E+00 0.  1.
</event>
<event>
12    1  0.1345781E-002  0.2232704E+03  0.7818608E-02  0.1131468E+00
         -1   -1    0    0    0  501 -0.00000000000E+00  0.00000000000E+00  0.13217487075E+03  0.13217487075E+03  0.00000000000E+00 0.  1.
          1   -1    0    0  502    0  0.00000000000E+00 -0.00000000000E+00 -0.55506896626E+03  0.55506896626E+03  0.00000000000E+00 0. -1.
          6    2    1    2  502    0  0.70413785421E+01 -0.12933490859E+03 -0.23099585808E+02  0.23353894128E+03  0.19295011438E+03 0.  0.
         24    2    3    3    0    0 -0.49107138431E+01 -0.28443649260E+02 -0.79913171373E+02  0.11704099183E+03  0.80494239027E+02 0.  0.
         -6    2    1    2    0  501 -0.70413785421E+01  0.12933490859E+03 -0.39979450969E+03  0.45370489573E+03  0.17098357475E+03 0.  0.
        -24    2    5    5    0    0 -0.15792424010E+02  0.15722301908E+03 -0.28859087769E+03  0.33862811582E+03  0.80098862365E+02 0.  0.
          5    1    3    3  502    0  0.11952092385E+02 -0.10089125933E+03  0.56813585566E+02  0.11649794945E+03  0.47000000000E+01 0. -1.
        -13    1    4    4    0    0  0.13622457090E+02 -0.46326118737E+02 -0.20829733046E+02  0.52588576642E+02  0.00000000000E+00 0.  1.
         14    1    4    4    0    0 -0.18533170933E+02  0.17882469477E+02 -0.59083438327E+02  0.64452415191E+02  0.00000000000E+00 0. -1.
         -5    1    5    5    0  501  0.87510454677E+01 -0.27888110490E+02 -0.11120363201E+03  0.11507677991E+03  0.47000000000E+01 0.  1.
         13    1    6    6    0    0 -0.37662730567E+02  0.36846558957E+02 -0.11224867314E+03  0.12399965646E+03  0.00000000000E+00 0. -1.
        -14    1    6    6    0    0  0.21870306558E+02  0.12037646012E+03 -0.17634220455E+03  0.21462845936E+03  0.00000000000E+00 0.  1.
</event>
<event>
12    1  0.1345781E-002  0.1925494E+03  0.7818608E-02  0.1156182E+00
         -1   -1    0    0    0  501 -0.00000000000E+00  0.00000000000E+00  0.28404901328E+02  0.28404901328E+02  0.00000000000E+00 0. -1.
          1   -1    0    0  502    0  0.00000000000E+00 -0.00000000000E+00 -0.14233341186E+04  0.14233341186E+04  0.00000000000E+00 0.  1.
          6    2    1    2  502    0  0.63515357686E+02  0.56970329981E+02 -0.90818857897E+03  0.92847925402E+03  0.17316873569E+03 0.  0.
         24    2    3    3    0    0  0.75253179939E+02  0.69906101736E+02 -0.89855939187E+03  0.90798725787E+03  0.80510717187E+02 0.  0.
         -6    2    1    2    0  501 -0.63515357686E+02 -0.56970329981E+02 -0.48674063830E+03  0.52325976590E+03  0.17205962478E+03 0.  0.
        -24    2    5    5    0    0 -0.26750784208E+02  0.14878160982E+02 -0.37880144793E+03  0.38840132777E+03  0.80175372370E+02 0.  0.
          5    1    3    3  502    0 -0.11737822254E+02 -0.12935771756E+02 -0.96291870986E+01  0.20491996153E+02  0.47000000000E+01 0. -1.
        -13    1    4    4    0    0  0.62095351331E+02  0.13017462772E+02 -0.30292779789E+03  0.30950046483E+03  0.00000000000E+00 0.  1.
         14    1    4    4    0    0  0.13157828608E+02  0.56888638964E+02 -0.59563159398E+03  0.59848679304E+03  0.00000000000E+00 0. -1.
         -5    1    5    5    0  501 -0.36764573477E+02 -0.71848490962E+02 -0.10793919037E+03  0.13485843813E+03  0.47000000000E+01 0.  1.
         11    1    6    6    0    0 -0.11185513384E+02  0.47731065403E+02 -0.19775071358E+03  0.20373687696E+03  0.00000000000E+00 0. -1.
        -12    1    6    6    0    0 -0.15565270824E+02 -0.32852904421E+02 -0.18105073435E+03  0.18466445081E+03  0.00000000000E+00 0.  1.
</event>
<event>
12    1  0.1345781E-002  0.1907801E+03  0.7818608E-02  0.1157760E+00
          1   -1    0    0  502    0  0.00000000000E+00  0.00000000000E+00  0.21239720292E+03  0.21239720292E+03  0.00000000000E+00 0.  1.
         -1   -1    0    0    0  501 -0.00000000000E+00 -0.00000000000E+00 -0.17137469126E+03  0.17137469126E+03  0.00000000000E+00 0. -1.
          6    2    1    2  502    0  0.81257242182E+02  0.19088840611E+02  0.18949892776E+02  0.19179190362E+03  0.17163307553E+03 0.  0.
         24    2    3    3    0    0  0.54359007076E+02 -0.53785313260E+02 -0.23382804509E+01  0.11111084219E+03  0.80575369215E+02 0.  0.
         -6    2    1    2    0  501 -0.81257242182E+02 -0.19088840611E+02  0.22072618885E+02  0.19197999056E+03  0.17147009368E+03 0.  0.
        -24    2    5    5    0    0 -0.12148256198E+02  0.30623740625E+02 -0.30398338081E+02  0.91866634794E+02  0.80187442981E+02 0.  0.
          5    1    3    3  502    0  0.26898235105E+02  0.72874153871E+02  0.21288173227E+02  0.80681061430E+02  0.47000000000E+01 0. -1.
        -11    1    4    4    0    0 -0.14595565931E+02 -0.19786389268E+02 -0.20616670833E+02  0.32087051303E+02  0.00000000000E+00 0.  1.
         12    1    4    4    0    0  0.68954573007E+02 -0.33998923991E+02  0.18278390382E+02  0.79023790887E+02  0.00000000000E+00 0. -1.
         -5    1    5    5    0  501 -0.69108985984E+02 -0.49712581237E+02  0.52470956966E+02  0.10011335576E+03  0.47000000000E+01 0.  1.
         13    1    6    6    0    0 -0.67912389336E+01 -0.23070785836E+02 -0.29284405736E+02  0.37894043128E+02  0.00000000000E+00 0. -1.
        -14    1    6    6    0    0 -0.53570172641E+01  0.53694526461E+02 -0.11139323452E+01  0.53972591666E+02  0.00000000000E+00 0.  1.
</event>
<event>
12    1  0.1345781E-002  0.2149975E+03  0.7818608E-02  0.1137669E+00
         -2   -1    0    0    0  501 -0.00000000000E+00  0.00000000000E+00  0.26534656514E+03  0.26534656514E+03  0.00000000000E+00 0. -1.
          2   -1    0    0  502    0  0.00000000000E+00 -0.00000000000E+00 -0.17570817642E+03  0.17570817642E+03  0.00000000000E+00 0.  1.
          6    2    1    2  502    0 -0.90386866337E+02 -0.93062590510E+02  0.65216691485E+02  0.22458028598E+03  0.17132617034E+03 0.  0.
         24    2    3    3    0    0 -0.11034868436E+03 -0.65488482973E+02  0.26110933568E+00  0.15109475518E+03  0.79774578171E+02 0.  0.
         -6    2    1    2    0  501  0.90386866337E+02  0.93062590510E+02  0.24421697233E+02  0.21647445558E+03  0.17156438810E+03 0.  0.
        -24    2    5    5    0    0 -0.37261944886E+01  0.19886264978E+02 -0.22445566730E+02  0.88292267782E+02  0.82960068853E+02 0.  0.
          5    1    3    3  502    0  0.19961818021E+02 -0.27574107537E+02  0.64955582150E+02  0.73485530804E+02  0.47000000000E+01 0. -1.
        -13    1    4    4    0    0 -0.36791076405E+02 -0.21317315554E+02 -0.38114461151E+02  0.57102744192E+02  0.00000000000E+00 0.  1.
         14    1    4    4    0    0 -0.73557607953E+02 -0.44171167419E+02  0.38375570486E+02  0.93992010985E+02  0.00000000000E+00 0. -1.
         -5    1    5    5    0  501  0.94113060825E+02  0.73176325531E+02  0.46867263964E+02  0.12818218779E+03  0.47000000000E+01 0.  1.
         11    1    6    6    0    0  0.29877457450E+02 -0.16685973003E+02 -0.17342259213E+02  0.38364542397E+02  0.00000000000E+00 0. -1.
        -12    1    6    6    0    0 -0.33603651938E+02  0.36572237981E+02 -0.51033075172E+01  0.49927725385E+02  0.00000000000E+00 0.  1.
</event>
<event>
12    1  0.1345781E-002  0.1711731E+03  0.7818608E-02  0.1176630E+00
         -1   -1    0    0    0  501 -0.00000000000E+00  0.00000000000E+00  0.67457870401E+02  0.67457870401E+02  0.00000000000E+00 0. -1.
          1   -1    0    0  502    0  0.00000000000E+00 -0.00000000000E+00 -0.43672300303E+03  0.43672300303E+03  0.00000000000E+00 0.  1.
          6    2    1    2  502    0  0.14591593529E+02  0.22897303697E+02 -0.19995435846E+03  0.26150782021E+03  0.16633518403E+03 0.  0.
         24    2    3    3    0    0  0.60156385916E+02  0.47389022938E+02 -0.16699363382E+03  0.19998957913E+03  0.79021818272E+02 0.  0.
         -6    2    1    2    0  501 -0.14591593529E+02 -0.22897303697E+02 -0.16931077417E+03  0.24267305322E+03  0.17171741726E+03 0.  0.
        -24    2    5    5    0    0  0.13700326645E+02 -0.76849298957E+02 -0.12429872195E+03  0.16678217508E+03  0.79199797640E+02 0.  0.
          5    1    3    3  502    0 -0.45564792387E+02 -0.24491719242E+02 -0.32960724639E+02  0.61518241079E+02  0.47000000000E+01 0. -1.
        -11    1    4    4    0    0  0.50979892823E+02  0.43526039509E+02 -0.52714882327E+02  0.85277924496E+02  0.00000000000E+00 0.  1.
         12    1    4    4    0    0  0.91764930938E+01  0.38629834294E+01 -0.11427875149E+03  0.11471165463E+03  0.00000000000E+00 0. -1.
         -5    1    5    5    0  501 -0.28291920174E+02  0.53951995261E+02 -0.45012052221E+02  0.75890878140E+02  0.47000000000E+01 0.  1.
         11    1    6    6    0    0  0.65170422992E+01 -0.56160085751E+02 -0.19631670347E+02  0.59848388053E+02  0.00000000000E+00 0. -1.
        -12    1    6    6    0    0  0.71832843458E+01 -0.20689213206E+02 -0.10466705160E+03  0.10693378703E+03  0.00000000000E+00 0.  1.
</event>
<event>
12    1  0.1345781E-002  0.1715142E+03  0.7818608E-02  0.1176278E+00
         -2   -1    0    0    0  501 -0.00000000000E+00  0.00000000000E+00  0.15340853488E+03  0.15340853488E+03  0.00000000000E+00 0.  1.
          2   -1    0    0  502    0  0.00000000000E+00 -0.00000000000E+00 -0.22987448862E+03  0.22987448862E+03  0.00000000000E+00 0. -1.
          6    2    1    2  502    0 -0.12551077847E+02 -0.42582161164E+01 -0.11600334135E+03  0.20593719462E+03  0.16963988613E+03 0.  0.
         24    2    3    3    0    0  0.16935041619E+02 -0.10752736483E+02  0.47737325827E+01  0.81354685323E+02  0.78698026181E+02 0.  0.
         -6    2    1    2    0  501  0.12551077847E+02  0.42582161164E+01  0.39537387611E+02  0.17734582887E+03  0.17237365240E+03 0.  0.
        -24    2    5    5    0    0  0.15826798588E+02 -0.12227255694E+01  0.92649012068E+02  0.12364568250E+03  0.80327036249E+02 0.  0.
          5    1    3    3  502    0 -0.29486119466E+02  0.64945203664E+01 -0.12077707393E+03  0.12458250930E+03  0.47000000000E+01 0. -1.
        -11    1    4    4    0    0  0.45002329839E+02  0.10070099629E+02  0.25664760295E+00  0.46115967576E+02  0.00000000000E+00 0.  1.
         12    1    4    4    0    0 -0.28067288220E+02 -0.20822836111E+02  0.45170849798E+01  0.35238717747E+02  0.00000000000E+00 0. -1.
         -5    1    5    5    0  501 -0.32757207411E+01  0.54809416858E+01 -0.53111624457E+02  0.53700146374E+02  0.47000000000E+01 0.  1.
         11    1    6    6    0    0  0.20752683492E+01  0.17213225761E+02 -0.89250478727E+01  0.19500214341E+02  0.00000000000E+00 0. -1.
        -12    1    6    6    0    0  0.13751530239E+02 -0.18435951330E+02  0.10157405994E+03  0.10414546816E+03  0.00000000000E+00 0.  1.
</event>
<event>
12    1  0.1345781E-002  0.1825115E+03  0.7818608E-02  0.1165394E+00
         -2   -1    0    0    0  501 -0.00000000000E+00  0.00000000000E+00  0.35116262436E+03  0.35116262436E+03  0.00000000000E+00 0.  1.
          2   -1    0    0  502    0  0.00000000000E+00 -0.00000000000E+00 -0.12854704935E+03  0.12854704935E+03  0.00000000000E+00 0. -1.
          6    2    1    2  502    0 -0.42474430943E+02 -0.50018509043E+02 -0.10910390394E+02  0.18408815915E+03  0.17164930873E+03 0.  0.
         24    2    3    3    0    0  0.29910626296E+02 -0.10757483755E+02 -0.42066727424E+02  0.95918822326E+02  0.80127660007E+02 0.  0.
         -6    2    1    2    0  501  0.42474430943E+02  0.50018509043E+02  0.23352596541E+03  0.29562151457E+03  0.16897270437E+03 0.  0.
        -24    2    5    5    0    0 -0.15503446679E+02 -0.58116949103E+01  0.54305391376E+02  0.99100395791E+02  0.81226105759E+02 0.  0.
          5    1    3    3  502    0 -0.72385057238E+02 -0.39261025287E+02  0.31156337030E+02  0.88169336819E+02  0.47000000000E+01 0. -1.
        -13    1    4    4    0    0 -0.18372893287E+02 -0.28107344552E+02 -0.86027837356E+01  0.34664014677E+02  0.00000000000E+00 0.  1.
         14    1    4    4    0    0  0.48283519583E+02  0.17349860797E+02 -0.33463943689E+02  0.61254807650E+02  0.00000000000E+00 0. -1.
         -5    1    5    5    0  501  0.57977877621E+02  0.55830203953E+02  0.17922057404E+03  0.19652111877E+03  0.47000000000E+01 0.  1.
         13    1    6    6    0    0 -0.23975588675E+02 -0.24860996824E+02  0.66509497536E+02  0.74942719980E+02  0.00000000000E+00 0. -1.
        -14    1    6    6    0    0  0.84721419960E+01  0.19049301914E+02 -0.12204106160E+02  0.24157675811E+02  0.00000000000E+00 0.  1.
</event>
<event>
12    1  0.1345781E-002  0.1894634E+03  0.7818608E-02  0.1158946E+00
         -1   -1    0    0    0  501 -0.00000000000E+00  0.00000000000E+00  0.27936822182E+02  0.27936822182E+02  0.00000000000E+00 0. -1.
          1   -1    0    0  502    0  0.00000000000E+00 -0.00000000000E+00 -0.13400910109E+04  0.13400910109E+04  0.00000000000E+00 0.  1.
          6    2    1    2  502    0 -0.65014856654E+02  0.32508199540E+02 -0.80102921535E+03  0.82357350796E+03  0.17703616738E+03 0.  0.
         24    2    3    3    0    0 -0.17921670445E+02  0.73338454161E+02 -0.66141039147E+03  0.67060166787E+03  0.80889899753E+02 0.  0.
         -6    2    1    2    0  501  0.65014856654E+02 -0.32508199540E+02 -0.51112497340E+03  0.54445432515E+03  0.17291055235E+03 0.  0.
        -24    2    5    5    0    0  0.31116943720E+02  0.49351763548E+02 -0.24672769369E+03  0.26556701175E+03  0.79040636014E+02 0.  0.
          5    1    3    3  502    0 -0.47093186209E+02 -0.40830254621E+02 -0.13961882388E+03  0.15297184009E+03  0.47000000000E+01 0. -1.
        -13    1    4    4    0    0 -0.33078062380E+01  0.69338766474E+02 -0.64309891976E+03  0.64683462083E+03  0.00000000000E+00 0.  1.
         14    1    4    4    0    0 -0.14613864207E+02  0.39996876878E+01 -0.18311471709E+02  0.23767047036E+02  0.00000000000E+00 0. -1.
         -5    1    5    5    0  501  0.33897912935E+02 -0.81859963089E+02 -0.26439727971E+03  0.27888731340E+03  0.47000000000E+01 0.  1.
         13    1    6    6    0    0 -0.15096214792E+01  0.29721643001E+02 -0.20452257527E+02  0.36110245882E+02  0.00000000000E+00 0. -1.
        -14    1    6    6    0    0  0.32626565199E+02  0.19630120547E+02 -0.22627543617E+03  0.22945676587E+03  0.00000000000E+00 0.  1.
</event>
<event>
12    1  0.1345781E-002  0.2143340E+03  0.7818608E-02  0.1138179E+00
          2   -1    0    0  502    0  0.00000000000E+00  0.00000000000E+00  0.16476863081E+04  0.16476863081E+04  0.00000000000E+00 0.  1.
         -2   -1    0    0    0  501 -0.00000000000E+00 -0.00000000000E+00 -0.29401489040E+02  0.29401489040E+02  0.00000000000E+00 0. -1.
          6    2    1    2  502    0  0.12853708514E+03 -0.11325102146E+02  0.10017926601E+04  0.10245797592E+04  0.17182871925E+03 0.  0.
         24    2    3    3    0    0  0.11063830958E+03  0.38284047686E+02  0.48596193677E+03  0.50603867198E+03  0.78801203636E+02 0.  0.
         -6    2    1    2    0  501 -0.12853708514E+03  0.11325102146E+02  0.61649215894E+03  0.65250803801E+03  0.17045268387E+03 0.  0.
        -24    2    5    5    0    0 -0.15457033307E+03 -0.15700775530E+02  0.52814367890E+03  0.55640563436E+03  0.80703049288E+02 0.  0.
          5    1    3    3  502    0  0.17898775555E+02 -0.49609149832E+02  0.51583072338E+03  0.51854108718E+03  0.47000000000E+01 0. -1.
        -13    1    4    4    0    0  0.81805493098E+02  0.35004794293E+01  0.40619389988E+03  0.41436442457E+03  0.00000000000E+00 0.  1.
         14    1    4    4    0    0  0.28832816484E+02  0.34783568256E+02  0.79768036893E+02  0.91674247403E+02  0.00000000000E+00 0. -1.
         -5    1    5    5    0  501  0.26033247934E+02  0.27025877676E+02  0.88348480039E+02  0.96102403650E+02  0.47000000000E+01 0.  1.
         13    1    6    6    0    0 -0.63223923449E+02 -0.22985353051E+02  0.11508834291E+03  0.13330760528E+03  0.00000000000E+00 0. -1.
        -14    1    6    6    0    0 -0.91346409622E+02  0.72845775208E+01  0.41305533599E+03  0.42309802908E+03  0.00000000000E+00 0.  1.
</event>
<event>
12    1  0.1345781E-002  0.2573939E+03  0.7818608E-02  0.1108719E+00
         -2   -1    0    0    0  501 -0.00000000000E+00  0.00000000000E+00  0.27400065893E+03  0.27400065893E+03  0.00000000000E+00 0. -1.
          2   -1    0    0  502    0  0.00000000000E+00 -0.00000000000E+00 -0.32179383295E+03  0.32179383295E+03  0.00000000000E+00 0.  1.
          6    2    1    2  502    0 -0.15396135889E+03  0.11567548288E+03 -0.17239416112E+03  0.30938224930E+03  0.17003738420E+03 0.  0.
         24    2    3    3    0    0 -0.53657634239E+02  0.68917595633E+02 -0.15844273320E+03  0.19774054769E+03  0.79802555065E+02 0.  0.
         -6    2    1    2    0  501  0.15396135889E+03 -0.11567548288E+03  0.12460098709E+03  0.28641224257E+03  0.17152740114E+03 0.  0.
        -24    2    5    5    0    0  0.16306215484E+03 -0.14186580190E+03  0.11965215437E+03  0.25785811428E+03  0.73885025295E+02 0.  0.
          5    1    3    3  502    0 -0.10030372465E+03  0.46757887243E+02 -0.13951427918E+02  0.11164170162E+03  0.47000000000E+01 0. -1.
        -13    1    4    4    0    0 -0.56007837170E+02  0.71696860728E+01 -0.78593953828E+02  0.96774437747E+02  0.00000000000E+00 0.  1.
         14    1    4    4    0    0  0.23502029309E+01  0.61747909560E+02 -0.79848779375E+02  0.10096610994E+03  0.00000000000E+00 0. -1.
         -5    1    5    5    0  501 -0.91007959446E+01  0.26190319026E+02  0.49488327194E+01  0.28554128297E+02  0.47000000000E+01 0.  1.
         13    1    6    6    0    0  0.25354022293E+02 -0.53409128983E+02  0.78359722802E+01  0.59638611375E+02  0.00000000000E+00 0. -1.
        -14    1    6    6    0    0  0.13770813254E+03 -0.88456672918E+02  0.11181618209E+03  0.19821950290E+03  0.00000000000E+00 0.  1.
</event>
<event>
12    1  0.1345781E-002  0.3711058E+03  0.7818608E-02  0.1054271E+00
         -1   -1    0    0    0  501 -0.00000000000E+00  0.00000000000E+00  0.78104196536E+02  0.78104196536E+02  0.00000000000E+00 0. -1.
          1   -1    0    0  502    0  0.00000000000E+00 -0.00000000000E+00 -0.18767320149E+04  0.18767320149E+04  0.00000000000E+00 0.  1.
          6    2    1    2  502    0 -0.22040369221E+03 -0.24327123512E+03 -0.11385783722E+04  0.11973879867E+04  0.17210055160E+03 0.  0.
         24    2    3    3    0    0 -0.22051331278E+03 -0.26228107831E+03 -0.10706380164E+04  0.11266817770E+04  0.75687378760E+02 0.  0.
         -6    2    1    2    0  501  0.22040369221E+03  0.24327123512E+03 -0.66004944615E+03  0.75744822464E+03  0.17408003986E+03 0.  0.
        -24    2    5    5    0    0  0.16697962302E+03  0.91461347546E+02 -0.42831994115E+03  0.47527624407E+03  0.78626735864E+02 0.  0.
          5    1    3    3  502    0  0.10962057321E+00  0.19009843197E+02 -0.67940355728E+02  0.70706209709E+02  0.47000000000E+01 0. -1.
        -11    1    4    4    0    0 -0.77819362296E+02 -0.99736353074E+02 -0.51803597248E+03  0.53325834457E+03  0.00000000000E+00 0.  1.
         12    1    4    4    0    0 -0.14269395049E+03 -0.16254472524E+03 -0.55260204396E+03  0.59342343246E+03  0.00000000000E+00 0. -1.
         -5    1    5    5    0  501  0.53424069195E+02  0.15180988757E+03 -0.23172950500E+03  0.28217198057E+03  0.47000000000E+01 0.  1.
         11    1    6    6    0    0  0.39863277502E+02  0.26870840550E+02 -0.43288722259E+02  0.64691857601E+02  0.00000000000E+00 0. -1.
        -12    1    6    6    0    0  0.12711634551E+03  0.64590506997E+02 -0.38503121889E+03  0.41058438647E+03  0.00000000000E+00 0.  1.
</event>
<event>
12    1  0.1345781E-002  0.2434946E+03  0.7818608E-02  0.1117486E+00
          1   -1    0    0  502    0  0.00000000000E+00  0.00000000000E+00  0.40182447039E+03  0.40182447039E+03  0.00000000000E+00 0. -1.
         -1   -1    0    0    0  501 -0.00000000000E+00 -0.00000000000E+00 -0.16588164211E+03  0.16588164211E+03  0.00000000000E+00 0.  1.
          6    2    1    2  502    0 -0.11365187655E+03 -0.12820049530E+03  0.21206885348E+03  0.32244563102E+03  0.17217976162E+03 0.  0.
         24    2    3    3    0    0 -0.59556541480E+02 -0.13691971926E+03  0.20621395840E+03  0.26714011647E+03  0.80905216352E+02 0.  0.
         -6    2    1    2    0  501  0.11365187655E+03  0.12820049530E+03  0.23873974798E+02  0.24526048148E+03  0.17386955186E+03 0.  0.
        -24    2    5    5    0    0  0.81445048403E+02 -0.63616769007E+01  0.28222823611E+02  0.10674961385E+03  0.62651300400E+02 0.  0.
          5    1    3    3  502    0 -0.54095335073E+02  0.87192239687E+01  0.58548950769E+01  0.55305514550E+02  0.47000000000E+01 0. -1.
        -13    1    4    4    0    0  0.37876221612E+00  0.45751250124E+01  0.41968328440E+02  0.42218666745E+02  0.00000000000E+00 0.  1.
         14    1    4    4    0    0 -0.59935303696E+02 -0.14149484428E+03  0.16424562996E+03  0.22492144973E+03  0.00000000000E+00 0. -1.
         -5    1    5    5    0  501  0.32206828150E+02  0.13456217220E+03 -0.43488488135E+01  0.13851086763E+03  0.47000000000E+01 0.  1.
         13    1    6    6    0    0  0.85229082026E+02  0.95829594450E+01  0.18648254906E+02  0.87770080014E+02  0.00000000000E+00 0. -1.
        -14    1    6    6    0    0 -0.37840336231E+01 -0.15944636346E+02  0.95745687055E+01  0.18979533834E+02  0.00000000000E+00 0.  1.
</event>
<event>
12    1  0.1345781E-002  0.2423972E+03  0.7818608E-02  0.1118206E+00
         -1   -1    0    0    0  501 -0.00000000000E+00  0.00000000000E+00  0.77635185330E+02  0.77635185330E+02  0.00000000000E+00 0.  1.
          1   -1    0    0  502    0  0.00000000000E+00 -0.00000000000E+00 -0.80053051592E+03  0.80053051592E+03  0.00000000000E+00 0. -1.
          6    2    1    2  502    0 -0.56129094430E+01  0.16269741658E+03 -0.45528409172E+03  0.51311135723E+03  0.17174896399E+03 0.  0.
         24    2    3    3    0    0  0.56777587277E+02  0.10318393312E+03 -0.34336890492E+03  0.37175532506E+03  0.80182282160E+02 0.  0.
         -6    2    1    2    0  501  0.56129094430E+01 -0.16269741658E+03 -0.26761123887E+03  0.36505434402E+03  0.18747518450E+03 0.  0.
        -24    2    5    5    0    0  0.33988502486E+02 -0.18114143549E+03 -0.26169500606E+03  0.33037801312E+03  0.81840805220E+02 0.  0.
          5    1    3    3  502    0 -0.62390496720E+02  0.59513483462E+02 -0.11191518679E+03  0.14135603217E+03  0.47000000000E+01 0. -1.
        -13    1    4    4    0    0  0.40762063152E+02  0.22970723807E+02 -0.56010709657E+02  0.72982186463E+02  0.00000000000E+00 0.  1.
         14    1    4    4    0    0  0.16015524125E+02  0.80213209311E+02 -0.28735819527E+03  0.29877313860E+03  0.00000000000E+00 0. -1.
         -5    1    5    5    0  501 -0.28375593043E+02  0.18444018914E+02 -0.59162328080E+01  0.34676330902E+02  0.47000000000E+01 0.  1.
         13    1    6    6    0    0 -0.26548705960E+02 -0.73614408679E+02 -0.10053082737E+03  0.12739843879E+03  0.00000000000E+00 0. -1.
        -14    1    6    6    0    0  0.60537208446E+02 -0.10752702681E+03 -0.16116417869E+03  0.20297957433E+03  0.00000000000E+00 0.  1.
</event>
<event>
12    1  0.1345781E-002  0.2497576E+03  0.7818608E-02  0.1113458E+00
         -1   -1    0    0    0  501 -0.00000000000E+00  0.00000000000E+00  0.60819570921E+03  0.60819570921E+03  0.00000000000E+00 0. -1.
          1   -1    0    0  502    0  0.00000000000E+00 -0.00000000000E+00 -0.12084621997E+03  0.12084621997E+03  0.00000000000E+00 0.  1.
          6    2    1    2  502    0  0.38946470821E+01 -0.17937274061E+03  0.10217900836E+03  0.27017058854E+03  0.17424651735E+03 0.  0.
         24    2    3    3    0    0 -0.66041901864E+02 -0.11612318159E+03  0.76811419652E+02  0.17240949120E+03  0.77323426998E+02 0.  0.
         -6    2    1    2    0  501 -0.38946470821E+01  0.17937274061E+03  0.38517048088E+03  0.45887134065E+03  0.17325374331E+03 0.  0.
        -24    2    5    5    0    0  0.48004948621E+02  0.10106081471E+03  0.30857155337E+03  0.33756259624E+03  0.78831081879E+02 0.  0.
          5    1    3    3  502    0  0.69936548946E+02 -0.63249559028E+02  0.25367588711E+02  0.97761097337E+02  0.47000000000E+01 0. -1.
        -11    1    4    4    0    0 -0.32045957886E+02 -0.79199450307E+02  0.60440745233E+01  0.85650611104E+02  0.00000000000E+00 0.  1.
         12    1    4    4    0    0 -0.33995943978E+02 -0.36923731280E+02  0.70767345129E+02  0.86758880094E+02  0.00000000000E+00 0. -1.
         -5    1    5    5    0  501 -0.51899595703E+02  0.78311925906E+02  0.76598927515E+02  0.12130874441E+03  0.47000000000E+01 0.  1.
         13    1    6    6    0    0  0.50430804296E+02  0.11329126072E+03  0.28702446957E+03  0.31266790995E+03  0.00000000000E+00 0. -1.
        -14    1    6    6    0    0 -0.24258556752E+01 -0.12230446014E+02  0.21547083796E+02  0.24894686292E+02  0.00000000000E+00 0.  1.
</event>
<event>
12    1  0.1345781E-002  0.2023646E+03  0.7818608E-02  0.1147759E+00
          2   -1    0    0  502    0  0.00000000000E+00  0.00000000000E+00  0.64295451517E+03  0.64295451517E+03  0.00000000000E+00 0.  1.
         -2   -1    0    0    0  501 -0.00000000000E+00 -0.00000000000E+00 -0.10610056841E+03  0.10610056841E+03  0.00000000000E+00 0. -1.
          6    2    1    2  502    0  0.26976496534E+02 -0.10311148810E+03  0.50529192872E+03  0.54434695894E+03  0.17214519493E+03 0.  0.
         24    2    3    3    0    0 -0.67251342352E+00 -0.74447720935E+02  0.48901502577E+03  0.50106755426E+03  0.79937995214E+02 0.  0.
         -6    2    1    2    0  501 -0.26976496534E+02  0.10311148810E+03  0.31562018049E+02  0.20470812464E+03  0.17189981084E+03 0.  0.
        -24    2    5    5    0    0 -0.82462560606E+02  0.60749989585E+02  0.44441261091E+01  0.12967033465E+03  0.79397797801E+02 0.  0.
          5    1    3    3  502    0  0.27649009957E+02 -0.28663767168E+02  0.16276902949E+02  0.43279404680E+02  0.47000000000E+01 0. -1.
        -11    1    4    4    0    0 -0.32481598642E+02 -0.56686171641E+02  0.21694122073E+03  0.22656537590E+03  0.00000000000E+00 0.  1.
         12    1    4    4    0    0  0.31809085219E+02 -0.17761549294E+02  0.27207380504E+03  0.27450217836E+03  0.00000000000E+00 0. -1.
         -5    1    5    5    0  501  0.55486064073E+02  0.42361498519E+02  0.27117891940E+02  0.75037789988E+02  0.47000000000E+01 0.  1.
         11    1    6    6    0    0  0.25478344275E+01  0.13512097819E+02 -0.24592025219E+02  0.28175094536E+02  0.00000000000E+00 0. -1.
        -12    1    6    6    0    0 -0.85010395034E+02  0.47237891766E+02  0.29036151328E+02  0.10149524012E+03  0.00000000000E+00 0.  1.
</event>
<event>
12    1  0.1345781E-002  0.2023816E+03  0.7818608E-02  0.1147745E+00
          3   -1    0    0  502    0  0.00000000000E+00  0.00000000000E+00  0.13152296090E+03  0.13152296090E+03  0.00000000000E+00 0. -1.
         -3   -1    0    0    0  501 -0.00000000000E+00 -0.00000000000E+00 -0.34305153917E+03  0.34305153917E+03  0.00000000000E+00 0.  1.
          6    2    1    2  502    0 -0.70958440308E+02 -0.81560518450E+02 -0.33670504320E+02  0.20508949807E+03  0.17099935946E+03 0.  0.
         24    2    3    3    0    0 -0.76150347699E+02  0.52948507571E+01 -0.10334878078E+02  0.11488166850E+03  0.85229555635E+02 0.  0.
         -6    2    1    2    0  501  0.70958440308E+02  0.81560518450E+02 -0.17785807395E+03  0.26948500200E+03  0.17117667310E+03 0.  0.
        -24    2    5    5    0    0  0.47739144409E+02  0.55803396804E+02 -0.22321006534E+02  0.11005967667E+03  0.78878768317E+02 0.  0.
          5    1    3    3  502    0  0.51919073910E+01 -0.86855369207E+02 -0.23335626242E+02  0.90207829564E+02  0.47000000000E+01 0. -1.
        -13    1    4    4    0    0 -0.25954661129E+02 -0.20860874173E+02 -0.39126654294E+02  0.51378162500E+02  0.00000000000E+00 0.  1.
         14    1    4    4    0    0 -0.50195686569E+02  0.26155724930E+02  0.28791776216E+02  0.63503506002E+02  0.00000000000E+00 0. -1.
         -5    1    5    5    0  501  0.23219295899E+02  0.25757121646E+02 -0.15553706742E+03  0.15942532534E+03  0.47000000000E+01 0.  1.
         13    1    6    6    0    0  0.50003005006E+02 -0.18630429295E+00 -0.73050953143E+00  0.50008687876E+02  0.00000000000E+00 0. -1.
        -14    1    6    6    0    0 -0.22638605967E+01  0.55989701097E+02 -0.21590497003E+02  0.60050988789E+02  0.00000000000E+00 0.  1.
</event>
<event>
12    1  0.1345781E-002  0.2283750E+03  0.7818608E-02  0.1127789E+00
          1   -1    0    0  502    0  0.00000000000E+00  0.00000000000E+00  0.67859712311E+03  0.67859712311E+03  0.00000000000E+00 0. -1.
         -1   -1    0    0    0  501 -0.00000000000E+00 -0.00000000000E+00 -0.77065772045E+02  0.77065772045E+02  0.00000000000E+00 0.  1.
          6    2    1    2  502    0 -0.19124715735E+02 -0.14863779608E+03  0.31950148242E+03  0.39233925189E+03  0.17143495014E+03 0.  0.
         24    2    3    3    0    0 -0.30238589539E+02 -0.55195468484E+02  0.63297288182E+02  0.11936001106E+03  0.79242371941E+02 0.  0.
         -6    2    1    2    0  501  0.19124715735E+02  0.14863779608E+03  0.28202986864E+03  0.36332364326E+03  0.17321741764E+03 0.  0.
        -24    2    5    5    0    0 -0.46209627998E+02  0.85001151009E+02  0.11391183915E+03  0.17200202686E+03  0.85136741481E+02 0.  0.
          5    1    3    3  502    0  0.11113873805E+02 -0.93442327593E+02  0.25620419424E+03  0.27297924082E+03  0.47000000000E+01 0. -1.
        -11    1    4    4    0    0 -0.14360099468E+01 -0.68156261652E+02  0.33580040931E+02  0.75993139663E+02  0.00000000000E+00 0.  1.
         12    1    4    4    0    0 -0.28802579593E+02  0.12960793167E+02  0.29717247252E+02  0.43366871399E+02  0.00000000000E+00 0. -1.
         -5    1    5    5    0  501  0.65334343733E+02  0.63636645068E+02  0.16811802949E+03  0.19132161641E+03  0.47000000000E+01 0.  1.
         11    1    6    6    0    0 -0.28761084850E+02  0.64870615456E+02  0.12452611502E+03  0.14332532949E+03  0.00000000000E+00 0. -1.
        -12    1    6    6    0    0 -0.17448543148E+02  0.20130535554E+02 -0.10614275865E+02  0.28676697366E+02  0.00000000000E+00 0.  1.
</event>
<event>
12    1  0.1345781E-002  0.1756967E+03  0.7818608E-02  0.1172034E+00
         -2   -1    0    0    0  501 -0.00000000000E+00  0.00000000000E+00  0.37862046413E+02  0.37862046413E+02  0.00000000000E+00 0.  1.
          2   -1    0    0  502    0  0.00000000000E+00 -0.00000000000E+00 -0.12423599418E+04  0.12423599418E+04  0.00000000000E+00 0. -1.
          6    2    1    2  502    0  0.37525795764E+02  0.53101112049E+01 -0.21056949113E+03  0.26948718784E+03  0.16385191847E+03 0.  0.
         24    2    3    3    0    0  0.70317150888E+02  0.15809812352E+02 -0.74692660290E+02  0.12923698337E+03  0.76998392798E+02 0.  0.
         -6    2    1    2    0  501 -0.37525795764E+02 -0.53101112049E+01 -0.99392840422E+03  0.10107348003E+04  0.17959616161E+03 0.  0.
        -24    2    5    5    0    0  0.42667252939E+02 -0.24934868005E+02 -0.41304747835E+03  0.42399738362E+03  0.81995852494E+02 0.  0.
          5    1    3    3  502    0 -0.32791355124E+02 -0.10499701147E+02 -0.13587683084E+03  0.14025020447E+03  0.47000000000E+01 0. -1.
        -13    1    4    4    0    0  0.57525804010E+01 -0.24720360053E+02 -0.35161727649E+02  0.43365141227E+02  0.00000000000E+00 0.  1.
         14    1    4    4    0    0  0.64564570487E+02  0.40530172404E+02 -0.39530932641E+02  0.85871842142E+02  0.00000000000E+00 0. -1.
         -5    1    5    5    0  501 -0.80193048703E+02  0.19624756800E+02 -0.58088092587E+03  0.58673741672E+03  0.47000000000E+01 0.  1.
         13    1    6    6    0    0 -0.19742471279E+02 -0.26659799430E+02 -0.13299686843E+03  0.13707179539E+03  0.00000000000E+00 0. -1.
        -14    1    6    6    0    0  0.62409724217E+02  0.17249314251E+01 -0.28005060992E+03  0.28692558823E+03  0.00000000000E+00 0.  1.
</event>
<event>
12    1  0.1345781E-002  0.2734796E+03  0.7818608E-02  0.1099304E+00
         -2   -1    0    0    0  501 -0.00000000000E+00  0.00000000000E+00  0.34469575817E+02  0.34469575817E+02  0.00000000000E+00 0. -1.
          2   -1    0    0  502    0  0.00000000000E+00 -0.00000000000E+00 -0.21717529107E+04  0.21717529107E+04  0.00000000000E+00 0.  1.
          6    2    1    2  502    0 -0.50518644038E+02  0.20656988592E+03 -0.10364050620E+04  0.10719494767E+04  0.17238612766E+03 0.  0.
         24    2    3    3    0    0 -0.15260223488E+02  0.28870413994E+02 -0.24374912660E+03  0.25884076295E+03  0.80737405335E+02 0.  0.
         -6    2    1    2    0  501  0.50518644038E+02 -0.20656988592E+03 -0.11008782729E+04  0.11342730098E+04  0.17151978840E+03 0.  0.
        -24    2    5    5    0    0 -0.20527704376E+02 -0.17733689204E+03 -0.77387067183E+03  0.79832924558E+03  0.81141898502E+02 0.  0.
          5    1    3    3  502    0 -0.35258420550E+02  0.17769947192E+03 -0.79265593538E+03  0.81310871379E+03  0.47000000000E+01 0. -1.
        -11    1    4    4    0    0 -0.29536932869E+02  0.48298072761E+02 -0.20910390078E+03  0.21663235114E+03  0.00000000000E+00 0.  1.
         12    1    4    4    0    0  0.14276709381E+02 -0.19427658766E+02 -0.34645225821E+02  0.42208411816E+02  0.00000000000E+00 0. -1.
         -5    1    5    5    0  501  0.71046348413E+02 -0.29232993879E+02 -0.32700760109E+03  0.33594376423E+03  0.47000000000E+01 0.  1.
         11    1    6    6    0    0  0.26970460074E+02 -0.81757855719E+02 -0.41912459071E+03  0.42787518651E+03  0.00000000000E+00 0. -1.
        -12    1    6    6    0    0 -0.47498164450E+02 -0.95579036317E+02 -0.35474608112E+03  0.37045405907E+03  0.00000000000E+00 0.  1.
</event>
<event>
12    1  0.1345781E-002  0.1776934E+03  0.7818608E-02  0.1170054E+00
          1   -1    0    0  502    0  0.00000000000E+00  0.00000000000E+00  0.92977425894E+03  0.92977425894E+03  0.00000000000E+00 0. -1.
         -1   -1    0    0    0  501 -0.00000000000E+00 -0.00000000000E+00 -0.33966285884E+02  0.33966285884E+02  0.00000000000E+00 0.  1.
          6    2    1    2  502    0  0.34696021693E+02 -0.23059292363E+02  0.45394611911E+03  0.48740035706E+03  0.17250067863E+03 0.  0.
         24    2    3    3    0    0 -0.26709522403E+02 -0.16794476901E+02  0.11889672161E+03  0.14668041705E+03  0.79895314600E+02 0.  0.
         -6    2    1    2    0  501 -0.34696021693E+02  0.23059292363E+02  0.44186185395E+03  0.47634018776E+03  0.17298130424E+03 0.  0.
        -24    2    5    5    0    0  0.44685977212E+02  0.65946848009E+01  0.15860772895E+03  0.18167499745E+03  0.76217232883E+02 0.  0.
          5    1    3    3  502    0  0.61405544096E+02 -0.62648154619E+01  0.33504939750E+03  0.34071994001E+03  0.47000000000E+01 0. -1.
        -11    1    4    4    0    0  0.40891787612E+01  0.13659548778E+02 -0.52505287378E+01  0.15194495970E+02  0.00000000000E+00 0.  1.
         12    1    4    4    0    0 -0.30798701164E+02 -0.30454025679E+02  0.12414725035E+03  0.13148592108E+03  0.00000000000E+00 0. -1.
         -5    1    5    5    0  501 -0.79381998905E+02  0.16464607562E+02  0.28325412500E+03  0.29466519032E+03  0.47000000000E+01 0.  1.
         13    1    6    6    0    0 -0.69730429362E+01  0.21031621057E+02  0.99160746547E+02  0.10160613204E+03  0.00000000000E+00 0. -1.
        -14    1    6    6    0    0  0.51659020149E+02 -0.14436936256E+02  0.59446982398E+02  0.80068865406E+02  0.00000000000E+00 0.  1.
</event>
<event>
12    1  0.1345781E-002  0.3670459E+03  0.7818608E-02  0.1055828E+00
          2   -1    0    0  502    0  0.00000000000E+00  0.00000000000E+00  0.12414262482E+04  0.12414262482E+04  0.00000000000E+00 0. -1.
         -2   -1    0    0    0  501 -0.00000000000E+00 -0.00000000000E+00 -0.11081623343E+03  0.11081623343E+03  0.00000000000E+00 0.  1.
          6    2    1    2  502    0  0.31305032815E+03 -0.82179474327E+02  0.66331085111E+03  0.75832921298E+03  0.17414917774E+03 0.  0.
         24    2    3    3    0    0  0.20176399381E+03  0.15001461658E+02  0.35192916648E+03  0.41364178059E+03  0.79445776341E+02 0.  0.
         -6    2    1    2    0  501 -0.31305032815E+03  0.82179474327E+02  0.46729916363E+03  0.59391326862E+03  0.17207698381E+03 0.  0.
        -24    2    5    5    0    0 -0.24238267476E+03  0.18203465865E+02  0.40766091036E+03  0.48137146240E+03  0.80314007378E+02 0.  0.
          5    1    3    3  502    0  0.11128633435E+03 -0.97180935985E+02  0.31138168462E+03  0.34468743239E+03  0.47000000000E+01 0. -1.
        -13    1    4    4    0    0  0.28505575937E+02 -0.26734425345E+02  0.67247946562E+02  0.77779069645E+02  0.00000000000E+00 0.  1.
         14    1    4    4    0    0  0.17325841787E+03  0.41735887003E+02  0.28468121992E+03  0.33586271094E+03  0.00000000000E+00 0. -1.
         -5    1    5    5    0  501 -0.70667653390E+02  0.63976008462E+02  0.59638253268E+02  0.11254180622E+03  0.47000000000E+01 0.  1.
         11    1    6    6    0    0 -0.78483696508E+02  0.43642772020E+02  0.13173409783E+03  0.15943103430E+03  0.00000000000E+00 0. -1.
        -12    1    6    6    0    0 -0.16389897825E+03 -0.25439306155E+02  0.27592681253E+03  0.32194042810E+03  0.00000000000E+00 0.  1.
</event>
<event>
12    1  0.1345781E-002  0.2054818E+03  0.7818608E-02  0.1145195E+00
          4   -1    0    0  502    0  0.00000000000E+00  0.00000000000E+00  0.16945996938E+04  0.16945996938E+04  0.00000000000E+00 0.  1.
         -4   -1    0    0    0  501 -0.00000000000E+00 -0.00000000000E+00 -0.25030161985E+02  0.25030161985E+02  0.00000000000E+00 0. -1.
          6    2    1    2  502    0  0.76538006351E+02 -0.78741460129E+02  0.88668838718E+03  0.90986301788E+03  0.17197712460E+03 0.  0.
         24    2    3    3    0    0  0.10327200563E+03 -0.19413656830E+02  0.46589746721E+03  0.48404429672E+03  0.78717431464E+02 0.  0.
         -6    2    1    2    0  501 -0.76538006351E+02  0.78741460129E+02  0.78288114459E+03  0.80976683786E+03  0.17538860050E+03 0.  0.
        -24    2    5    5    0    0  0.22394918984E+02  0.15900589881E+02  0.24217564908E+03  0.25648461190E+03  0.79880848640E+02 0.  0.
          5    1    3    3  502    0 -0.26733999277E+02 -0.59327803299E+02  0.42079091997E+03  0.42581872116E+03  0.47000000000E+01 0. -1.
        -11    1    4    4    0    0  0.29583233767E+02 -0.40094263176E+02  0.25168207476E+03  0.25656691996E+03  0.00000000000E+00 0.  1.
         12    1    4    4    0    0  0.73688771861E+02  0.20680606346E+02  0.21421539245E+03  0.22747737676E+03  0.00000000000E+00 0. -1.
         -5    1    5    5    0  501 -0.98932925334E+02  0.62840870248E+02  0.54070549551E+03  0.55328222596E+03  0.47000000000E+01 0.  1.
         13    1    6    6    0    0 -0.24549247548E+02  0.15584247814E+02  0.15267274975E+03  0.15541718969E+03  0.00000000000E+00 0. -1.
        -14    1    6    6    0    0  0.46944166532E+02  0.31634206780E+00  0.89502899332E+02  0.10106742221E+03  0.00000000000E+00 0.  1.
</event>
<event>
12    1  0.1345781E-002  0.2034738E+03  0.7818608E-02  0.1146841E+00
         -1   -1    0    0    0  501 -0.00000000000E+00  0.00000000000E+00  0.80814832367E+02  0.80814832367E+02  0.00000000000E+00 0. -1.
          1   -1    0    0  502    0  0.00000000000E+00 -0.00000000000E+00 -0.52495989917E+03  0.52495989917E+03  0.00000000000E+00 0.  1.
          6    2    1    2  502    0 -0.10900041611E+03 -0.40377686644E+01 -0.17508333662E+03  0.26846326435E+03  0.17181663266E+03 0.  0.
         24    2    3    3    0    0 -0.95449065942E+02 -0.11180876167E+02 -0.38915275912E+02  0.13135566488E+03  0.80649710577E+02 0.  0.
         -6    2    1    2    0  501  0.10900041611E+03  0.40377686644E+01 -0.26906173019E+03  0.33731146719E+03  0.17171900581E+03 0.  0.
        -24    2    5    5    0    0  0.10728948469E+03 -0.52149822677E+02 -0.16631475692E+03  0.22009797298E+03  0.80943695326E+02 0.  0.
          5    1    3    3  502    0 -0.13551350164E+02  0.71431075029E+01 -0.13616806071E+03  0.13710759947E+03  0.47000000000E+01 0. -1.
        -13    1    4    4    0    0 -0.14234596571E+02 -0.27030164486E+02 -0.37800307385E+02  0.48601612835E+02  0.00000000000E+00 0.  1.
         14    1    4    4    0    0 -0.81214469371E+02  0.15849288319E+02 -0.11149685262E+01  0.82754052047E+02  0.00000000000E+00 0. -1.
         -5    1    5    5    0  501  0.17109314174E+01  0.56187591342E+02 -0.10274697327E+03  0.11721349420E+03  0.47000000000E+01 0.  1.
         13    1    6    6    0    0  0.11334141710E+02  0.95107773336E+01  0.38079885419E+01  0.15278037522E+02  0.00000000000E+00 0. -1.
        -14    1    6    6    0    0  0.95955342978E+02 -0.61660600011E+02 -0.17012274546E+03  0.20481993546E+03  0.00000000000E+00 0.  1.
</event>
<event>
12    1  0.1345781E-002  0.1912475E+03  0.7818608E-02  0.1157341E+00
         -1   -1    0    0    0  501 -0.00000000000E+00  0.00000000000E+00  0.66389911559E+02  0.66389911559E+02  0.00000000000E+00 0. -1.
          1   -1    0    0  502    0  0.00000000000E+00 -0.00000000000E+00 -0.59339599482E+03  0.59339599482E+03  0.00000000000E+00 0.  1.
          6    2    1    2  502    0  0.83556672945E+02  0.44598771654E+01 -0.35294689733E+03  0.40187941017E+03  0.17301427654E+03 0.  0.
         24    2    3    3    0    0  0.83796814220E+02  0.19514485383E+02 -0.36433465887E+03  0.38242510450E+03  0.78144070025E+02 0.  0.
         -6    2    1    2    0  501 -0.83556672945E+02 -0.44598771654E+01 -0.17405918592E+03  0.25790649620E+03  0.17093142625E+03 0.  0.
        -24    2    5    5    0    0 -0.71202474694E+02 -0.67225110052E+02 -0.11995369302E+03  0.17399228384E+03  0.79343673618E+02 0.  0.
          5    1    3    3  502    0 -0.24014127554E+00 -0.15054608218E+02  0.11387761541E+02  0.19454305676E+02  0.47000000000E+01 0. -1.
        -11    1    4    4    0    0  0.44219051886E+02  0.35885687249E+02 -0.10382081850E+03  0.11841397491E+03  0.00000000000E+00 0.  1.
         12    1    4    4    0    0  0.39577762334E+02 -0.16371201866E+02 -0.26051384037E+03  0.26401112959E+03  0.00000000000E+00 0. -1.
         -5    1    5    5    0  501 -0.12354198251E+02  0.62765232886E+02 -0.54105492906E+02  0.83914212362E+02  0.47000000000E+01 0.  1.
         13    1    6    6    0    0 -0.88508947259E+02 -0.55068413571E+02 -0.10591196456E+03  0.14860588197E+03  0.00000000000E+00 0. -1.
        -14    1    6    6    0    0  0.17306472565E+02 -0.12156696480E+02 -0.14041728455E+02  0.25386401871E+02  0.00000000000E+00 0.  1.
</event>
<event>
12    1  0.1345781E-002  0.1810646E+03  0.7818608E-02  0.1166777E+00
         -2   -1    0    0    0  501 -0.00000000000E+00  0.00000000000E+00  0.25210165374E+02  0.25210165374E+02  0.00000000000E+00 0. -1.
          2   -1    0    0  502    0  0.00000000000E+00 -0.00000000000E+00 -0.13885479562E+04  0.13885479562E+04  0.00000000000E+00 0.  1.
          6    2    1    2  502    0  0.18234306815E+02 -0.47785073346E+02 -0.50747894056E+03  0.53917886673E+03  0.17482297343E+03 0.  0.
         24    2    3    3    0    0  0.47548526110E+02  0.26870134618E+02 -0.32298494105E+03  0.33795051539E+03  0.83116858929E+02 0.  0.
         -6    2    1    2    0  501 -0.18234306815E+02  0.47785073346E+02 -0.85585885029E+03  0.87457925487E+03  0.17256476535E+03 0.  0.
        -24    2    5    5    0    0 -0.33991154422E+02  0.23139374873E+02 -0.21460855589E+03  0.23264489781E+03  0.79849777503E+02 0.  0.
          5    1    3    3  502    0 -0.29314219295E+02 -0.74655207964E+02 -0.18449399951E+03  0.20122835134E+03  0.47000000000E+01 0. -1.
        -11    1    4    4    0    0  0.16619614535E+02 -0.23544914466E+02 -0.19302293968E+03  0.19516257281E+03  0.00000000000E+00 0.  1.
         12    1    4    4    0    0  0.30928911575E+02  0.50415049084E+02 -0.12996200137E+03  0.14278794258E+03  0.00000000000E+00 0. -1.
         -5    1    5    5    0  501  0.15756847607E+02  0.24645698472E+02 -0.64125029440E+03  0.64193435706E+03  0.47000000000E+01 0.  1.
         11    1    6    6    0    0 -0.51717710707E+02  0.36707721694E+02 -0.12338993996E+03  0.13873447919E+03  0.00000000000E+00 0. -1.
        -12    1    6    6    0    0  0.17726556285E+02 -0.13568346821E+02 -0.91218615930E+02  0.93910418620E+02  0.00000000000E+00 0.  1.
</event>
<event>
12    1  0.1345781E-002  0.1773500E+03  0.7818608E-02  0.1170393E+00
         -2   -1    0    0    0  501 -0.00000000000E+00  0.00000000000E+00  0.94078482473E+02  0.94078482473E+02  0.00000000000E+00 0. -1.
          2   -1    0    0  502    0  0.00000000000E+00 -0.00000000000E+00 -0.37682201466E+03  0.37682201466E+03  0.00000000000E+00 0.  1.
          6    2    1    2  502    0 -0.41319387692E+02 -0.24265055670E+01 -0.62036687465E+02  0.18752813692E+03  0.17206124438E+03 0.  0.
         24    2    3    3    0    0  0.23806400130E+02  0.14853244095E+02 -0.80837276671E+02  0.11741743772E+03  0.80404140654E+02 0.  0.
         -6    2    1    2    0  501  0.41319387692E+02  0.24265055670E+01 -0.22070684472E+03  0.28337236021E+03  0.17284444884E+03 0.  0.
        -24    2    5    5    0    0  0.53688409245E+02  0.59168708273E+02 -0.17466562495E+03  0.20911231591E+03  0.82683122813E+02 0.  0.
          5    1    3    3  502    0 -0.65125787822E+02 -0.17279749662E+02  0.18800589206E+02  0.70110699200E+02  0.47000000000E+01 0. -1.
        -11    1    4    4    0    0 -0.29269404536E+02 -0.18532186626E+01 -0.24241299296E+02  0.38049613045E+02  0.00000000000E+00 0.  1.
         12    1    4    4    0    0  0.53075804666E+02  0.16706462758E+02 -0.56595977375E+02  0.79367824676E+02  0.00000000000E+00 0. -1.
         -5    1    5    5    0  501 -0.12369021553E+02 -0.56742202706E+02 -0.46041219769E+02  0.74260044303E+02  0.47000000000E+01 0.  1.
         11    1    6    6    0    0  0.25000181580E+02  0.31808041991E+01 -0.19277486090E+01  0.25275339940E+02  0.00000000000E+00 0. -1.
        -12    1    6    6    0    0  0.28688227665E+02  0.55987904074E+02 -0.17273787634E+03  0.18383697597E+03  0.00000000000E+00 0.  1.
</event>
<event>
12    1  0.1345781E-002  0.2615472E+03  0.7818608E-02  0.1106217E+00
          2   -1    0    0  502    0  0.00000000000E+00  0.00000000000E+00  0.93188456069E+03  0.93188456069E+03  0.00000000000E+00 0. -1.
         -2   -1    0    0    0  501 -0.00000000000E+00 -0.00000000000E+00 -0.16435570306E+03  0.16435570306E+03  0.00000000000E+00 0.  1.
          6    2    1    2  502    0 -0.10763148713E+03  0.16473274224E+03 -0.24047070852E+02  0.26253892993E+03  0.17212499738E+03 0.  0.
         24    2    3    3    0    0 -0.32255163624E+02  0.28993187961E+02 -0.51035198282E+02  0.10487705831E+03  0.80706910281E+02 0.  0.
         -6    2    1    2    0  501  0.10763148713E+03 -0.16473274224E+03  0.79157592848E+03  0.83370133383E+03  0.17246463433E+03 0.  0.
        -24    2    5    5    0    0  0.12301298420E+03 -0.11105151759E+03  0.71783974388E+03  0.74108719209E+03  0.80322441065E+02 0.  0.
          5    1    3    3  502    0 -0.75376323504E+02  0.13573955428E+03  0.26988127430E+02  0.15766187162E+03  0.47000000000E+01 0. -1.
        -11    1    4    4    0    0 -0.54527484976E+02  0.33149461785E+02 -0.51824477307E+02  0.82206507545E+02  0.00000000000E+00 0.  1.
         12    1    4    4    0    0  0.22272321353E+02 -0.41562738241E+01  0.78927902512E+00  0.22670550763E+02  0.00000000000E+00 0. -1.
         -5    1    5    5    0  501 -0.15381497068E+02 -0.53681224645E+02  0.73736184594E+02  0.92614141738E+02  0.47000000000E+01 0.  1.
         11    1    6    6    0    0  0.62518447216E+02 -0.10648205742E+03  0.47641060311E+03  0.49215246372E+03  0.00000000000E+00 0. -1.
        -12    1    6    6    0    0  0.60494536980E+02 -0.45694601702E+01  0.24142914077E+03  0.24893472836E+03  0.00000000000E+00 0.  1.
</event>
<event>
12    1  0.1345781E-002  0.2342616E+03  0.7818608E-02  0.1123676E+00
          2   -1    0    0  502    0  0.00000000000E+00  0.00000000000E+00  0.59155303408E+02  0.59155303408E+02  0.00000000000E+00 0. -1.
         -2   -1    0    0    0  501 -0.00000000000E+00 -0.00000000000E+00 -0.16144919938E+04  0.16144919938E+04  0.00000000000E+00 0.  1.
          6    2    1    2  502    0 -0.12104914462E+03 -0.10668854747E+03 -0.13119839103E+04  0.13317318774E+04  0.16177969806E+03 0.  0.
         24    2    3    3    0    0 -0.34951019830E+02 -0.95511069389E+02 -0.54189671379E+03  0.55675174643E+03  0.77307959273E+02 0.  0.
         -6    2    1    2    0  501  0.12104914462E+03  0.10668854747E+03 -0.24335278002E+03  0.34191541978E+03  0.17790513530E+03 0.  0.
        -24    2    5    5    0    0  0.21037052075E+02  0.11328522037E+03 -0.13087388438E+03  0.19118544031E+03  0.78407909414E+02 0.  0.
          5    1    3    3  502    0 -0.86098124789E+02 -0.11177478078E+02 -0.77008719653E+03  0.77498013095E+03  0.47000000000E+01 0. -1.
        -11    1    4    4    0    0 -0.56900952026E+02 -0.84025742977E+02 -0.39772296866E+03  0.41046510647E+03  0.00000000000E+00 0.  1.
         12    1    4    4    0    0  0.21949932196E+02 -0.11485326412E+02 -0.14417374513E+03  0.14628663996E+03  0.00000000000E+00 0. -1.
         -5    1    5    5    0  501  0.10001209254E+03 -0.65966729010E+01 -0.11247889564E+03  0.15072997948E+03  0.47000000000E+01 0.  1.
         13    1    6    6    0    0  0.41897516206E+02  0.88715907197E+02 -0.64541636327E+02  0.11743737426E+03  0.00000000000E+00 0. -1.
        -14    1    6    6    0    0 -0.20860464131E+02  0.24569313171E+02 -0.66332248052E+02  0.73748066043E+02  0.00000000000E+00 0.  1.
</event>
<event>
12    1  0.1345781E-002  0.1784096E+03  0.7818608E-02  0.1169351E+00
          2   -1    0    0  502    0  0.00000000000E+00  0.00000000000E+00  0.84085231702E+03  0.84085231702E+03  0.00000000000E+00 0.  1.
         -2   -1    0    0    0  501 -0.00000000000E+00 -0.00000000000E+00 -0.38709409471E+02  0.38709409471E+02  0.00000000000E+00 0. -1.
          6    2    1    2  502    0 -0.10135872544E+02  0.42259471437E+02  0.46695965994E+03  0.49996777356E+03  0.17328546316E+03 0.  0.
         24    2    3    3    0    0 -0.40708097257E+02  0.16729347488E+02  0.44545636224E+03  0.45446030203E+03  0.78522450369E+02 0.  0.
         -6    2    1    2    0  501  0.10135872544E+02 -0.42259471437E+02  0.33518324760E+03  0.37959395293E+03  0.17278646009E+03 0.  0.
        -24    2    5    5    0    0  0.50666867997E+02 -0.11546648307E+02  0.93356317379E+02  0.13243329005E+03  0.78247796888E+02 0.  0.
          5    1    3    3  502    0  0.30572224714E+02  0.25530123949E+02  0.21503297709E+02  0.45507471531E+02  0.47000000000E+01 0. -1.
        -13    1    4    4    0    0 -0.48522622445E+02  0.17366798671E+02  0.14473616243E+03  0.15363790971E+03  0.00000000000E+00 0.  1.
         14    1    4    4    0    0  0.78145251880E+01 -0.63745118298E+00  0.30072019980E+03  0.30082239231E+03  0.00000000000E+00 0. -1.
         -5    1    5    5    0  501 -0.40530995454E+02 -0.30712823130E+02  0.24182693022E+03  0.24716066289E+03  0.47000000000E+01 0.  1.
         13    1    6    6    0    0 -0.16666676708E+02  0.21850312477E+00  0.46934499839E+02  0.49806356334E+02  0.00000000000E+00 0. -1.
        -14    1    6    6    0    0  0.67333544705E+02 -0.11765151432E+02  0.46421817540E+02  0.82626933711E+02  0.00000000000E+00 0.  1.
</event>
<event>
12    1  0.1345781E-002  0.2515315E+03  0.7818608E-02  0.1112341E+00
          2   -1    0    0  502    0  0.00000000000E+00  0.00000000000E+00  0.16862018863E+04  0.16862018863E+04  0.00000000000E+00 0. -1.
         -2   -1    0    0    0  501 -0.00000000000E+00 -0.00000000000E+00 -0.37628054418E+02  0.37628054418E+02  0.00000000000E+00 0.  1.
          6    2    1    2  502    0 -0.93194857547E+02 -0.15796103992E+03  0.87156015687E+03  0.90724352190E+03  0.17273311609E+03 0.  0.
         24    2    3    3    0    0 -0.52609280305E+02 -0.77769025135E+02  0.24628572263E+03  0.27552510645E+03  0.80260011635E+02 0.  0.
         -6    2    1    2    0  501  0.93194857547E+02  0.15796103992E+03  0.77701367501E+03  0.81658641881E+03  0.17154053931E+03 0.  0.
        -24    2    5    5    0    0 -0.12284385362E+02  0.10802576546E+03  0.39028105441E+03  0.41260175059E+03  0.78105256115E+02 0.  0.
          5    1    3    3  502    0 -0.40585577243E+02 -0.80192014781E+02  0.62527443424E+03  0.63171841546E+03  0.47000000000E+01 0. -1.
        -13    1    4    4    0    0 -0.21511292128E+02 -0.82267739128E+02  0.21490720800E+03  0.23111863759E+03  0.00000000000E+00 0.  1.
         14    1    4    4    0    0 -0.31097988177E+02  0.44987139930E+01  0.31378514627E+02  0.44406468858E+02  0.00000000000E+00 0. -1.
         -5    1    5    5    0  501  0.10547924291E+03  0.49935274459E+02  0.38673262060E+03  0.40398466821E+03  0.47000000000E+01 0.  1.
         13    1    6    6    0    0  0.31213771719E+02  0.49444928806E+02  0.21331124355E+03  0.22118044027E+03  0.00000000000E+00 0. -1.
        -14    1    6    6    0    0 -0.43498157081E+02  0.58580836650E+02  0.17696981086E+03  0.19142131033E+03  0.00000000000E+00 0.  1.
</event>
<event>
12    1  0.1345781E-002  0.1929447E+03  0.7818608E-02  0.1155832E+00
         -1   -1    0    0    0  501 -0.00000000000E+00  0.00000000000E+00  0.39119774189E+03  0.39119774189E+03  0.00000000000E+00 0. -1.
          1   -1    0    0  502    0  0.00000000000E+00 -0.00000000000E+00 -0.10142239382E+03  0.10142239382E+03  0.00000000000E+00 0.  1.
          6    2    1    2  502    0 -0.71698177212E+02 -0.51090455544E+02  0.20630252937E+03  0.28268919154E+03  0.17205110323E+03 0.  0.
         24    2    3    3    0    0 -0.50450910240E+02 -0.78794140417E+02  0.70466362808E+02  0.14235924229E+03  0.80912512439E+02 0.  0.
         -6    2    1    2    0  501  0.71698177212E+02  0.51090455544E+02  0.83472818694E+02  0.20993094417E+03  0.17132549897E+03 0.  0.
        -24    2    5    5    0    0 -0.20262277782E+02  0.66320062621E+01  0.63939986017E+02  0.10583050927E+03  0.81591859106E+02 0.  0.
          5    1    3    3  502    0 -0.21247266972E+02  0.27703684873E+02  0.13583616657E+03  0.14032994925E+03  0.47000000000E+01 0. -1.
        -11    1    4    4    0    0  0.16942162374E+02 -0.15733222441E+02 -0.43770460211E+01  0.23531461624E+02  0.00000000000E+00 0.  1.
         12    1    4    4    0    0 -0.67393072614E+02 -0.63060917977E+02  0.74843408829E+02  0.11882778066E+03  0.00000000000E+00 0. -1.
         -5    1    5    5    0  501  0.91960454993E+02  0.44458449282E+02  0.19532832677E+02  0.10410043491E+03  0.47000000000E+01 0.  1.
         11    1    6    6    0    0 -0.27736867016E+01 -0.35099772025E+02  0.44080266122E+02  0.56415930335E+02  0.00000000000E+00 0. -1.
        -12    1    6    6    0    0 -0.17488591080E+02  0.41731778287E+02  0.19859719895E+02  0.49414578934E+02  0.00000000000E+00 0.  1.
</event>
<event>
12    1  0.1345781E-002  0.2360119E+03  0.7818608E-02  0.1122478E+00
         -1   -1    0    0    0  501 -0.00000000000E+00  0.00000000000E+00  0.65466396937E+03  0.65466396937E+03  0.00000000000E+00 0. -1.
          1   -1    0    0  502    0  0.00000000000E+00 -0.00000000000E+00 -0.11680904463E+03  0.11680904463E+03  0.00000000000E+00 0.  1.
          6    2    1    2  502    0  0.15480149658E+03  0.46467834899E+02  0.68360476236E+02  0.24624219333E+03  0.17274055703E+03 0.  0.
         24    2    3    3    0    0  0.33160228556E+02  0.40663363945E+02  0.80109553075E+02  0.12380681946E+03  0.78469600006E+02 0.  0.
         -6    2    1    2    0  501 -0.15480149658E+03 -0.46467834899E+02  0.46949444850E+03  0.52523082066E+03  0.17122971347E+03 0.  0.
        -24    2    5    5    0    0 -0.78808628164E+02 -0.91438631475E+02  0.26068658244E+03  0.29847080760E+03  0.80966076390E+02 0.  0.
          5    1    3    3  502    0  0.12164126802E+03  0.58044709543E+01 -0.11749076839E+02  0.12243537388E+03  0.47000000000E+01 0. -1.
        -11    1    4    4    0    0  0.34560674619E+02  0.15877004947E+02  0.89514420449E+02  0.97259194859E+02  0.00000000000E+00 0.  1.
         12    1    4    4    0    0 -0.14004460636E+01  0.24786358997E+02 -0.94048673738E+01  0.26547624599E+02  0.00000000000E+00 0. -1.
         -5    1    5    5    0  501 -0.75992868415E+02  0.44970796576E+02  0.20880786606E+03  0.22676001306E+03  0.47000000000E+01 0.  1.
         13    1    6    6    0    0 -0.73745478396E+01 -0.27543037715E+02  0.10212961455E+02  0.30287084113E+02  0.00000000000E+00 0. -1.
        -14    1    6    6    0    0 -0.71434080325E+02 -0.63895593760E+02  0.25047362099E+03  0.26818372349E+03  0.00000000000E+00 0.  1.
</event>
<event>
12    1  0.1345781E-002  0.2407779E+03  0.7818608E-02  0.1119276E+00
         -2   -1    0    0    0  501 -0.00000000000E+00  0.00000000000E+00  0.76577253829E+03  0.76577253829E+03  0.00000000000E+00 0.  1.
          2   -1    0    0  502    0  0.00000000000E+00 -0.00000000000E+00 -0.96169993691E+02  0.96169993691E+02  0.00000000000E+00 0. -1.
          6    2    1    2  502    0  0.12177727053E+03  0.11387981581E+03  0.53371092498E+03  0.58555038880E+03  0.17384933223E+03 0.  0.
         24    2    3    3    0    0  0.11274028044E+02  0.79032677738E+02  0.35533845651E+03  0.37279673516E+03  0.79616073816E+02 0.  0.
         -6    2    1    2    0  501 -0.12177727053E+03 -0.11387981581E+03  0.13589161962E+03  0.27639214318E+03  0.17357352466E+03 0.  0.
        -24    2    5    5    0    0 -0.11835563538E+03 -0.19018510447E+02  0.98728284643E+02  0.17434520149E+03  0.79241497512E+02 0.  0.
          5    1    3    3  502    0  0.11050324248E+03  0.34847138072E+02  0.17837246847E+03  0.21275365364E+03  0.47000000000E+01 0. -1.
        -13    1    4    4    0    0  0.39567276563E+02  0.25592856477E+02  0.10226509167E+03  0.11259978975E+03  0.00000000000E+00 0.  1.
         14    1    4    4    0    0 -0.28293248519E+02  0.53439821261E+02  0.25307336484E+03  0.26019694541E+03  0.00000000000E+00 0. -1.
         -5    1    5    5    0  501 -0.34216351514E+01 -0.94861305363E+02  0.37163334975E+02  0.10204694169E+03  0.47000000000E+01 0.  1.
         11    1    6    6    0    0 -0.55309196199E+02 -0.41176531398E+02  0.78586725401E+02  0.10454897097E+03  0.00000000000E+00 0. -1.
        -12    1    6    6    0    0 -0.63046439177E+02  0.22158020951E+02  0.20141559242E+02  0.69796230514E+02  0.00000000000E+00 0.  1.
</event>
<event>
12    1  0.1345781E-002  0.3653889E+03  0.7818608E-02  0.1056470E+00
         -2   -1    0    0    0  501 -0.00000000000E+00  0.00000000000E+00  0.30665629688E+03  0.30665629688E+03  0.00000000000E+00 0. -1.
          2   -1    0    0  502    0  0.00000000000E+00 -0.00000000000E+00 -0.51016732002E+03  0.51016732002E+03  0.00000000000E+00 0.  1.
          6    2    1    2  502    0 -0.25267109516E+03  0.20084329100E+03  0.54635571806E+02  0.36940910316E+03  0.17116462813E+03 0.  0.
         24    2    3    3    0    0 -0.67543094717E+02  0.22654460240E+02  0.25979566413E+01  0.10719995125E+03  0.80061138865E+02 0.  0.
         -6    2    1    2    0  501  0.25267109516E+03 -0.20084329100E+03 -0.25814659494E+03  0.44741451373E+03  0.17134576957E+03 0.  0.
        -24    2    5    5    0    0  0.56389940776E+02 -0.72562855972E+02 -0.13642769079E+03  0.18318025554E+03  0.80605816893E+02 0.  0.
          5    1    3    3  502    0 -0.18512800044E+03  0.17818883076E+03  0.52037615165E+02  0.26220915191E+03  0.47000000000E+01 0. -1.
        -11    1    4    4    0    0 -0.61410889942E+02 -0.37590392211E+00  0.32082836329E+02  0.69287423780E+02  0.00000000000E+00 0.  1.
         12    1    4    4    0    0 -0.61322047752E+01  0.23030364162E+02 -0.29484879688E+02  0.37912527468E+02  0.00000000000E+00 0. -1.
         -5    1    5    5    0  501  0.19628115438E+03 -0.12828043503E+03 -0.12171890415E+03  0.26423425820E+03  0.47000000000E+01 0.  1.
         13    1    6    6    0    0  0.60368433106E+02 -0.60470760685E+02 -0.14466702186E+03  0.16801668913E+03  0.00000000000E+00 0. -1.
        -14    1    6    6    0    0 -0.39784923298E+01 -0.12092095287E+02  0.82393310695E+01  0.15163566405E+02  0.00000000000E+00 0.  1.
</event>
<event>
12    1  0.1345781E-002  0.2298944E+03  0.7818608E-02  0.1126714E+00
          2   -1    0    0  502    0  0.00000000000E+00  0.00000000000E+00  0.88950385359E+03  0.88950385359E+03  0.00000000000E+00 0. -1.
         -2   -1    0    0    0  501 -0.00000000000E+00 -0.00000000000E+00 -0.67378870936E+02  0.67378870936E+02  0.00000000000E+00 0.  1.
          6    2    1    2  502    0  0.11171529276E+03 -0.10940656125E+03  0.58014917220E+03  0.62515881371E+03  0.17262786007E+03 0.  0.
         24    2    3    3    0    0  0.91582106576E+01 -0.63683351729E+02  0.39925913986E+03  0.41219905042E+03  0.79754337175E+02 0.  0.
         -6    2    1    2    0  501 -0.11171529276E+03  0.10940656125E+03  0.24197581045E+03  0.33172391081E+03  0.16443344514E+03 0.  0.
        -24    2    5    5    0    0 -0.73160449298E+02  0.14641005849E+02  0.63745143540E+02  0.12616309968E+03  0.79289810208E+02 0.  0.
          5    1    3    3  502    0  0.10255708210E+03 -0.45723209525E+02  0.18089003234E+03  0.21295976329E+03  0.47000000000E+01 0. -1.
        -13    1    4    4    0    0  0.27481857611E+01 -0.93573717311E+01  0.56423095199E+00  0.97688938605E+01  0.00000000000E+00 0.  1.
         14    1    4    4    0    0  0.64100248965E+01 -0.54325979998E+02  0.39869490891E+03  0.40243015656E+03  0.00000000000E+00 0. -1.
         -5    1    5    5    0  501 -0.38554843462E+02  0.94765555405E+02  0.17823066691E+03  0.20556081113E+03  0.47000000000E+01 0.  1.
         11    1    6    6    0    0 -0.85241658020E+02 -0.41338408451E+01  0.57753588306E+02  0.10304710507E+03  0.00000000000E+00 0. -1.
        -12    1    6    6    0    0  0.12081208722E+02  0.18774846694E+02  0.59915552341E+01  0.23115994608E+02  0.00000000000E+00 0.  1.
</event>
<event>
12    1  0.1345781E-002  0.2350490E+03  0.7818608E-02  0.1123136E+00
          1   -1    0    0  502    0  0.00000000000E+00  0.00000000000E+00  0.59884950834E+02  0.59884950834E+02  0.00000000000E+00 0. -1.
         -1   -1    0    0    0  501 -0.00000000000E+00 -0.00000000000E+00 -0.11474525811E+04  0.11474525811E+04  0.00000000000E+00 0.  1.
          6    2    1    2  502    0  0.12506031245E+03  0.96072513090E+02 -0.27352552084E+03  0.35958312449E+03  0.17208661583E+03 0.  0.
         24    2    3    3    0    0  0.80479699499E+02  0.14215240717E+02 -0.22621321437E+03  0.25494762175E+03  0.84538845379E+02 0.  0.
         -6    2    1    2    0  501 -0.12506031245E+03 -0.96072513090E+02 -0.81404210938E+03  0.84775440740E+03  0.17650203935E+03 0.  0.
        -24    2    5    5    0    0 -0.74888780718E+01  0.26213960235E+01 -0.22298076179E+03  0.23706697794E+03  0.80108531948E+02 0.  0.
          5    1    3    3  502    0  0.44580612952E+02  0.81857272373E+02 -0.47312306473E+02  0.10463550275E+03  0.47000000000E+01 0. -1.
        -11    1    4    4    0    0 -0.11811036230E+02  0.20634519558E+02 -0.32411771946E+02  0.40197101076E+02  0.00000000000E+00 0.  1.
         12    1    4    4    0    0  0.92290735729E+02 -0.64192788410E+01 -0.19380144242E+03  0.21475052067E+03  0.00000000000E+00 0. -1.
         -5    1    5    5    0  501 -0.11757143438E+03 -0.98693909114E+02 -0.59106134759E+03  0.61068742945E+03  0.47000000000E+01 0.  1.
         13    1    6    6    0    0  0.69552634645E+01  0.39844274785E+02 -0.10556403627E+03  0.11304736917E+03  0.00000000000E+00 0. -1.
        -14    1    6    6    0    0 -0.14444141536E+02 -0.37222878762E+02 -0.11741672552E+03  0.12401960877E+03  0.00000000000E+00 0.  1.
</event>
<event>
12    1  0.1345781E-002  0.1792471E+03  0.7818608E-02  0.1168534E+00
          2   -1    0    0  502    0  0.00000000000E+00  0.00000000000E+00  0.15614080747E+04  0.15614080747E+04  0.00000000000E+00 0.  1.
         -2   -1    0    0    0  501 -0.00000000000E+00 -0.00000000000E+00 -0.33890070440E+02  0.33890070440E+02  0.00000000000E+00 0. -1.
          6    2    1    2  502    0 -0.15947277123E+02 -0.42742593542E+02  0.12667919420E+04  0.12795809820E+04  0.17459788184E+03 0.  0.
         24    2    3    3    0    0  0.31753185872E+02 -0.29150226171E+02  0.11449460995E+04  0.11479428950E+04  0.70804794830E+02 0.  0.
         -6    2    1    2    0  501  0.15947277123E+02  0.42742593542E+02  0.26072606224E+03  0.31571716308E+03  0.17209881632E+03 0.  0.
        -24    2    5    5    0    0  0.50146094103E+02  0.73316041012E+02  0.12704901266E+03  0.17431016764E+03  0.79703891384E+02 0.  0.
          5    1    3    3  502    0 -0.47700462995E+02 -0.13592367372E+02  0.12184584250E+03  0.13163808702E+03  0.47000000000E+01 0. -1.
        -13    1    4    4    0    0  0.34135056255E+02  0.15561183312E+02  0.59159113055E+03  0.59277940099E+03  0.00000000000E+00 0.  1.
         14    1    4    4    0    0 -0.23818703833E+01 -0.44711409482E+02  0.55335496894E+03  0.55516349402E+03  0.00000000000E+00 0. -1.
         -5    1    5    5    0  501 -0.34198816979E+02 -0.30573447469E+02  0.13367704959E+03  0.14140699544E+03  0.47000000000E+01 0.  1.
         11    1    6    6    0    0 -0.34313106322E+01  0.36045643090E+02  0.94865328952E+02  0.10154059738E+03  0.00000000000E+00 0. -1.
        -12    1    6    6    0    0  0.53577404735E+02  0.37270397921E+02  0.32183683705E+02  0.72769570262E+02  0.00000000000E+00 0.  1.
</event>
<event>
12    1  0.1345781E-002  0.2179717E+03  0.7818608E-02  0.1135404E+00
          1   -1    0    0  502    0  0.00000000000E+00  0.00000000000E+00  0.47847484098E+03  0.47847484098E+03  0.00000000000E+00 0.  1.
         -1   -1    0    0    0  501 -0.00000000000E+00 -0.00000000000E+00 -0.99348982538E+02  0.99348982538E+02  0.00000000000E+00 0. -1.
          6    2    1    2  502    0  0.10758306657E+03 -0.76775704102E+02  0.19420256580E+03  0.29066503999E+03  0.17118091002E+03 0.  0.
         24    2    3    3    0    0  0.85649096745E+02 -0.30475498242E+01  0.51076279860E+02  0.12810993089E+03  0.80363627938E+02 0.  0.
         -6    2    1    2    0  501 -0.10758306657E+03  0.76775704102E+02  0.18492329264E+03  0.28715878353E+03  0.17548480802E+03 0.  0.
        -24    2    5    5    0    0 -0.48312537754E+02  0.11577361899E+03  0.11363417811E+03  0.18647084581E+03  0.78236933394E+02 0.  0.
          5    1    3    3  502    0  0.21933969821E+02 -0.73728154277E+02  0.14312628594E+03  0.16255510910E+03  0.47000000000E+01 0. -1.
        -13    1    4    4    0    0  0.25239219635E+02  0.36927428758E+02  0.24125780235E+02  0.50820335245E+02  0.00000000000E+00 0.  1.
         14    1    4    4    0    0  0.60409877110E+02 -0.39974978582E+02  0.26950499625E+02  0.77289595646E+02  0.00000000000E+00 0. -1.
         -5    1    5    5    0  501 -0.59270528813E+02 -0.38997914884E+02  0.71289114528E+02  0.10068793771E+03  0.47000000000E+01 0.  1.
         13    1    6    6    0    0 -0.57245274319E+02  0.50691460723E+02  0.35245923553E+02  0.84195728806E+02  0.00000000000E+00 0. -1.
        -14    1    6    6    0    0  0.89327365656E+01  0.65082158263E+02  0.78388254555E+02  0.10227511701E+03  0.00000000000E+00 0.  1.
</event>
<event>
12    1  0.1345781E-002  0.2399823E+03  0.7818608E-02  0.1119805E+00
         -1   -1    0    0    0  501 -0.00000000000E+00  0.00000000000E+00  0.84520500294E+02  0.84520500294E+02  0.00000000000E+00 0.  1.
          1   -1    0    0  502    0  0.00000000000E+00 -0.00000000000E+00 -0.70672338567E+03  0.70672338567E+03  0.00000000000E+00 0. -1.
          6    2    1    2  502    0 -0.14726769189E+03 -0.81417784820E+02 -0.38562579807E+03  0.45404229754E+03  0.17067666230E+03 0.  0.
         24    2    3    3    0    0 -0.61243606322E+02  0.17875555133E+02 -0.21969709878E+03  0.24234975183E+03  0.79976697950E+02 0.  0.
         -6    2    1    2    0  501  0.14726769189E+03  0.81417784820E+02 -0.23657708731E+03  0.33720158843E+03  0.17152132299E+03 0.  0.
        -24    2    5    5    0    0  0.15208759831E+03  0.21866947000E+02 -0.21109133842E+03  0.27207749781E+03  0.76536335992E+02 0.  0.
          5    1    3    3  502    0 -0.86024085572E+02 -0.99293339953E+02 -0.16592869929E+03  0.21169254570E+03  0.47000000000E+01 0. -1.
        -13    1    4    4    0    0  0.17760009452E+02  0.13969695914E+02 -0.60559187451E+02  0.64637338470E+02  0.00000000000E+00 0.  1.
         14    1    4    4    0    0 -0.79003615775E+02  0.39058592186E+01 -0.15913791133E+03  0.17771241336E+03  0.00000000000E+00 0. -1.
         -5    1    5    5    0  501 -0.48199064150E+01  0.59550837820E+02 -0.25485748889E+02  0.65124090622E+02  0.47000000000E+01 0.  1.
         11    1    6    6    0    0  0.30695458989E+02 -0.19092621800E+02 -0.84782727364E+02  0.92167512004E+02  0.00000000000E+00 0. -1.
        -12    1    6    6    0    0  0.12139213932E+03  0.40959568800E+02 -0.12630861105E+03  0.17990998580E+03  0.00000000000E+00 0.  1.
</event>
<event>
12    1  0.1345781E-002  0.2130788E+03  0.7818608E-02  0.1139151E+00
          1   -1    0    0  502    0  0.00000000000E+00  0.00000000000E+00  0.23973874784E+04  0.23973874784E+04  0.00000000000E+00 0.  1.
         -1   -1    0    0    0  501 -0.00000000000E+00 -0.00000000000E+00 -0.24087347634E+02  0.24087347634E+02  0.00000000000E+00 0. -1.
          6    2    1    2  502    0  0.65787640713E+02 -0.10531694325E+03  0.61760272979E+03  0.65263354179E+03  0.17052195115E+03 0.  0.
         24    2    3    3    0    0 -0.29287811346E+02 -0.35718963196E+02  0.29022251671E+03  0.30466355124E+03  0.80356393779E+02 0.  0.
         -6    2    1    2    0  501 -0.65787640713E+02  0.10531694325E+03  0.17556974010E+04  0.17688412842E+04  0.17580231181E+03 0.  0.
        -24    2    5    5    0    0 -0.80959276552E+02  0.13103694051E+02  0.72428379600E+03  0.73319193412E+03  0.79102995295E+02 0.  0.
          5    1    3    3  502    0  0.95075452059E+02 -0.69597980051E+02  0.32738021308E+03  0.34796999056E+03  0.47000000000E+01 0. -1.
        -11    1    4    4    0    0 -0.24597589117E+01  0.25474789963E+02  0.91301550742E+02  0.94820823163E+02  0.00000000000E+00 0.  1.
         12    1    4    4    0    0 -0.26828052434E+02 -0.61193753160E+02  0.19892096597E+03  0.20984272807E+03  0.00000000000E+00 0. -1.
         -5    1    5    5    0  501  0.15171635839E+02  0.92213249196E+02  0.10314136050E+04  0.10356493501E+04  0.47000000000E+01 0.  1.
         13    1    6    6    0    0 -0.13653438352E+02  0.35816132665E+02  0.16381847496E+03  0.16824299236E+03  0.00000000000E+00 0. -1.
        -14    1    6    6    0    0 -0.67305838201E+02 -0.22712438614E+02  0.56046532103E+03  0.56494894177E+03  0.00000000000E+00 0.  1.
</event>
<event>
12    1  0.1345781E-002  0.2005127E+03  0.7818608E-02  0.1149307E+00
         -1   -1    0    0    0  501 -0.00000000000E+00  0.00000000000E+00  0.25959780335E+03  0.25959780335E+03  0.00000000000E+00 0.  1.
          1   -1    0    0  502    0  0.00000000000E+00 -0.00000000000E+00 -0.15508676768E+03  0.15508676768E+03  0.00000000000E+00 0. -1.
          6    2    1    2  502    0 -0.60554496681E+02  0.88033150341E+02  0.44365091719E+02  0.20369734920E+03  0.16765341058E+03 0.  0.
         24    2    3    3    0    0  0.12550484441E+01 -0.15298293549E+02  0.39621263224E+02  0.83105471055E+02  0.71421718600E+02 0.  0.
         -6    2    1    2    0  501  0.60554496681E+02 -0.88033150341E+02  0.60145943944E+02  0.21098722183E+03  0.17170145770E+03 0.  0.
        -24    2    5    5    0    0  0.13299929212E+02 -0.79381401889E+02 -0.22525767453E+02  0.11525557209E+03  0.79360831742E+02 0.  0.
          5    1    3    3  502    0 -0.61809545125E+02  0.10333144389E+03  0.47438284954E+01  0.12059187814E+03  0.47000000000E+01 0. -1.
        -11    1    4    4    0    0 -0.63485388441E+00  0.25074387061E+01  0.57642863748E+02  0.57700866799E+02  0.00000000000E+00 0.  1.
         12    1    4    4    0    0  0.18899023285E+01 -0.17805732255E+02 -0.18021600524E+02  0.25404604256E+02  0.00000000000E+00 0. -1.
         -5    1    5    5    0  501  0.47254567469E+02 -0.86517484521E+01  0.82671711398E+02  0.95731649748E+02  0.47000000000E+01 0.  1.
         11    1    6    6    0    0 -0.32704529617E+02 -0.25714472871E+02 -0.20073419002E+01  0.41651528111E+02  0.00000000000E+00 0. -1.
        -12    1    6    6    0    0  0.46004458829E+02 -0.53666929017E+02 -0.20518425553E+02  0.73604043975E+02  0.00000000000E+00 0.  1.
</event>
<event>
12    1  0.1345781E-002  0.1805466E+03  0.7818608E-02  0.1167275E+00
         -1   -1    0    0    0  501 -0.00000000000E+00  0.00000000000E+00  0.79908395944E+02  0.79908395944E+02  0.00000000000E+00 0.  1.
          1   -1    0    0  502    0  0.00000000000E+00 -0.00000000000E+00 -0.50432799587E+03  0.50432799587E+03  0.00000000000E+00 0. -1.
          6    2    1    2  502    0  0.18270932081E+02  0.45337037891E+02 -0.33877031172E+03  0.38331827234E+03  0.17256390075E+03 0.  0.
         24    2    3    3    0    0  0.51668531371E+02  0.85737064867E+02 -0.22537557898E+03  0.25830620400E+03  0.76860015585E+02 0.  0.
         -6    2    1    2    0  501 -0.18270932081E+02 -0.45337037891E+02 -0.85649288209E+02  0.20091811948E+03  0.17505146729E+03 0.  0.
        -24    2    5    5    0    0 -0.23243402985E+02  0.33413406975E+02 -0.85238791318E+02  0.12186992822E+03  0.77005949845E+02 0.  0.
          5    1    3    3  502    0 -0.33397599290E+02 -0.40400026976E+02 -0.11339473274E+03  0.12501206834E+03  0.47000000000E+01 0. -1.
        -11    1    4    4    0    0 -0.15922787714E+02  0.52765859787E+01 -0.12542782436E+02  0.20945140711E+02  0.00000000000E+00 0.  1.
         12    1    4    4    0    0  0.67591319085E+02  0.80460478889E+02 -0.21283279655E+03  0.23736106329E+03  0.00000000000E+00 0. -1.
         -5    1    5    5    0  501  0.49724709046E+01 -0.78750444866E+02 -0.41049689087E+00  0.79048191258E+02  0.47000000000E+01 0.  1.
         11    1    6    6    0    0  0.22387330055E+02 -0.74733023533E+01 -0.37014716382E+02  0.43899111880E+02  0.00000000000E+00 0. -1.
        -12    1    6    6    0    0 -0.45630733041E+02  0.40886709329E+02 -0.48224074936E+02  0.77970816342E+02  0.00000000000E+00 0.  1.
</event>
<event>
12    1  0.1345781E-002  0.1991296E+03  0.7818608E-02  0.1150475E+00
         -1   -1    0    0    0  501 -0.00000000000E+00  0.00000000000E+00  0.10575216530E+03  0.10575216530E+03  0.00000000000E+00 0. -1.
          1   -1    0    0  502    0  0.00000000000E+00 -0.00000000000E+00 -0.38376798517E+03  0.38376798517E+03  0.00000000000E+00 0.  1.
          6    2    1    2  502    0  0.33313066836E+02 -0.96257245317E+02 -0.10237368048E+03  0.22448221836E+03  0.17186238159E+03 0.  0.
         24    2    3    3    0    0  0.11744583365E+02  0.96320366152E+01 -0.10663653887E+02  0.82670517554E+02  0.80560471639E+02 0.  0.
         -6    2    1    2    0  501 -0.33313066836E+02  0.96257245317E+02 -0.17564213939E+03  0.26503793211E+03  0.17035177319E+03 0.  0.
        -24    2    5    5    0    0 -0.49101207220E+02  0.48422201466E+02 -0.21415069846E+02  0.10272485260E+03  0.73062657910E+02 0.  0.
          5    1    3    3  502    0  0.21568483470E+02 -0.10588928193E+03 -0.91710026591E+02  0.14181170080E+03  0.47000000000E+01 0. -1.
        -11    1    4    4    0    0  0.42393934544E+02  0.10263433024E+02 -0.23371100078E+02  0.49485271166E+02  0.00000000000E+00 0.  1.
         12    1    4    4    0    0 -0.30649351178E+02 -0.63139640826E+00  0.12707446192E+02  0.33185246388E+02  0.00000000000E+00 0. -1.
         -5    1    5    5    0  501  0.15788140384E+02  0.47835043851E+02 -0.15422706955E+03  0.16231307950E+03  0.47000000000E+01 0.  1.
         11    1    6    6    0    0 -0.62007064528E+02  0.16540132963E+02 -0.23310233041E+02  0.68277514705E+02  0.00000000000E+00 0. -1.
        -12    1    6    6    0    0  0.12905857308E+02  0.31882068503E+02  0.18951631947E+01  0.34447337900E+02  0.00000000000E+00 0.  1.
</event>
<event>
12    1  0.1345781E-002  0.1859063E+03  0.7818608E-02  0.1162206E+00
         -2   -1    0    0    0  501 -0.00000000000E+00  0.00000000000E+00  0.37997694644E+02  0.37997694644E+02  0.00000000000E+00 0.  1.
          2   -1    0    0  502    0  0.00000000000E+00 -0.00000000000E+00 -0.13400430528E+04  0.13400430528E+04  0.00000000000E+00 0. -1.
          6    2    1    2  502    0  0.50420238221E+02  0.66217584654E+02 -0.24774506282E+03  0.30647958922E+03  0.16007858544E+03 0.  0.
         24    2    3    3    0    0  0.45699376296E+02  0.59728325692E+02 -0.73677972194E+02  0.13216424549E+03  0.79893919143E+02 0.  0.
         -6    2    1    2    0  501 -0.50420238221E+02 -0.66217584654E+02 -0.10543002953E+04  0.10715611582E+04  0.17253183513E+03 0.  0.
        -24    2    5    5    0    0 -0.79993888629E+02 -0.16032845000E+02 -0.88542751040E+03  0.89286248340E+03  0.81027549329E+02 0.  0.
          5    1    3    3  502    0  0.47208619258E+01  0.64892589623E+01 -0.17406709062E+03  0.17431534372E+03  0.47000000000E+01 0. -1.
        -11    1    4    4    0    0 -0.14620042969E+02  0.44041057969E+02 -0.22770152853E+02  0.51689847208E+02  0.00000000000E+00 0.  1.
         12    1    4    4    0    0  0.60319419265E+02  0.15687267722E+02 -0.50907819341E+02  0.80474398284E+02  0.00000000000E+00 0. -1.
         -5    1    5    5    0  501  0.29573650408E+02 -0.50184739654E+02 -0.16887278489E+03  0.17869867478E+03  0.47000000000E+01 0.  1.
         11    1    6    6    0    0 -0.55927474236E+02 -0.45751947891E+02 -0.68652623714E+03  0.69031833048E+03  0.00000000000E+00 0. -1.
        -12    1    6    6    0    0 -0.24066414393E+02  0.29719102891E+02 -0.19890127326E+03  0.20254415292E+03  0.00000000000E+00 0.  1.
</event>
<event>
12    1  0.1345781E-002  0.1751685E+03  0.7818608E-02  0.1172563E+00
          1   -1    0    0  502    0  0.00000000000E+00  0.00000000000E+00  0.28277786565E+03  0.28277786565E+03  0.00000000000E+00 0. -1.
         -1   -1    0    0    0  501 -0.00000000000E+00 -0.00000000000E+00 -0.11583234576E+03  0.11583234576E+03  0.00000000000E+00 0.  1.
          6    2    1    2  502    0  0.22597848864E+02  0.12002783942E+02  0.13416893205E+03  0.22173237138E+03  0.17466886555E+03 0.  0.
         24    2    3    3    0    0  0.50728741676E+02  0.76267871331E+01  0.96426314559E+01  0.93906763543E+02  0.78063607293E+02 0.  0.
         -6    2    1    2    0  501 -0.22597848864E+02 -0.12002783942E+02  0.32776587836E+02  0.17687784003E+03  0.17192072588E+03 0.  0.
        -24    2    5    5    0    0  0.21444744611E+02 -0.53630309996E+02 -0.14720069267E+02  0.99737556124E+02  0.79967571181E+02 0.  0.
          5    1    3    3  502    0 -0.28130892812E+02  0.43759968091E+01  0.12452630060E+03  0.12782560784E+03  0.47000000000E+01 0. -1.
        -13    1    4    4    0    0 -0.15619187399E+02  0.17712081277E+02 -0.72504821702E+01  0.24703164369E+02  0.00000000000E+00 0.  1.
         14    1    4    4    0    0  0.66347929075E+02 -0.10085294144E+02  0.16893113626E+02  0.69203599173E+02  0.00000000000E+00 0. -1.
         -5    1    5    5    0  501 -0.44042593475E+02  0.41627526054E+02  0.47496657103E+02  0.77140283907E+02  0.47000000000E+01 0.  1.
         11    1    6    6    0    0 -0.27009831508E+02 -0.86610685632E+01 -0.17924386825E+02  0.33553371661E+02  0.00000000000E+00 0. -1.
        -12    1    6    6    0    0  0.48454576119E+02 -0.44969241433E+02  0.32043175579E+01  0.66184184463E+02  0.00000000000E+00 0.  1.
</event>
<event>
12    1  0.1345781E-002  0.5263783E+03  0.7818608E-02  0.1007114E+00
          2   -1    0    0  502    0  0.00000000000E+00  0.00000000000E+00  0.87270086118E+03  0.87270086118E+03  0.00000000000E+00 0. -1.
         -2   -1    0    0    0  501 -0.00000000000E+00 -0.00000000000E+00 -0.38033806444E+03  0.38033806444E+03  0.00000000000E+00 0.  1.
          6    2    1    2  502    0 -0.86959495046E+02 -0.48987723658E+03  0.50088533961E+03  0.72665343365E+03  0.17203903192E+03 0.  0.
         24    2    3    3    0    0 -0.96559580581E+02 -0.21967675148E+03  0.28461268299E+03  0.38039281534E+03  0.78183674134E+02 0.  0.
         -6    2    1    2    0  501  0.86959495046E+02  0.48987723658E+03 -0.85225428685E+01  0.52638549196E+03  0.17166068772E+03 0.  0.
        -24    2    5    5    0    0  0.13405566912E+02  0.31005011071E+03 -0.58503262820E+02  0.32571626684E+03  0.79735025859E+02 0.  0.
          5    1    3    3  502    0  0.96000855346E+01 -0.27020048511E+03  0.21627265662E+03  0.34626061831E+03  0.47000000000E+01 0. -1.
        -13    1    4    4    0    0 -0.23206421474E+02 -0.66089918429E+01  0.12781536534E+02  0.27305392269E+02  0.00000000000E+00 0.  1.
         14    1    4    4    0    0 -0.73353159107E+02 -0.21306775963E+03  0.27183114646E+03  0.35308742307E+03  0.00000000000E+00 0. -1.
         -5    1    5    5    0  501  0.73553928135E+02  0.17982712587E+03  0.49980719951E+02  0.20066922512E+03  0.47000000000E+01 0.  1.
         13    1    6    6    0    0 -0.31544484021E+02  0.12300699990E+03 -0.10324387300E+02  0.12740631645E+03  0.00000000000E+00 0. -1.
        -14    1    6    6    0    0  0.44950050932E+02  0.18704311081E+03 -0.48178875520E+02  0.19830995040E+03  0.00000000000E+00 0.  1.
</event>
<event>
12    1  0.1345781E-002  0.2283565E+03  0.7818608E-02  0.1127802E+00
          1   -1    0    0  502    0  0.00000000000E+00  0.00000000000E+00  0.12407429237E+03  0.12407429237E+03  0.00000000000E+00 0. -1.
         -1   -1    0    0    0  501 -0.00000000000E+00 -0.00000000000E+00 -0.46625490895E+03  0.46625490895E+03  0.00000000000E+00 0.  1.
          6    2    1    2  502    0 -0.63144581327E+02 -0.13315220161E+03 -0.26333622916E+03  0.34814154039E+03  0.17360822449E+03 0.  0.
         24    2    3    3    0    0 -0.58664408758E+02 -0.12441755397E+03 -0.28391263559E+03  0.32486398645E+03  0.77517639628E+02 0.  0.
         -6    2    1    2    0  501  0.63144581327E+02  0.13315220161E+03 -0.78844387428E+02  0.24218766094E+03  0.17527600730E+03 0.  0.
        -24    2    5    5    0    0 -0.17073450769E+02  0.37799331713E+02  0.51046029150E+01  0.91865921157E+02  0.81810746849E+02 0.  0.
          5    1    3    3  502    0 -0.44801725696E+01 -0.87346476406E+01  0.20576406431E+02  0.23277553937E+02  0.47000000000E+01 0. -1.
        -11    1    4    4    0    0 -0.65649498866E+02 -0.12027657405E+03 -0.21157495417E+03  0.25207195837E+03  0.00000000000E+00 0.  1.
         12    1    4    4    0    0  0.69850901078E+01 -0.41409799259E+01 -0.72337681418E+02  0.72792028077E+02  0.00000000000E+00 0. -1.
         -5    1    5    5    0  501  0.80218032096E+02  0.95352869899E+02 -0.83948990343E+02  0.15032173978E+03  0.47000000000E+01 0.  1.
         13    1    6    6    0    0  0.16300711598E+02  0.43875762575E+02 -0.18722162890E+02  0.50411458255E+02  0.00000000000E+00 0. -1.
        -14    1    6    6    0    0 -0.33374162367E+02 -0.60764308618E+01  0.23826765805E+02  0.41454462901E+02  0.00000000000E+00 0.  1.
</event>
<event>
12    1  0.1345781E-002  0.2232346E+03  0.7818608E-02  0.1131494E+00
         -2   -1    0    0    0  501 -0.00000000000E+00  0.00000000000E+00  0.75948170508E+03  0.75948170508E+03  0.00000000000E+00 0. -1.
          2   -1    0    0  502    0  0.00000000000E+00 -0.00000000000E+00 -0.10827698685E+03  0.10827698685E+03  0.00000000000E+00 0.  1.
          6    2    1    2  502    0 -0.12011078447E+03  0.76830686914E+02  0.59754228385E+03  0.63772006622E+03  0.17117402511E+03 0.  0.
         24    2    3    3    0    0 -0.17909762339E+02  0.52315380536E+02  0.11480054043E+03  0.14364747033E+03  0.66315707197E+02 0.  0.
         -6    2    1    2    0  501  0.12011078447E+03 -0.76830686914E+02  0.53662434381E+02  0.23003862570E+03  0.17236170530E+03 0.  0.
        -24    2    5    5    0    0  0.34147857412E+01 -0.16125893840E+02  0.55111669384E+02  0.98405733520E+02  0.79841637468E+02 0.  0.
          5    1    3    3  502    0 -0.10220102213E+03  0.24515306378E+02  0.48274174342E+03  0.49407259589E+03  0.47000000000E+01 0. -1.
        -11    1    4    4    0    0 -0.36609524905E+02  0.50990317481E+02  0.64662804625E+02  0.90119632115E+02  0.00000000000E+00 0.  1.
         12    1    4    4    0    0  0.18699762565E+02  0.13250630552E+01  0.50137735809E+02  0.53527838217E+02  0.00000000000E+00 0. -1.
         -5    1    5    5    0  501  0.11669599873E+03 -0.60704793074E+02 -0.14492350025E+01  0.13163289218E+03  0.47000000000E+01 0.  1.
         11    1    6    6    0    0  0.39863258516E+01  0.29347248120E+02  0.38286686421E+01  0.29863195904E+02  0.00000000000E+00 0. -1.
        -12    1    6    6    0    0 -0.57154011035E+00 -0.45473141960E+02  0.51283000741E+02  0.68542537616E+02  0.00000000000E+00 0.  1.
</event>
<event>
12    1  0.1345781E-002  0.1716371E+03  0.7818608E-02  0.1176151E+00
         -2   -1    0    0    0  501 -0.00000000000E+00  0.00000000000E+00  0.10457562277E+03  0.10457562277E+03  0.00000000000E+00 0.  1.
          2   -1    0    0  502    0  0.00000000000E+00 -0.00000000000E+00 -0.30113401281E+03  0.30113401281E+03  0.00000000000E+00 0. -1.
          6    2    1    2  502    0  0.51005553045E+01  0.53428049250E+01 -0.46187905883E+02  0.17670444808E+03  0.17040122679E+03 0.  0.
         24    2    3    3    0    0  0.30053025915E+02  0.30486807756E+02  0.27432460964E+02  0.94869888859E+02  0.80094482231E+02 0.  0.
         -6    2    1    2    0  501 -0.51005553045E+01 -0.53428049250E+01 -0.15037048416E+03  0.22900518750E+03  0.17256167641E+03 0.  0.
        -24    2    5    5    0    0  0.61605916965E+01 -0.10887379367E+01 -0.17918884424E+03  0.19742198951E+03  0.82629666592E+02 0.  0.
          5    1    3    3  502    0 -0.24952470610E+02 -0.25144002831E+02 -0.73620366847E+02  0.81834559219E+02  0.47000000000E+01 0. -1.
        -13    1    4    4    0    0  0.59152380442E+01  0.46699975245E+02 -0.93393349766E+01  0.47990633532E+02  0.00000000000E+00 0.  1.
         14    1    4    4    0    0  0.24137787870E+02 -0.16213167490E+02  0.36771795941E+02  0.46879255327E+02  0.00000000000E+00 0. -1.
         -5    1    5    5    0  501 -0.11261147001E+02 -0.42540669883E+01  0.28818360078E+02  0.31583197990E+02  0.47000000000E+01 0.  1.
         11    1    6    6    0    0 -0.13678511932E+02  0.35236008779E+02 -0.11494213315E+03  0.12099740484E+03  0.00000000000E+00 0. -1.
        -12    1    6    6    0    0  0.19839103628E+02 -0.36324746716E+02 -0.64246711083E+02  0.76424584669E+02  0.00000000000E+00 0.  1.
</event>
<event>
12    1  0.1345781E-002  0.2184688E+03  0.7818608E-02  0.1135030E+00
          2   -1    0    0  502    0  0.00000000000E+00  0.00000000000E+00  0.22873675771E+04  0.22873675771E+04  0.00000000000E+00 0.  1.
         -2   -1    0    0    0  501 -0.00000000000E+00 -0.00000000000E+00 -0.24395351699E+02  0.24395351699E+02  0.00000000000E+00 0. -1.
          6    2    1    2  502    0 -0.12207707462E+03  0.52177512100E+02  0.15765858816E+04  0.15918222419E+04  0.17507056516E+03 0.  0.
         24    2    3    3    0    0 -0.12332457719E+03  0.13284263542E+01  0.14090504554E+04  0.14166726064E+04  0.79544778337E+02 0.  0.
         -6    2    1    2    0  501  0.12207707462E+03 -0.52177512100E+02  0.68638634378E+03  0.71994068689E+03  0.17193916017E+03 0.  0.
        -24    2    5    5    0    0 -0.31692786107E+01 -0.76201469496E+01  0.17695008466E+03  0.19342440045E+03  0.77675963212E+02 0.  0.
          5    1    3    3  502    0  0.12475025780E+01  0.50849085746E+02  0.16753542618E+03  0.17514963548E+03  0.47000000000E+01 0. -1.
        -11    1    4    4    0    0 -0.68663134976E+02  0.36255926388E+02  0.59563817146E+03  0.60067790836E+03  0.00000000000E+00 0.  1.
         12    1    4    4    0    0 -0.54661442218E+02 -0.34927500034E+02  0.81341228397E+03  0.81599469804E+03  0.00000000000E+00 0. -1.
         -5    1    5    5    0  501  0.12524635323E+03 -0.44557365150E+02  0.50943625911E+03  0.52651628644E+03  0.47000000000E+01 0.  1.
         11    1    6    6    0    0 -0.21944538481E+02 -0.36906269198E+02  0.10723303571E+03  0.11550999707E+03  0.00000000000E+00 0. -1.
        -12    1    6    6    0    0  0.18775259871E+02  0.29286122249E+02  0.69717048959E+02  0.77914403387E+02  0.00000000000E+00 0.  1.
</event>
<event>
12    1  0.1345781E-002  0.3526047E+03  0.7818608E-02  0.1061551E+00
         -3   -1    0    0    0  501 -0.00000000000E+00  0.00000000000E+00  0.41424547704E+02  0.41424547704E+02  0.00000000000E+00 0. -1.
          3   -1    0    0  502    0  0.00000000000E+00 -0.00000000000E+00 -0.31598281954E+04  0.31598281954E+04  0.00000000000E+00 0.  1.
          6    2    1    2  502    0  0.16793117894E+03  0.25741826497E+03 -0.11978049423E+04  0.12484271271E+04  0.17137259993E+03 0.  0.
         24    2    3    3    0    0  0.16216137158E+03  0.23729511700E+03 -0.11881349940E+04  0.12248935413E+04  0.78064976657E+02 0.  0.
         -6    2    1    2    0  501 -0.16793117894E+03 -0.25741826497E+03 -0.19205987054E+04  0.19528256159E+04  0.17425112667E+03 0.  0.
        -24    2    5    5    0    0 -0.16012738412E+01 -0.11939802443E+03 -0.60917893458E+03  0.62370593382E+03  0.60429009889E+02 0.  0.
          5    1    3    3  502    0  0.57698073652E+01  0.20123147968E+02 -0.96699482439E+01  0.23533585792E+02  0.47000000000E+01 0. -1.
        -11    1    4    4    0    0  0.46770027747E+02  0.13706626474E+03 -0.59785862029E+03  0.61515000307E+03  0.00000000000E+00 0.  1.
         12    1    4    4    0    0  0.11539134383E+03  0.10022885226E+03 -0.59027637375E+03  0.60974353827E+03  0.00000000000E+00 0. -1.
         -5    1    5    5    0  501 -0.16632990510E+03 -0.13802024054E+03 -0.13114197708E+04  0.13291196821E+04  0.47000000000E+01 0.  1.
         13    1    6    6    0    0 -0.22321136474E+02 -0.20020955155E+02 -0.19359415215E+03  0.19590244390E+03  0.00000000000E+00 0. -1.
        -14    1    6    6    0    0  0.20719862633E+02 -0.99377069277E+02 -0.41558478242E+03  0.42780348992E+03  0.00000000000E+00 0.  1.
</event>
<event>
12    1  0.1345781E-002  0.1943038E+03  0.7818608E-02  0.1154636E+00
          1   -1    0    0  502    0  0.00000000000E+00  0.00000000000E+00  0.42467331155E+03  0.42467331155E+03  0.00000000000E+00 0. -1.
         -1   -1    0    0    0  501 -0.00000000000E+00 -0.00000000000E+00 -0.10572994889E+03  0.10572994889E+03  0.00000000000E+00 0.  1.
          6    2    1    2  502    0  0.39280232344E+02  0.80646629632E+02  0.26542531357E+03  0.32907292718E+03  0.17260237193E+03 0.  0.
         24    2    3    3    0    0 -0.28743514698E+01 -0.45643478949E+01  0.52465984164E+02  0.95809801916E+02  0.79985895512E+02 0.  0.
         -6    2    1    2    0  501 -0.39280232344E+02 -0.80646629632E+02  0.53518049087E+02  0.20133033326E+03  0.17211306165E+03 0.  0.
        -24    2    5    5    0    0 -0.67871311930E+01 -0.10355456652E+03 -0.51849851946E+00  0.13407995280E+03  0.84897299760E+02 0.  0.
          5    1    3    3  502    0  0.42154583813E+02  0.85210977527E+02  0.21295932940E+03  0.23326312526E+03  0.47000000000E+01 0. -1.
        -13    1    4    4    0    0 -0.99954410341E+01 -0.41363779428E+02  0.30623430592E+02  0.52427717777E+02  0.00000000000E+00 0.  1.
         14    1    4    4    0    0  0.71210895643E+01  0.36799431533E+02  0.21842553572E+02  0.43382084139E+02  0.00000000000E+00 0. -1.
         -5    1    5    5    0  501 -0.32493101151E+02  0.22907936887E+02  0.54036547606E+02  0.67250380460E+02  0.47000000000E+01 0.  1.
         11    1    6    6    0    0 -0.33396907362E+01 -0.94452302071E+02  0.32276758982E+02  0.99870816914E+02  0.00000000000E+00 0. -1.
        -12    1    6    6    0    0 -0.34474404568E+01 -0.91022644486E+01 -0.32795257502E+02  0.34209135891E+02  0.00000000000E+00 0.  1.
</event>
<event>
12    1  0.1345781E-002  0.1783785E+03  0.7818608E-02  0.1169382E+00
          1   -1    0    0  502    0  0.00000000000E+00  0.00000000000E+00  0.41701899339E+03  0.41701899339E+03  0.00000000000E+00 0. -1.
         -1   -1    0    0    0  501 -0.00000000000E+00 -0.00000000000E+00 -0.76330588861E+02  0.76330588861E+02  0.00000000000E+00 0.  1.
          6    2    1    2  502    0 -0.50743428003E+02 -0.87501556784E+01  0.17575375796E+03  0.25087943830E+03  0.17146325675E+03 0.  0.
         24    2    3    3    0    0  0.36884282863E+02  0.16743936521E+02  0.75499791625E+02  0.11522726466E+03  0.77047350719E+02 0.  0.
         -6    2    1    2    0  501  0.50743428003E+02  0.87501556784E+01  0.16493464657E+03  0.24247014394E+03  0.17010841354E+03 0.  0.
        -24    2    5    5    0    0  0.33325154077E+02  0.49516946099E+02  0.36190357927E+02  0.10622584379E+03  0.80073054371E+02 0.  0.
          5    1    3    3  502    0 -0.87627710865E+02 -0.25494092200E+02  0.10025396633E+03  0.13565217364E+03  0.47000000000E+01 0. -1.
        -13    1    4    4    0    0 -0.17400856993E+02 -0.15013235061E+02  0.12300381036E+02  0.26066960404E+02  0.00000000000E+00 0.  1.
         14    1    4    4    0    0  0.54285139855E+02  0.31757171582E+02  0.63199410589E+02  0.89160304255E+02  0.00000000000E+00 0. -1.
         -5    1    5    5    0  501  0.17418273926E+02 -0.40766790420E+02  0.12874428864E+03  0.13624430016E+03  0.47000000000E+01 0.  1.
         13    1    6    6    0    0 -0.19137239981E+02  0.47408799225E+01  0.31413757112E+02  0.37088192628E+02  0.00000000000E+00 0. -1.
        -14    1    6    6    0    0  0.52462394058E+02  0.44776066176E+02  0.47766008149E+01  0.69137651160E+02  0.00000000000E+00 0.  1.
</event>
<event>
12    1  0.1345781E-002  0.2173067E+03  0.7818608E-02  0.1135907E+00
          2   -1    0    0  502    0  0.00000000000E+00  0.00000000000E+00  0.75471099399E+03  0.75471099399E+03  0.00000000000E+00 0. -1.
         -2   -1    0    0    0  501 -0.00000000000E+00 -0.00000000000E+00 -0.90750764914E+02  0.90750764914E+02  0.00000000000E+00 0.  1.
          6    2    1    2  502    0  0.83943178189E+02 -0.10340172870E+03  0.95695386575E+02  0.23681954590E+03  0.17084354142E+03 0.  0.
         24    2    3    3    0    0  0.11769156186E+03 -0.10336856501E+03  0.10182316638E+03  0.20219882688E+03  0.77330746887E+02 0.  0.
         -6    2    1    2    0  501 -0.83943178189E+02  0.10340172870E+03  0.56826484251E+03  0.60864221301E+03  0.17257473037E+03 0.  0.
        -24    2    5    5    0    0 -0.23023488734E+02  0.10900806580E+03  0.25538093813E+03  0.28979888597E+03  0.79693985384E+02 0.  0.
          5    1    3    3  502    0 -0.33748383674E+02 -0.33163696341E-01 -0.61277798010E+01  0.34620719024E+02  0.47000000000E+01 0. -1.
        -13    1    4    4    0    0  0.34962750912E+02 -0.50265475258E+01 -0.42345530581E+01  0.35575153844E+02  0.00000000000E+00 0.  1.
         14    1    4    4    0    0  0.82728810951E+02 -0.98342017480E+02  0.10605771943E+03  0.16662367303E+03  0.00000000000E+00 0. -1.
         -5    1    5    5    0  501 -0.60919689455E+02 -0.56063370976E+01  0.31288390438E+03  0.31884332704E+03  0.47000000000E+01 0.  1.
         13    1    6    6    0    0 -0.51645655399E+01 -0.12835460480E+02  0.25509930379E+02  0.29020308939E+02  0.00000000000E+00 0. -1.
        -14    1    6    6    0    0 -0.17858923195E+02  0.12184352628E+03  0.22987100775E+03  0.26077857703E+03  0.00000000000E+00 0.  1.
</event>
<event>
12    1  0.1345781E-002  0.2702458E+03  0.7818608E-02  0.1101139E+00
          1   -1    0    0  502    0  0.00000000000E+00  0.00000000000E+00  0.73766139029E+03  0.73766139029E+03  0.00000000000E+00 0. -1.
         -1   -1    0    0    0  501 -0.00000000000E+00 -0.00000000000E+00 -0.10202959667E+03  0.10202959667E+03  0.00000000000E+00 0.  1.
          6    2    1    2  502    0  0.16014589421E+03 -0.12949697773E+03  0.24315298148E+03  0.36193722755E+03  0.17163627126E+03 0.  0.
         24    2    3    3    0    0  0.43531787232E+01 -0.45380256568E+02  0.71394105548E+02  0.11521837047E+03  0.78101451561E+02 0.  0.
         -6    2    1    2    0  501 -0.16014589421E+03  0.12949697773E+03  0.39247881214E+03  0.47775375941E+03  0.17830552986E+03 0.  0.
        -24    2    5    5    0    0 -0.85251529374E+02  0.12198111231E+03  0.35578069733E+03  0.39388185859E+03  0.80098682335E+02 0.  0.
          5    1    3    3  502    0  0.15579271548E+03 -0.84116721167E+02  0.17175887593E+03  0.24671885708E+03  0.47000000000E+01 0. -1.
        -13    1    4    4    0    0  0.84440690834E+01  0.21200125387E+02  0.11430205509E+02  0.25522484540E+02  0.00000000000E+00 0.  1.
         14    1    4    4    0    0 -0.40908903602E+01 -0.66580381954E+02  0.59963900039E+02  0.89695885931E+02  0.00000000000E+00 0. -1.
         -5    1    5    5    0  501 -0.74894364832E+02  0.75158654274E+01  0.36698114807E+02  0.83871900819E+02  0.47000000000E+01 0.  1.
         13    1    6    6    0    0 -0.85782987908E+02  0.54875920044E+02  0.21977454052E+03  0.24222084195E+03  0.00000000000E+00 0. -1.
        -14    1    6    6    0    0  0.53145853464E+00  0.67105192263E+02  0.13600615682E+03  0.15166101664E+03  0.00000000000E+00 0.  1.
</event>
<event>
12    1  0.1345781E-002  0.1830880E+03  0.7818608E-02  0.1164847E+00
         -2   -1    0    0    0  501 -0.00000000000E+00  0.00000000000E+00  0.31312349946E+02  0.31312349946E+02  0.00000000000E+00 0.  1.
          2   -1    0    0  502    0  0.00000000000E+00 -0.00000000000E+00 -0.11124876580E+04  0.11124876580E+04  0.00000000000E+00 0. -1.
          6    2    1    2  502    0 -0.91508749804E+01  0.63054003133E+02 -0.42936295931E+03  0.46674502249E+03  0.17157744422E+03 0.  0.
         24    2    3    3    0    0 -0.15089459812E+01 -0.26841870969E+02 -0.13936617536E+03  0.16300188765E+03  0.80149370479E+02 0.  0.
         -6    2    1    2    0  501  0.91508749804E+01 -0.63054003133E+02 -0.65181234872E+03  0.67705498544E+03  0.17171071467E+03 0.  0.
        -24    2    5    5    0    0  0.41365986632E+02  0.28672174490E+00 -0.51298667227E+03  0.52102768241E+03  0.81260647634E+02 0.  0.
          5    1    3    3  502    0 -0.76419289992E+01  0.89895874101E+02 -0.28999678395E+03  0.30374313484E+03  0.47000000000E+01 0. -1.
        -11    1    4    4    0    0 -0.46847104499E+00  0.18720957614E+02 -0.26795121738E+01  0.18917544888E+02  0.00000000000E+00 0.  1.
         12    1    4    4    0    0 -0.10404749362E+01 -0.45562828582E+02 -0.13668666318E+03  0.14408434276E+03  0.00000000000E+00 0. -1.
         -5    1    5    5    0  501 -0.32215111652E+02 -0.63340724877E+02 -0.13882567645E+03  0.15602730303E+03  0.47000000000E+01 0.  1.
         13    1    6    6    0    0  0.16762392264E+02  0.11662547141E+02 -0.24960565758E+02  0.32249382059E+02  0.00000000000E+00 0. -1.
        -14    1    6    6    0    0  0.24603594369E+02 -0.11375825396E+02 -0.48802610651E+03  0.48877830035E+03  0.00000000000E+00 0.  1.
</event>
<event>
12    1  0.1345781E-002  0.1950369E+03  0.7818608E-02  0.1153995E+00
          2   -1    0    0  502    0  0.00000000000E+00  0.00000000000E+00  0.19456899269E+04  0.19456899269E+04  0.00000000000E+00 0. -1.
         -2   -1    0    0    0  501 -0.00000000000E+00 -0.00000000000E+00 -0.19611115836E+02  0.19611115836E+02  0.00000000000E+00 0.  1.
          6    2    1    2  502    0 -0.80589156376E+02  0.23365305095E+02  0.10309079583E+04  0.10497972916E+04  0.17961788679E+03 0.  0.
         24    2    3    3    0    0 -0.11017552118E+03 -0.22654178497E+02  0.83644287471E+03  0.84772823259E+03  0.79715847933E+02 0.  0.
         -6    2    1    2    0  501  0.80589156376E+02 -0.23365305095E+02  0.89517085270E+03  0.91550375112E+03  0.17255640581E+03 0.  0.
        -24    2    5    5    0    0 -0.32330356880E+01 -0.48704080527E+02  0.30780296137E+03  0.32162552859E+03  0.79484449028E+02 0.  0.
          5    1    3    3  502    0  0.29586364807E+02  0.46019483591E+02  0.19446508362E+03  0.20206905898E+03  0.47000000000E+01 0. -1.
        -13    1    4    4    0    0 -0.44702233458E+02 -0.19024328648E+02  0.13969959231E+03  0.14790602032E+03  0.00000000000E+00 0.  1.
         14    1    4    4    0    0 -0.65473287726E+02 -0.36298498483E+01  0.69674328240E+03  0.69982221227E+03  0.00000000000E+00 0. -1.
         -5    1    5    5    0  501  0.83822192064E+02  0.25338775433E+02  0.58736789133E+03  0.59387822253E+03  0.47000000000E+01 0.  1.
         13    1    6    6    0    0 -0.41160850261E+02 -0.24932407673E+02  0.17411640068E+03  0.18064429560E+03  0.00000000000E+00 0. -1.
        -14    1    6    6    0    0  0.37927814573E+02 -0.23771672855E+02  0.13368656069E+03  0.14098123300E+03  0.00000000000E+00 0.  1.
</event>
<event>
12    1  0.1345781E-002  0.1825870E+03  0.7818608E-02  0.1165323E+00
         -2   -1    0    0    0  501 -0.00000000000E+00  0.00000000000E+00  0.13666758426E+03  0.13666758426E+03  0.00000000000E+00 0.  1.
          2   -1    0    0  502    0  0.00000000000E+00 -0.00000000000E+00 -0.29921922661E+03  0.29921922661E+03  0.00000000000E+00 0. -1.
          6    2    1    2  502    0 -0.21195521962E+02  0.61618824331E+02  0.12586938171E+02  0.18251468454E+03  0.17002073226E+03 0.  0.
         24    2    3    3    0    0 -0.36072384861E+02  0.72366403585E+02 -0.43774630255E+02  0.12305421107E+03  0.81780237783E+02 0.  0.
         -6    2    1    2    0  501  0.21195521962E+02 -0.61618824331E+02 -0.17513858052E+03  0.25337212633E+03  0.17110751694E+03 0.  0.
        -24    2    5    5    0    0  0.10673544202E+01 -0.42669803142E+01 -0.17499142060E+03  0.19240911462E+03  0.79874424830E+02 0.  0.
          5    1    3    3  502    0  0.14876862899E+02 -0.10747579254E+02  0.56361568426E+02  0.59460473468E+02  0.47000000000E+01 0. -1.
        -13    1    4    4    0    0 -0.36276342415E+02  0.59911452363E+02  0.73602872093E+01  0.70423923286E+02  0.00000000000E+00 0.  1.
         14    1    4    4    0    0  0.20395755354E+00  0.12454951222E+02 -0.51134917464E+02  0.52630287789E+02  0.00000000000E+00 0. -1.
         -5    1    5    5    0  501  0.20128167542E+02 -0.57351844017E+02 -0.14715992315E+00  0.60963011710E+02  0.47000000000E+01 0.  1.
         11    1    6    6    0    0  0.34315668473E+02  0.60654113745E+01 -0.40236550485E+02  0.53229073943E+02  0.00000000000E+00 0. -1.
        -12    1    6    6    0    0 -0.33248314053E+02 -0.10332391689E+02 -0.13475487011E+03  0.13918004068E+03  0.00000000000E+00 0.  1.
</event>
<event>
12    1  0.1345781E-002  0.3529350E+03  0.7818608E-02  0.1061417E+00
          1   -1    0    0  502    0  0.00000000000E+00  0.00000000000E+00  0.10133571213E+04  0.10133571213E+04  0.00000000000E+00 0.  1.
         -1   -1    0    0    0  501 -0.00000000000E+00 -0.00000000000E+00 -0.12407115273E+03  0.12407115273E+03  0.00000000000E+00 0. -1.
          6    2    1    2  502    0  0.25676249655E+03 -0.16886579924E+03  0.38934357848E+03  0.52520415074E+03  0.17265091968E+03 0.  0.
         24    2    3    3    0    0  0.95134814350E+02 -0.13199992599E+03  0.15541786543E+03  0.23845351083E+03  0.78935103540E+02 0.  0.
         -6    2    1    2    0  501 -0.25676249655E+03  0.16886579924E+03  0.49994239010E+03  0.61222412330E+03  0.17445155760E+03 0.  0.
        -24    2    5    5    0    0 -0.16603037193E+03  0.17876950117E+03  0.32998737981E+03  0.41925470274E+03  0.85780044203E+02 0.  0.
          5    1    3    3  502    0  0.16162768220E+03 -0.36865873259E+02  0.23392571305E+03  0.28675063991E+03  0.47000000000E+01 0. -1.
        -11    1    4    4    0    0  0.10674311427E+02  0.98803719299E+01  0.58878248139E+01  0.15691690634E+02  0.00000000000E+00 0.  1.
         12    1    4    4    0    0  0.84460502923E+02 -0.14188029791E+03  0.14953004061E+03  0.22276182020E+03  0.00000000000E+00 0. -1.
         -5    1    5    5    0  501 -0.90732124614E+02 -0.99037019296E+01  0.16995501029E+03  0.19296942056E+03  0.47000000000E+01 0.  1.
         11    1    6    6    0    0 -0.27980549264E+01  0.51628123494E+02  0.64647881336E+02  0.82780678954E+02  0.00000000000E+00 0. -1.
        -12    1    6    6    0    0 -0.16323231701E+03  0.12714137768E+03  0.26533949847E+03  0.33647402379E+03  0.00000000000E+00 0.  1.
</event>
<event>
12    1  0.1345781E-002  0.1758320E+03  0.7818608E-02  0.1171899E+00
          1   -1    0    0  502    0  0.00000000000E+00  0.00000000000E+00  0.53319077694E+03  0.53319077694E+03  0.00000000000E+00 0.  1.
         -1   -1    0    0    0  501 -0.00000000000E+00 -0.00000000000E+00 -0.91006747043E+02  0.91006747043E+02  0.00000000000E+00 0. -1.
          6    2    1    2  502    0 -0.40038383244E+02  0.10149148251E+02  0.32774423969E+02  0.17846949211E+03  0.17050254956E+03 0.  0.
         24    2    3    3    0    0 -0.64635666768E+02  0.45667123735E+02 -0.17770636729E+02  0.11181031345E+03  0.76957748504E+02 0.  0.
         -6    2    1    2    0  501  0.40038383244E+02 -0.10149148251E+02  0.40940960592E+03  0.44572803187E+03  0.17132184807E+03 0.  0.
        -24    2    5    5    0    0  0.27325024437E+02 -0.25974369087E+02  0.93030482386E+02  0.12866351648E+03  0.80487918413E+02 0.  0.
          5    1    3    3  502    0  0.24597283524E+02 -0.35517975484E+02  0.50545060698E+02  0.66659178664E+02  0.47000000000E+01 0. -1.
        -11    1    4    4    0    0 -0.51304082540E+02  0.41796231690E+02  0.21961097891E+02  0.69723193339E+02  0.00000000000E+00 0.  1.
         12    1    4    4    0    0 -0.13331584228E+02  0.38708920448E+01 -0.39731734619E+02  0.42087120110E+02  0.00000000000E+00 0. -1.
         -5    1    5    5    0  501  0.12713358807E+02  0.15825220836E+02  0.31637912354E+03  0.31706451539E+03  0.47000000000E+01 0.  1.
         13    1    6    6    0    0 -0.29693694646E+01 -0.45660566769E+02  0.26290765431E+02  0.52772235689E+02  0.00000000000E+00 0. -1.
        -14    1    6    6    0    0  0.30294393902E+02  0.19686197682E+02  0.66739716955E+02  0.75891280792E+02  0.00000000000E+00 0.  1.
</event>
<event>
12    1  0.1345781E-002  0.2176915E+03  0.7818608E-02  0.1135616E+00
         -1   -1    0    0    0  501 -0.00000000000E+00  0.00000000000E+00  0.81207843462E+02  0.81207843462E+02  0.00000000000E+00 0. -1.
          1   -1    0    0  502    0  0.00000000000E+00 -0.00000000000E+00 -0.70160351074E+03  0.70160351074E+03  0.00000000000E+00 0.  1.
          6    2    1    2  502    0 -0.13466990629E+03  0.49722999805E+01 -0.47286688716E+03  0.52133531181E+03  0.17328215990E+03 0.  0.
         24    2    3    3    0    0 -0.13026908991E+03 -0.50091952471E+02 -0.38793468300E+03  0.41991042144E+03  0.79700716879E+02 0.  0.
         -6    2    1    2    0  501  0.13466990629E+03 -0.49722999805E+01 -0.14752878012E+03  0.26147604239E+03  0.16865429836E+03 0.  0.
        -24    2    5    5    0    0  0.12899580104E+03  0.49332878993E+02 -0.12276732083E+03  0.20133896731E+03  0.79949453142E+02 0.  0.
          5    1    3    3  502    0 -0.44008163825E+01  0.55064252451E+02 -0.84932204157E+02  0.10142489037E+03  0.47000000000E+01 0. -1.
        -13    1    4    4    0    0 -0.82529799405E+00 -0.28192849630E+02 -0.50602009018E+02  0.57931694293E+02  0.00000000000E+00 0.  1.
         14    1    4    4    0    0 -0.12944379191E+03 -0.21899102841E+02 -0.33733267399E+03  0.36197872715E+03  0.00000000000E+00 0. -1.
         -5    1    5    5    0  501  0.56741052503E+01 -0.54305178974E+02 -0.24761459285E+02  0.60137075084E+02  0.47000000000E+01 0.  1.
         13    1    6    6    0    0  0.10526299684E+03  0.31597438026E+02 -0.46162413823E+02  0.11920429960E+03  0.00000000000E+00 0. -1.
        -14    1    6    6    0    0  0.23732804196E+02  0.17735440968E+02 -0.76604907009E+02  0.82134667706E+02  0.00000000000E+00 0.  1.
</event>
<event>
12    1  0.1345781E-002  0.2518479E+03  0.7818608E-02  0.1112143E+00
         -1   -1    0    0    0  501 -0.00000000000E+00  0.00000000000E+00  0.72633895617E+02  0.72633895617E+02  0.00000000000E+00 0.  1.
          1   -1    0    0  502    0  0.00000000000E+00 -0.00000000000E+00 -0.87709222678E+03  0.87709222678E+03  0.00000000000E+00 0. -1.
          6    2    1    2  502    0  0.14261124225E+03  0.10767071678E+03 -0.43648767711E+03  0.50488966202E+03  0.18016972243E+03 0.  0.
         24    2    3    3    0    0  0.86845216556E+02  0.45844172017E+02 -0.11186815455E+03  0.16972955746E+03  0.81546667184E+02 0.  0.
         -6    2    1    2    0  501 -0.14261124225E+03 -0.10767071678E+03 -0.36797065405E+03  0.44483646037E+03  0.17477449632E+03 0.  0.
        -24    2    5    5    0    0 -0.10543634240E+03 -0.75384188394E+02 -0.12558926392E+03  0.19745978124E+03  0.80113069083E+02 0.  0.
          5    1    3    3  502    0  0.55766025698E+02  0.61826544762E+02 -0.32461952256E+03  0.33516010456E+03  0.47000000000E+01 0. -1.
        -11    1    4    4    0    0 -0.43523024292E+01  0.58160166287E+01  0.99881658268E+01  0.12350386328E+02  0.00000000000E+00 0.  1.
         12    1    4    4    0    0  0.91197518985E+02  0.40028155389E+02 -0.12185632037E+03  0.15737917114E+03  0.00000000000E+00 0. -1.
         -5    1    5    5    0  501 -0.37174899853E+02 -0.32286528385E+02 -0.24238139014E+03  0.24737667913E+03  0.47000000000E+01 0.  1.
         13    1    6    6    0    0 -0.91845325285E+02 -0.21985510738E+02 -0.60399934360E+02  0.11210298181E+03  0.00000000000E+00 0. -1.
        -14    1    6    6    0    0 -0.13591017116E+02 -0.53398677656E+02 -0.65189329559E+02  0.85356799436E+02  0.00000000000E+00 0.  1.
</event>
<event>
12    1  0.1345781E-002  0.1881965E+03  0.7818608E-02  0.1160098E+00
         -2   -1    0    0    0  501 -0.00000000000E+00  0.00000000000E+00  0.49223352057E+02  0.49223352057E+02  0.00000000000E+00 0.  1.
          2   -1    0    0  502    0  0.00000000000E+00 -0.00000000000E+00 -0.93969607528E+03  0.93969607528E+03  0.00000000000E+00 0. -1.
          6    2    1    2  502    0  0.76229980714E+02 -0.28707618054E+02 -0.68567607438E+03  0.71119669431E+03  0.17033473437E+03 0.  0.
         24    2    3    3    0    0  0.28741561145E+02  0.45326592783E+02 -0.28025847549E+03  0.29632113001E+03  0.79880045414E+02 0.  0.
         -6    2    1    2    0  501 -0.76229980714E+02  0.28707618054E+02 -0.20479664884E+03  0.27772273302E+03  0.16897666042E+03 0.  0.
        -24    2    5    5    0    0  0.21154579449E+02  0.10822364382E+02 -0.12605603807E+03  0.15112965011E+03  0.79908739227E+02 0.  0.
          5    1    3    3  502    0  0.47488419569E+02 -0.74034210837E+02 -0.40541759889E+03  0.41487556431E+03  0.47000000000E+01 0. -1.
        -11    1    4    4    0    0 -0.95752793304E+01 -0.51389704707E+01 -0.21399406917E+01  0.11075844795E+02  0.00000000000E+00 0.  1.
         12    1    4    4    0    0  0.38316840475E+02  0.50465563254E+02 -0.27811853480E+03  0.28524528521E+03  0.00000000000E+00 0. -1.
         -5    1    5    5    0  501 -0.97384560163E+02  0.17885253672E+02 -0.78740610768E+02  0.12659308291E+03  0.47000000000E+01 0.  1.
         11    1    6    6    0    0  0.64418652434E+01 -0.34522591288E+02 -0.44833581094E+02  0.56950477880E+02  0.00000000000E+00 0. -1.
        -12    1    6    6    0    0  0.14712714206E+02  0.45344955670E+02 -0.81222456979E+02  0.94179172229E+02  0.00000000000E+00 0.  1.
</event>
<event>
12    1  0.1345781E-002  0.2536594E+03  0.7818608E-02  0.1111014E+00
          3   -1    0    0  502    0  0.00000000000E+00  0.00000000000E+00  0.30037386077E+03  0.30037386077E+03  0.00000000000E+00 0.  1.
         -3   -1    0    0    0  501 -0.00000000000E+00 -0.00000000000E+00 -0.21809227922E+03  0.21809227922E+03  0.00000000000E+00 0. -1.
          6    2    1    2  502    0 -0.11974406250E+02  0.18601765601E+03  0.66630075393E+01  0.25439271477E+03  0.17298931443E+03 0.  0.
         24    2    3    3    0    0  0.49335612031E+02  0.84439368867E+02  0.34979445893E+02  0.13232315493E+03  0.81986865199E+02 0.  0.
         -6    2    1    2    0  501  0.11974406250E+02 -0.18601765601E+03  0.75618574016E+02  0.26407342522E+03  0.17108667516E+03 0.  0.
        -24    2    5    5    0    0 -0.33807415453E+02 -0.18934855717E+03  0.63109959103E+02  0.21626520889E+03  0.76104902579E+02 0.  0.
          5    1    3    3  502    0 -0.61310018282E+02  0.10157828714E+03 -0.28316438353E+02  0.12206955985E+03  0.47000000000E+01 0. -1.
        -11    1    4    4    0    0  0.47313342519E+02  0.73019531481E+02  0.59357701013E+02  0.10532682957E+03  0.00000000000E+00 0.  1.
         12    1    4    4    0    0  0.20222695120E+01  0.11419837386E+02 -0.24378255120E+02  0.26996325353E+02  0.00000000000E+00 0. -1.
         -5    1    5    5    0  501  0.45781821703E+02  0.33309011644E+01  0.12508614912E+02  0.47808216323E+02  0.47000000000E+01 0.  1.
         13    1    6    6    0    0  0.40143081404E+01 -0.72328768581E+02 -0.10104231769E+02  0.73141376347E+02  0.00000000000E+00 0. -1.
        -14    1    6    6    0    0 -0.37821723593E+02 -0.11701978859E+03  0.73214190872E+02  0.14312383255E+03  0.00000000000E+00 0.  1.
</event>
<event>
12    1  0.1345781E-002  0.2814909E+03  0.7818608E-02  0.1094877E+00
         -2   -1    0    0    0  501 -0.00000000000E+00  0.00000000000E+00  0.58995098578E+02  0.58995098578E+02  0.00000000000E+00 0.  1.
          2   -1    0    0  502    0  0.00000000000E+00 -0.00000000000E+00 -0.13900531178E+04  0.13900531178E+04  0.00000000000E+00 0. -1.
          6    2    1    2  502    0 -0.17335090853E+03  0.14407059518E+03 -0.52823054183E+03  0.59768333703E+03  0.16550224214E+03 0.  0.
         24    2    3    3    0    0 -0.13460330185E+03  0.11337937271E+03 -0.25187649344E+03  0.31690410307E+03  0.77546834684E+02 0.  0.
         -6    2    1    2    0  501  0.17335090853E+03 -0.14407059518E+03 -0.80282747743E+03  0.85136487939E+03  0.17170709205E+03 0.  0.
        -24    2    5    5    0    0  0.11400335969E+03 -0.12321988882E+03 -0.73805211814E+03  0.76095016444E+03  0.78385691590E+02 0.  0.
          5    1    3    3  502    0 -0.38747606685E+02  0.30691222468E+02 -0.27635404839E+03  0.28077923396E+03  0.47000000000E+01 0. -1.
        -13    1    4    4    0    0 -0.25240773036E+02  0.53050533570E+02 -0.40402818248E+02  0.71301076135E+02  0.00000000000E+00 0.  1.
         14    1    4    4    0    0 -0.10936252881E+03  0.60328839138E+02 -0.21147367519E+03  0.24560302693E+03  0.00000000000E+00 0. -1.
         -5    1    5    5    0  501  0.59347548838E+02 -0.20850706360E+02 -0.64775359286E+02  0.90414714950E+02  0.47000000000E+01 0.  1.
         13    1    6    6    0    0  0.47713613591E+01 -0.38683884056E+02 -0.27463063299E+03  0.27738275604E+03  0.00000000000E+00 0. -1.
        -14    1    6    6    0    0  0.10923199834E+03 -0.84536004760E+02 -0.46342148516E+03  0.48356740840E+03  0.00000000000E+00 0.  1.
</event>
<event>
12    1  0.1345781E-002  0.1807797E+03  0.7818608E-02  0.1167051E+00
         -1   -1    0    0    0  501 -0.00000000000E+00  0.00000000000E+00  0.61387613234E+02  0.61387613234E+02  0.00000000000E+00 0.  1.
          1   -1    0    0  502    0  0.00000000000E+00 -0.00000000000E+00 -0.78118868656E+03  0.78118868656E+03  0.00000000000E+00 0. -1.
          6    2    1    2  502    0  0.40072924783E+01  0.50148646570E+02 -0.12400624876E+03  0.22035082042E+03  0.17505995883E+03 0.  0.
         24    2    3    3    0    0  0.18546353559E+02  0.38856674865E+02 -0.15748171023E+03  0.18185940004E+03  0.80115815625E+02 0.  0.
         -6    2    1    2    0  501 -0.40072924783E+01 -0.50148646570E+02 -0.59579482457E+03  0.62222547937E+03  0.17222696958E+03 0.  0.
        -24    2    5    5    0    0  0.61454310228E+02 -0.91726051959E+01 -0.30852640748E+03  0.32472003261E+03  0.79961156414E+02 0.  0.
          5    1    3    3  502    0 -0.14539061081E+02  0.11291971705E+02  0.33475461475E+02  0.38491420382E+02  0.47000000000E+01 0. -1.
        -11    1    4    4    0    0  0.39521783980E+02  0.22434744335E+02 -0.37393701719E+02  0.58852171503E+02  0.00000000000E+00 0.  1.
         12    1    4    4    0    0 -0.20975430421E+02  0.16421930531E+02 -0.12008800851E+03  0.12300722854E+03  0.00000000000E+00 0. -1.
         -5    1    5    5    0  501 -0.65461602706E+02 -0.40976041374E+02 -0.28726841709E+03  0.29750544676E+03  0.47000000000E+01 0.  1.
         13    1    6    6    0    0  0.31438720172E+02  0.15394425410E+02 -0.26117430356E+03  0.26350976889E+03  0.00000000000E+00 0. -1.
        -14    1    6    6    0    0  0.30015590056E+02 -0.24567030606E+02 -0.47352103914E+02  0.61210263716E+02  0.00000000000E+00 0.  1.
</event>
<event>
12    1  0.1345781E-002  0.2999599E+03  0.7818608E-02  0.1085261E+00
         -3   -1    0    0    0  501 -0.00000000000E+00  0.00000000000E+00  0.60942541982E+03  0.60942541982E+03  0.00000000000E+00 0.  1.
          3   -1    0    0  502    0  0.00000000000E+00 -0.00000000000E+00 -0.15005565881E+03  0.15005565881E+03  0.00000000000E+00 0. -1.
          6    2    1    2  502    0  0.16371111161E+02  0.24388900621E+03  0.27835832143E+03  0.40971121615E+03  0.17501447053E+03 0.  0.
         24    2    3    3    0    0 -0.49531519579E+02  0.74485319565E+02  0.10605549507E+03  0.15920948011E+03  0.78092613344E+02 0.  0.
         -6    2    1    2    0  501 -0.16371111161E+02 -0.24388900621E+03  0.18101143958E+03  0.34976986247E+03  0.17269613431E+03 0.  0.
        -24    2    5    5    0    0  0.45808794028E+02 -0.91175614407E+02  0.11210968850E+03  0.17100392068E+03  0.79134823932E+02 0.  0.
          5    1    3    3  502    0  0.65902630740E+02  0.16940368664E+03  0.17230282636E+03  0.25050173604E+03  0.47000000000E+01 0. -1.
        -13    1    4    4    0    0 -0.12195725667E+02 -0.94863467658E+01  0.48201220017E+02  0.50617033800E+02  0.00000000000E+00 0.  1.
         14    1    4    4    0    0 -0.37335793911E+02  0.83971666330E+02  0.57854275058E+02  0.10859244631E+03  0.00000000000E+00 0. -1.
         -5    1    5    5    0  501 -0.62179905189E+02 -0.15271339180E+03  0.68901751077E+02  0.17876594180E+03  0.47000000000E+01 0.  1.
         13    1    6    6    0    0  0.13344754397E+02 -0.48821696044E+02  0.44052196163E+01  0.50804000182E+02  0.00000000000E+00 0. -1.
        -14    1    6    6    0    0  0.32464039631E+02 -0.42353918363E+02  0.10770446888E+03  0.12019992050E+03  0.00000000000E+00 0.  1.
</event>
<event>
12    1  0.1345781E-002  0.1810176E+03  0.7818608E-02  0.1166822E+00
          2   -1    0    0  502    0  0.00000000000E+00  0.00000000000E+00  0.29664076701E+04  0.29664076701E+04  0.00000000000E+00 0. -1.
         -2   -1    0    0    0  501 -0.00000000000E+00 -0.00000000000E+00 -0.11159403725E+02  0.11159403725E+02  0.00000000000E+00 0.  1.
          6    2    1    2  502    0 -0.11757023759E+02 -0.55033406027E+02  0.16293198597E+04  0.16393680982E+04  0.17227203158E+03 0.  0.
         24    2    3    3    0    0 -0.28412158675E+02 -0.34891279230E+01  0.14388874539E+04  0.14413256854E+04  0.78760405186E+02 0.  0.
         -6    2    1    2    0  501  0.11757023759E+02  0.55033406027E+02  0.13259284067E+04  0.13381989756E+04  0.17182390781E+03 0.  0.
        -24    2    5    5    0    0 -0.20916533562E+02  0.64042275909E+02  0.12649537736E+04  0.12682796152E+04  0.62339541616E+02 0.  0.
          5    1    3    3  502    0  0.16655134916E+02 -0.51544278104E+02  0.19043240575E+03  0.19804241285E+03  0.47000000000E+01 0. -1.
        -13    1    4    4    0    0 -0.23136862761E+02 -0.58742199803E+01  0.11624889528E+03  0.11867445611E+03  0.00000000000E+00 0.  1.
         14    1    4    4    0    0 -0.52752959139E+01  0.23850920573E+01  0.13226385586E+04  0.13226512292E+04  0.00000000000E+00 0. -1.
         -5    1    5    5    0  501  0.32673557321E+02 -0.90088698812E+01  0.60974633110E+02  0.69919360462E+02  0.47000000000E+01 0.  1.
         11    1    6    6    0    0 -0.24520230445E+02 -0.28522388485E+01  0.36904186522E+03  0.36986656412E+03  0.00000000000E+00 0. -1.
        -12    1    6    6    0    0  0.36036968827E+01  0.66894514757E+02  0.89591190839E+03  0.89841305107E+03  0.00000000000E+00 0.  1.
</event>
<event>
12    1  0.1345781E-002  0.1772449E+03  0.7818608E-02  0.1170496E+00
          2   -1    0    0  502    0  0.00000000000E+00  0.00000000000E+00  0.61136186304E+03  0.61136186304E+03  0.00000000000E+00 0. -1.
         -2   -1    0    0    0  501 -0.00000000000E+00 -0.00000000000E+00 -0.59426380111E+02  0.59426380111E+02  0.00000000000E+00 0.  1.
          6    2    1    2  502    0 -0.13519150559E+02  0.55405234908E+02  0.40434240612E+03  0.44307362764E+03  0.17195624628E+03 0.  0.
         24    2    3    3    0    0 -0.24922049755E+02  0.66710156152E+02  0.13141970764E+03  0.16963859568E+03  0.80216956378E+02 0.  0.
         -6    2    1    2    0  501  0.13519150559E+02 -0.55405234908E+02  0.14759307680E+03  0.22771461551E+03  0.16376117461E+03 0.  0.
        -24    2    5    5    0    0  0.63817126092E+02 -0.11865874510E+02  0.11229571029E+03  0.15225895748E+03  0.79743582944E+02 0.  0.
          5    1    3    3  502    0  0.11402899196E+02 -0.11304921244E+02  0.27292269849E+03  0.27343503196E+03  0.47000000000E+01 0. -1.
        -13    1    4    4    0    0 -0.11616302554E+02 -0.79485742601E+01 -0.38228214858E+01  0.14585344765E+02  0.00000000000E+00 0.  1.
         14    1    4    4    0    0 -0.13305747200E+02  0.74658730412E+02  0.13524252912E+03  0.15505325091E+03  0.00000000000E+00 0. -1.
         -5    1    5    5    0  501 -0.50297975533E+02 -0.43539360398E+02  0.35297366511E+02  0.75455658033E+02  0.47000000000E+01 0.  1.
         11    1    6    6    0    0  0.59867779265E+02 -0.39779595343E+02  0.95202876543E+02  0.11929021293E+03  0.00000000000E+00 0. -1.
        -12    1    6    6    0    0  0.39493468270E+01  0.27913720832E+02  0.17092833750E+02  0.32968744542E+02  0.00000000000E+00 0.  1.
</event>
<event>
12    1  0.1345781E-002  0.1880592E+03  0.7818608E-02  0.1160224E+00
         -2   -1    0    0    0  501 -0.00000000000E+00  0.00000000000E+00  0.11831801619E+03  0.11831801619E+03  0.00000000000E+00 0.  1.
          2   -1    0    0  502    0  0.00000000000E+00 -0.00000000000E+00 -0.29971905562E+03  0.29971905562E+03  0.00000000000E+00 0. -1.
          6    2    1    2  502    0 -0.64794323755E-01 -0.65681105513E+02 -0.82927510109E+02  0.20944575204E+03  0.18076653257E+03 0.  0.
         24    2    3    3    0    0 -0.20774207307E+02 -0.99817911982E+02 -0.18281159690E+02  0.13331795183E+03  0.83930282020E+02 0.  0.
         -6    2    1    2    0  501  0.64794323755E-01  0.65681105513E+02 -0.98473529312E+02  0.20859131977E+03  0.17175357605E+03 0.  0.
        -24    2    5    5    0    0 -0.48933768915E+02  0.76647434113E+02 -0.10141260447E+03  0.15807550318E+03  0.80212252588E+02 0.  0.
          5    1    3    3  502    0  0.20709412984E+02  0.34136806470E+02 -0.64646350420E+02  0.76127800209E+02  0.47000000000E+01 0. -1.
        -13    1    4    4    0    0 -0.68022936581E+01 -0.80922825503E+02 -0.48843614352E+02  0.94765360493E+02  0.00000000000E+00 0.  1.
         14    1    4    4    0    0 -0.13971913649E+02 -0.18895086479E+02  0.30562454663E+02  0.38552591341E+02  0.00000000000E+00 0. -1.
         -5    1    5    5    0  501  0.48998563239E+02 -0.10966328600E+02  0.29390751565E+01  0.50515816584E+02  0.47000000000E+01 0.  1.
         13    1    6    6    0    0 -0.10964007801E+02  0.29567836451E+02 -0.91504863968E+02  0.96786396509E+02  0.00000000000E+00 0. -1.
        -14    1    6    6    0    0 -0.37969761114E+02  0.47079597662E+02 -0.99077405004E+01  0.61289106674E+02  0.00000000000E+00 0.  1.
</event>
<event>
12    1  0.1345781E-002  0.1750136E+03  0.7818608E-02  0.1172718E+00
         -2   -1    0    0    0  501 -0.00000000000E+00  0.00000000000E+00  0.97268377323E+02  0.97268377323E+02  0.00000000000E+00 0.  1.
          2   -1    0    0  502    0  0.00000000000E+00 -0.00000000000E+00 -0.34849440635E+03  0.34849440635E+03  0.00000000000E+00 0. -1.
          6    2    1    2  502    0 -0.14623227594E+02  0.50036839843E+01 -0.19601605118E+03  0.26406673730E+03  0.17626705248E+03 0.  0.
         24    2    3    3    0    0 -0.50547213671E+02 -0.24172264084E+01 -0.38936419756E+02  0.10269231772E+03  0.80428872564E+02 0.  0.
         -6    2    1    2    0  501  0.14623227594E+02 -0.50036839843E+01 -0.55209977848E+02  0.18169604637E+03  0.17241356088E+03 0.  0.
        -24    2    5    5    0    0 -0.21688054708E+01 -0.68079726155E+02 -0.40281998569E+02  0.11457306942E+03  0.82854064451E+02 0.  0.
          5    1    3    3  502    0  0.35923986077E+02  0.74209103926E+01 -0.15707963143E+03  0.16137441958E+03  0.47000000000E+01 0. -1.
        -11    1    4    4    0    0  0.95661449772E+01 -0.14712948051E+02  0.13372274578E+02  0.22063537737E+02  0.00000000000E+00 0.  1.
         12    1    4    4    0    0 -0.60113358648E+02  0.12295721642E+02 -0.52308694335E+02  0.80628779984E+02  0.00000000000E+00 0. -1.
         -5    1    5    5    0  501  0.16792033064E+02  0.63076042171E+02 -0.14927979279E+02  0.67122976958E+02  0.47000000000E+01 0.  1.
         13    1    6    6    0    0 -0.27260277889E+01 -0.58027940764E+02 -0.65422647035E+02  0.87491690359E+02  0.00000000000E+00 0. -1.
        -14    1    6    6    0    0  0.55722231813E+00 -0.10051785390E+02  0.25140648466E+02  0.27081379056E+02  0.00000000000E+00 0.  1.
</event>
<event>
12    1  0.1345781E-002  0.2350955E+03  0.7818608E-02  0.1123104E+00
         -2   -1    0    0    0  501 -0.00000000000E+00  0.00000000000E+00  0.94929669141E+02  0.94929669141E+02  0.00000000000E+00 0. -1.
          2   -1    0    0  502    0  0.00000000000E+00 -0.00000000000E+00 -0.10405504623E+04  0.10405504623E+04  0.00000000000E+00 0.  1.
          6    2    1    2  502    0 -0.16248442114E+03 -0.40027676971E+01 -0.97469394771E+02  0.25569048621E+03  0.17163954254E+03 0.  0.
         24    2    3    3    0    0 -0.12486509270E+03 -0.86558701034E+01 -0.13616199601E+03  0.20132070946E+03  0.79521842517E+02 0.  0.
         -6    2    1    2    0  501  0.16248442114E+03  0.40027676971E+01 -0.84815139838E+03  0.87978964522E+03  0.16808276533E+03 0.  0.
        -24    2    5    5    0    0  0.22035533735E+02 -0.22302570215E+01 -0.43185347775E+03  0.44036867475E+03  0.83286281347E+02 0.  0.
          5    1    3    3  502    0 -0.37619328436E+02  0.46531024063E+01  0.38692601237E+02  0.54369776756E+02  0.47000000000E+01 0. -1.
        -13    1    4    4    0    0 -0.68319184870E+02  0.12637961621E+02 -0.23262288391E+02  0.73269114614E+02  0.00000000000E+00 0.  1.
         14    1    4    4    0    0 -0.56545907832E+02 -0.21293831724E+02 -0.11289970762E+03  0.12805159484E+03  0.00000000000E+00 0. -1.
         -5    1    5    5    0  501  0.14044888740E+03  0.62330247186E+01 -0.41629792063E+03  0.43942097047E+03  0.47000000000E+01 0.  1.
         11    1    6    6    0    0  0.19234512389E+02  0.23349731816E+01 -0.17893821596E+02  0.26374370474E+02  0.00000000000E+00 0. -1.
        -12    1    6    6    0    0  0.28010213460E+01 -0.45652302031E+01 -0.41395965615E+03  0.41399430427E+03  0.00000000000E+00 0.  1.
</event>
<event>
12    1  0.1345781E-002  0.2842915E+03  0.7818608E-02  0.1093368E+00
          1   -1    0    0  502    0  0.00000000000E+00  0.00000000000E+00  0.70622485847E+03  0.70622485847E+03  0.00000000000E+00 0. -1.
         -1   -1    0    0    0  501 -0.00000000000E+00 -0.00000000000E+00 -0.11601666319E+03  0.11601666319E+03  0.00000000000E+00 0.  1.
          6    2    1    2  502    0  0.13383346957E+03  0.18120177634E+03  0.34359404546E+03  0.44633123560E+03  0.17438240299E+03 0.  0.
         24    2    3    3    0    0  0.60654707592E+02  0.38105835732E+02  0.21611665531E+03  0.24113826686E+03  0.79436809923E+02 0.  0.
         -6    2    1    2    0  501 -0.13383346957E+03 -0.18120177634E+03  0.24661414982E+03  0.37591028606E+03  0.17246600522E+03 0.  0.
        -24    2    5    5    0    0 -0.53177357930E+02 -0.17256167151E+03  0.14571745013E+03  0.24636379339E+03  0.82802062488E+02 0.  0.
          5    1    3    3  502    0  0.73178761978E+02  0.14309594060E+03  0.12747739015E+03  0.20519296874E+03  0.47000000000E+01 0. -1.
        -13    1    4    4    0    0  0.36175345576E+02 -0.70297167646E+01  0.28399379035E+02  0.46525232669E+02  0.00000000000E+00 0.  1.
         14    1    4    4    0    0  0.24479362016E+02  0.45135552497E+02  0.18771727628E+03  0.19461303419E+03  0.00000000000E+00 0. -1.
         -5    1    5    5    0  501 -0.80656111640E+02 -0.86401048304E+01  0.10089669969E+03  0.12954649267E+03  0.47000000000E+01 0.  1.
         13    1    6    6    0    0 -0.15417936738E+02  0.56705550766E+01  0.13320508705E+02  0.21149560759E+02  0.00000000000E+00 0. -1.
        -14    1    6    6    0    0 -0.37759421192E+02 -0.17823222658E+03  0.13239694142E+03  0.22521423263E+03  0.00000000000E+00 0.  1.
</event>
<event>
12    1  0.1345781E-002  0.2575964E+03  0.7818608E-02  0.1108596E+00
          2   -1    0    0  502    0  0.00000000000E+00  0.00000000000E+00  0.13763491884E+04  0.13763491884E+04  0.00000000000E+00 0. -1.
         -2   -1    0    0    0  501 -0.00000000000E+00 -0.00000000000E+00 -0.81734268150E+02  0.81734268150E+02  0.00000000000E+00 0.  1.
          6    2    1    2  502    0 -0.65376690483E+02 -0.18048016256E+03  0.11143619810E+04  0.11437717199E+04  0.17194162355E+03 0.  0.
         24    2    3    3    0    0 -0.73981351147E+02 -0.14209713811E+03  0.55600840364E+03  0.58401453679E+03  0.79137837209E+02 0.  0.
         -6    2    1    2    0  501  0.65376690483E+02  0.18048016256E+03  0.18025293931E+03  0.31431173666E+03  0.17162035118E+03 0.  0.
        -24    2    5    5    0    0  0.36735619003E+02  0.12641302608E+03  0.60207732804E+02  0.17949145693E+03  0.10612470568E+03 0.  0.
          5    1    3    3  502    0  0.86046606640E+01 -0.38383024452E+02  0.55835357734E+03  0.55975718314E+03  0.47000000000E+01 0. -1.
        -11    1    4    4    0    0 -0.54874606796E+02 -0.13005438858E+03  0.53450419889E+03  0.55282918256E+03  0.00000000000E+00 0.  1.
         12    1    4    4    0    0 -0.19106744351E+02 -0.12042749533E+02  0.21504204749E+02  0.31185354221E+02  0.00000000000E+00 0. -1.
         -5    1    5    5    0  501  0.28641071479E+02  0.54067136483E+02  0.12004520650E+03  0.13482027973E+03  0.47000000000E+01 0.  1.
         11    1    6    6    0    0 -0.34268844277E+01  0.12295921703E+03  0.64606554709E+02  0.13894142471E+03  0.00000000000E+00 0. -1.
        -12    1    6    6    0    0  0.40162503431E+02  0.34538090506E+01 -0.43988219050E+01  0.40550032219E+02  0.00000000000E+00 0.  1.
</event>
<event>
12    1  0.1345781E-002  0.1897736E+03  0.7818608E-02  0.1158666E+00
         -2   -1    0    0    0  501 -0.00000000000E+00  0.00000000000E+00  0.30467630933E+03  0.30467630933E+03  0.00000000000E+00 0. -1.
          2   -1    0    0  502    0  0.00000000000E+00 -0.00000000000E+00 -0.12036697767E+03  0.12036697767E+03  0.00000000000E+00 0.  1.
          6    2    1    2  502    0  0.69355029163E+02 -0.37812664788E+02  0.12060782432E+03  0.22479531403E+03  0.17247251444E+03 0.  0.
         24    2    3    3    0    0 -0.23005567639E+01 -0.32834663800E+02  0.38382368337E+01  0.87621956380E+02  0.81113916621E+02 0.  0.
         -6    2    1    2    0  501 -0.69355029163E+02  0.37812664788E+02  0.63701507341E+02  0.20024797297E+03  0.17263096754E+03 0.  0.
        -24    2    5    5    0    0 -0.78209810671E+02 -0.19627830799E+02 -0.13141604308E+01  0.11291559212E+03  0.79032763458E+02 0.  0.
          5    1    3    3  502    0  0.71655585927E+02 -0.49780009881E+01  0.11676958748E+03  0.13717335765E+03  0.47000000000E+01 0. -1.
        -13    1    4    4    0    0  0.12924592723E+02  0.21573811251E+02 -0.13473221469E+02  0.28530722489E+02  0.00000000000E+00 0.  1.
         14    1    4    4    0    0 -0.15225149487E+02 -0.54408475051E+02  0.17311458303E+02  0.59091233892E+02  0.00000000000E+00 0. -1.
         -5    1    5    5    0  501  0.88547815079E+01  0.57440495587E+02  0.65015667772E+02  0.87332380849E+02  0.47000000000E+01 0.  1.
         13    1    6    6    0    0 -0.15553562871E+02  0.12027537862E+02  0.30144823700E+02  0.35990073366E+02  0.00000000000E+00 0. -1.
        -14    1    6    6    0    0 -0.62656247800E+02 -0.31655368661E+02 -0.31458984131E+02  0.76925518757E+02  0.00000000000E+00 0.  1.
</event>
<event>
12    1  0.1345781E-002  0.1962560E+03  0.7818608E-02  0.1152937E+00
         -3   -1    0    0    0  501 -0.00000000000E+00  0.00000000000E+00  0.16662727329E+03  0.16662727329E+03  0.00000000000E+00 0. -1.
          3   -1    0    0  502    0  0.00000000000E+00 -0.00000000000E+00 -0.26278069685E+03  0.26278069685E+03  0.00000000000E+00 0.  1.
          6    2    1    2  502    0 -0.91450836164E+02 -0.19952197576E+02 -0.12246765567E+03  0.23096324071E+03  0.17200100654E+03 0.  0.
         24    2    3    3    0    0 -0.18970891150E+02  0.87035691037E+01 -0.12730391440E+03  0.15273297296E+03  0.81764464044E+02 0.  0.
         -6    2    1    2    0  501  0.91450836164E+02  0.19952197576E+02  0.26314232107E+02  0.19844472943E+03  0.17299285016E+03 0.  0.
        -24    2    5    5    0    0  0.96632837194E+02 -0.42235187643E+02  0.30673286401E+02  0.13571343446E+03  0.79721825709E+02 0.  0.
          5    1    3    3  502    0 -0.72479945015E+02 -0.28655766679E+02  0.48362587342E+01  0.78230267748E+02  0.47000000000E+01 0. -1.
        -13    1    4    4    0    0  0.21895390977E+02  0.20595145679E+02 -0.17070382580E+02  0.34568282182E+02  0.00000000000E+00 0.  1.
         14    1    4    4    0    0 -0.40866282127E+02 -0.11891576575E+02 -0.11023353182E+03  0.11816469078E+03  0.00000000000E+00 0. -1.
         -5    1    5    5    0  501 -0.51820010299E+01  0.62187385218E+02 -0.43590542934E+01  0.62731294975E+02  0.47000000000E+01 0.  1.
         11    1    6    6    0    0  0.17997569495E+02 -0.49622532230E+02  0.69184669659E+01  0.53236955189E+02  0.00000000000E+00 0. -1.
        -12    1    6    6    0    0  0.78635267699E+02  0.73873445876E+01  0.23754819435E+02  0.82476479269E+02  0.00000000000E+00 0.  1.
</event>
<event>
12    1  0.1345781E-002  0.2410105E+03  0.7818608E-02  0.1119121E+00
          1   -1    0    0  502    0  0.00000000000E+00  0.00000000000E+00  0.97229560095E+03  0.97229560095E+03  0.00000000000E+00 0. -1.
         -1   -1    0    0    0  501 -0.00000000000E+00 -0.00000000000E+00 -0.59742872470E+02  0.59742872470E+02  0.00000000000E+00 0.  1.
          6    2    1    2  502    0  0.10999480377E+03  0.12741028468E+03  0.45971325364E+03  0.51927349491E+03  0.17313708280E+03 0.  0.
         24    2    3    3    0    0  0.13691915841E+03  0.12795409126E+03  0.33787340653E+03  0.39440454383E+03  0.79230044465E+02 0.  0.
         -6    2    1    2    0  501 -0.10999480377E+03 -0.12741028468E+03  0.45283947483E+03  0.51276497851E+03  0.17184904922E+03 0.  0.
        -24    2    5    5    0    0 -0.18185205965E+02 -0.89055935091E+02  0.14463689721E+03  0.18886533782E+03  0.80551986353E+02 0.  0.
          5    1    3    3  502    0 -0.26924354640E+02 -0.54380658069E+00  0.12183984712E+03  0.12486895108E+03  0.47000000000E+01 0. -1.
        -11    1    4    4    0    0  0.17227066447E+02 -0.95752619804E+01  0.48907769759E+02  0.52729758232E+02  0.00000000000E+00 0.  1.
         12    1    4    4    0    0  0.11969209196E+03  0.13752935324E+03  0.28896563677E+03  0.34167478560E+03  0.00000000000E+00 0. -1.
         -5    1    5    5    0  501 -0.91809597805E+02 -0.38354349587E+02  0.30820257763E+03  0.32389964069E+03  0.47000000000E+01 0.  1.
         11    1    6    6    0    0  0.16870726056E+02 -0.61133722395E+02  0.12452148756E+03  0.13974102575E+03  0.00000000000E+00 0. -1.
        -12    1    6    6    0    0 -0.35055932021E+02 -0.27922212696E+02  0.20115409645E+02  0.49124312075E+02  0.00000000000E+00 0.  1.
</event>
<event>
12    1  0.1345781E-002  0.2264644E+03  0.7818608E-02  0.1129153E+00
          2   -1    0    0  502    0  0.00000000000E+00  0.00000000000E+00  0.79506524216E+03  0.79506524216E+03  0.00000000000E+00 0. -1.
         -2   -1    0    0    0  501 -0.00000000000E+00 -0.00000000000E+00 -0.71812954856E+02  0.71812954856E+02  0.00000000000E+00 0.  1.
          6    2    1    2  502    0 -0.14625288068E+03 -0.17879292808E+02  0.49989061071E+03  0.54879598665E+03  0.17197917915E+03 0.  0.
         24    2    3    3    0    0 -0.13854424223E+03 -0.66981814837E+02  0.34827729713E+03  0.38917403442E+03  0.80487780426E+02 0.  0.
         -6    2    1    2    0  501  0.14625288068E+03  0.17879292808E+02  0.22336167659E+03  0.31808221037E+03  0.17197755600E+03 0.  0.
        -24    2    5    5    0    0  0.12671744968E+02  0.31812663515E+02  0.12077577984E+03  0.14901413281E+03  0.80285765246E+02 0.  0.
          5    1    3    3  502    0 -0.77086384497E+01  0.49102522029E+02  0.15161331359E+03  0.15962195223E+03  0.47000000000E+01 0. -1.
        -11    1    4    4    0    0  0.10732856998E+01 -0.13370094868E+02  0.42918212186E+01  0.14083007788E+02  0.00000000000E+00 0.  1.
         12    1    4    4    0    0 -0.13961752793E+03 -0.53611719969E+02  0.34398547591E+03  0.37509102663E+03  0.00000000000E+00 0. -1.
         -5    1    5    5    0  501  0.13358113571E+03 -0.13933370707E+02  0.10258589675E+03  0.16906807756E+03  0.47000000000E+01 0.  1.
         13    1    6    6    0    0  0.11459332621E+02  0.49711539351E+02  0.12073894743E+03  0.13107420370E+03  0.00000000000E+00 0. -1.
        -14    1    6    6    0    0  0.12124123464E+01 -0.17898875836E+02  0.36832408045E-01  0.17939929111E+02  0.00000000000E+00 0.  1.
</event>
<event>
12    1  0.1345781E-002  0.2164268E+03  0.7818608E-02  0.1136575E+00
         -1   -1    0    0    0  501 -0.00000000000E+00  0.00000000000E+00  0.58830615431E+02  0.58830615431E+02  0.00000000000E+00 0.  1.
          1   -1    0    0  502    0  0.00000000000E+00 -0.00000000000E+00 -0.86906989298E+03  0.86906989298E+03  0.00000000000E+00 0. -1.
          6    2    1    2  502    0 -0.12223193484E+03  0.42201282200E+02 -0.26867457952E+03  0.34422990736E+03  0.17200757347E+03 0.  0.
         24    2    3    3    0    0 -0.12636098026E+03  0.85144909503E+02 -0.20675171677E+03  0.26861420084E+03  0.78680134469E+02 0.  0.
         -6    2    1    2    0  501  0.12223193484E+03 -0.42201282200E+02 -0.54156469803E+03  0.58367060105E+03  0.17509270191E+03 0.  0.
        -24    2    5    5    0    0  0.13004108985E+03  0.13464260392E+02 -0.31499384620E+03  0.35018382105E+03  0.79470837581E+02 0.  0.
          5    1    3    3  502    0  0.41290454161E+01 -0.42943627303E+02 -0.61922862744E+02  0.75615706519E+02  0.47000000000E+01 0. -1.
        -11    1    4    4    0    0 -0.45131136820E+01  0.29159073352E+02 -0.11322972692E+02  0.31604263390E+02  0.00000000000E+00 0.  1.
         12    1    4    4    0    0 -0.12184786657E+03  0.55985836151E+02 -0.19542874408E+03  0.23700993745E+03  0.00000000000E+00 0. -1.
         -5    1    5    5    0  501 -0.78091550093E+01 -0.55665542592E+02 -0.22657085183E+03  0.23348678000E+03  0.47000000000E+01 0.  1.
         11    1    6    6    0    0  0.32694028674E+02  0.55468879967E+01 -0.18302180209E+03  0.18600174063E+03  0.00000000000E+00 0. -1.
        -12    1    6    6    0    0  0.97347061174E+02  0.79173723955E+01 -0.13197204411E+03  0.16418208042E+03  0.00000000000E+00 0.  1.
</event>
<event>
12    1  0.1345781E-002  0.1798068E+03  0.7818608E-02  0.1167990E+00
          1   -1    0    0  502    0  0.00000000000E+00  0.00000000000E+00  0.31628194038E+02  0.31628194038E+02  0.00000000000E+00 0.  1.
         -1   -1    0    0    0  501 -0.00000000000E+00 -0.00000000000E+00 -0.11623728580E+04  0.11623728580E+04  0.00000000000E+00 0. -1.
          6    2    1    2  502    0 -0.48847694547E+02 -0.34241240724E+01 -0.35390033480E+03  0.39627235485E+03  0.17143077424E+03 0.  0.
         24    2    3    3    0    0 -0.76448343012E+02 -0.42973429740E+02 -0.30765089843E+03  0.32928695540E+03  0.78036907164E+02 0.  0.
         -6    2    1    2    0  501  0.48847694547E+02  0.34241240724E+01 -0.77684432919E+03  0.79772869722E+03  0.17460280835E+03 0.  0.
        -24    2    5    5    0    0 -0.74723084623E+01  0.55636239996E+02 -0.32171776772E+03  0.33614411695E+03  0.79619838596E+02 0.  0.
          5    1    3    3  502    0  0.27600648465E+02  0.39549305668E+02 -0.46249436374E+02  0.66985399449E+02  0.47000000000E+01 0. -1.
        -11    1    4    4    0    0  0.99684142697E+00 -0.32236189158E+01  0.42725870972E+01  0.54443008962E+01  0.00000000000E+00 0.  1.
         12    1    4    4    0    0 -0.77445184439E+02 -0.39749810824E+02 -0.31192348553E+03  0.32384265451E+03  0.00000000000E+00 0. -1.
         -5    1    5    5    0  501  0.56320003009E+02 -0.52212115924E+02 -0.45512656147E+03  0.46158458027E+03  0.47000000000E+01 0.  1.
         13    1    6    6    0    0  0.31809830133E+02  0.47654669553E+02 -0.19392380871E+03  0.20221097004E+03  0.00000000000E+00 0. -1.
        -14    1    6    6    0    0 -0.39282138595E+02  0.79815704435E+01 -0.12779395902E+03  0.13393314691E+03  0.00000000000E+00 0.  1.
</event>
<event>
12    1  0.1345781E-002  0.3254970E+03  0.7818608E-02  0.1073147E+00
          1   -1    0    0  502    0  0.00000000000E+00  0.00000000000E+00  0.25352190192E+04  0.25352190192E+04  0.00000000000E+00 0.  1.
         -1   -1    0    0    0  501 -0.00000000000E+00 -0.00000000000E+00 -0.63966786704E+02  0.63966786704E+02  0.00000000000E+00 0. -1.
          6    2    1    2  502    0 -0.12630783138E+01  0.27627070710E+03  0.20009981339E+04  0.20273104302E+04  0.17224096351E+03 0.  0.
         24    2    3    3    0    0 -0.37129991358E+01  0.13457959445E+03  0.14451201409E+04  0.14536338604E+04  0.80955080978E+02 0.  0.
         -6    2    1    2    0  501  0.12630783138E+01 -0.27627070710E+03  0.47025409865E+03  0.57187537577E+03  0.17197508293E+03 0.  0.
        -24    2    5    5    0    0 -0.47751396452E+02 -0.23624136186E+03  0.32178672366E+03  0.41041510619E+03  0.82484464892E+02 0.  0.
          5    1    3    3  502    0  0.24499208220E+01  0.14169111264E+03  0.55587799303E+03  0.57367656972E+03  0.47000000000E+01 0. -1.
        -11    1    4    4    0    0  0.33037901113E+02  0.60895225536E+02  0.85413445265E+03  0.85693955132E+03  0.00000000000E+00 0.  1.
         12    1    4    4    0    0 -0.36750900249E+02  0.73684368915E+02  0.59098568820E+03  0.59669430913E+03  0.00000000000E+00 0. -1.
         -5    1    5    5    0  501  0.49014474766E+02 -0.40029345238E+02  0.14846737499E+03  0.16146026958E+03  0.47000000000E+01 0.  1.
         13    1    6    6    0    0 -0.28019877870E+02 -0.10934770957E+03  0.85938031427E+02  0.14187099911E+03  0.00000000000E+00 0. -1.
        -14    1    6    6    0    0 -0.19731518582E+02 -0.12689365229E+03  0.23584869224E+03  0.26854410708E+03  0.00000000000E+00 0.  1.
</event>
<event>
12    1  0.1345781E-002  0.1952619E+03  0.7818608E-02  0.1153799E+00
         -2   -1    0    0    0  501 -0.00000000000E+00  0.00000000000E+00  0.44254417479E+02  0.44254417479E+02  0.00000000000E+00 0.  1.
          2   -1    0    0  502    0  0.00000000000E+00 -0.00000000000E+00 -0.12492750343E+04  0.12492750343E+04  0.00000000000E+00 0. -1.
          6    2    1    2  502    0  0.31421269670E+02  0.86469300111E+02 -0.24179084594E+03  0.31066971120E+03  0.17201343037E+03 0.  0.
         24    2    3    3    0    0  0.66330017452E+02  0.52409036344E+01 -0.15451669577E+03  0.18634939769E+03  0.80147055209E+02 0.  0.
         -6    2    1    2    0  501 -0.31421269670E+02 -0.86469300111E+02 -0.96322977090E+03  0.98285974060E+03  0.17244547569E+03 0.  0.
        -24    2    5    5    0    0 -0.78650436654E+02 -0.26731296708E+02 -0.66985924470E+03  0.67973010017E+03  0.80132065685E+02 0.  0.
          5    1    3    3  502    0 -0.34908747782E+02  0.81228396476E+02 -0.87274150167E+02  0.12432031352E+03  0.47000000000E+01 0. -1.
        -13    1    4    4    0    0  0.60311617196E+02 -0.82732277562E+01 -0.44660628456E+02  0.75501716540E+02  0.00000000000E+00 0.  1.
         14    1    4    4    0    0  0.60184002558E+01  0.13514131391E+02 -0.10985606732E+03  0.11084768115E+03  0.00000000000E+00 0. -1.
         -5    1    5    5    0  501  0.47229166984E+02 -0.59738003403E+02 -0.29337052620E+03  0.30312964043E+03  0.47000000000E+01 0.  1.
         11    1    6    6    0    0 -0.70218293469E+02 -0.48717719713E+02 -0.41038564733E+03  0.41919017699E+03  0.00000000000E+00 0. -1.
        -12    1    6    6    0    0 -0.84321431854E+01  0.21986423004E+02 -0.25947359737E+03  0.26053992318E+03  0.00000000000E+00 0.  1.
</event>
<event>
12    1  0.1345781E-002  0.1904812E+03  0.7818608E-02  0.1158028E+00
         -2   -1    0    0    0  501 -0.00000000000E+00  0.00000000000E+00  0.13879476323E+03  0.13879476323E+03  0.00000000000E+00 0. -1.
          2   -1    0    0  502    0  0.00000000000E+00 -0.00000000000E+00 -0.30342779595E+03  0.30342779595E+03  0.00000000000E+00 0.  1.
          6    2    1    2  502    0  0.83512354602E+02 -0.52207675137E+01  0.65512305445E+00  0.18854152583E+03  0.16895534319E+03 0.  0.
         24    2    3    3    0    0  0.21872304912E+02 -0.85863655284E+01  0.60185234493E+02  0.10265353398E+03  0.79770685048E+02 0.  0.
         -6    2    1    2    0  501 -0.83512354602E+02  0.52207675137E+01 -0.16528815577E+03  0.25368103335E+03  0.17329836253E+03 0.  0.
        -24    2    5    5    0    0 -0.51334754596E+02  0.28598680943E+02 -0.17690095198E+02  0.10074574551E+03  0.79897585632E+02 0.  0.
          5    1    3    3  502    0  0.61640049689E+02  0.33655980147E+01 -0.59530111438E+02  0.85887991847E+02  0.47000000000E+01 0. -1.
        -11    1    4    4    0    0 -0.54832501267E+01 -0.31944229880E+02 -0.14711245564E+00  0.32411749361E+02  0.00000000000E+00 0.  1.
         12    1    4    4    0    0  0.27355555039E+02  0.23357864351E+02  0.60332346948E+02  0.70241784622E+02  0.00000000000E+00 0. -1.
         -5    1    5    5    0  501 -0.32177600006E+02 -0.23377913429E+02 -0.14759806058E+03  0.15293528783E+03  0.47000000000E+01 0.  1.
         13    1    6    6    0    0 -0.41451039271E+02 -0.21877065938E+02 -0.17677880880E+01  0.46903302074E+02  0.00000000000E+00 0. -1.
        -14    1    6    6    0    0 -0.98837153247E+01  0.50475746881E+02 -0.15922307110E+02  0.53842443439E+02  0.00000000000E+00 0.  1.
</event>
<event>
12    1  0.1345781E-002  0.1827112E+03  0.7818608E-02  0.1165205E+00
          1   -1    0    0  502    0  0.00000000000E+00  0.00000000000E+00  0.25197044093E+03  0.25197044093E+03  0.00000000000E+00 0.  1.
         -1   -1    0    0    0  501 -0.00000000000E+00 -0.00000000000E+00 -0.13326450863E+03  0.13326450863E+03  0.00000000000E+00 0. -1.
          6    2    1    2  502    0 -0.65259843032E+02  0.14865584441E+02  0.74504343600E+02  0.19900717460E+03  0.17196838550E+03 0.  0.
         24    2    3    3    0    0 -0.78893511687E+02 -0.20189081969E+02  0.10050090683E+03  0.15304395172E+03  0.81793848585E+02 0.  0.
         -6    2    1    2    0  501  0.65259843032E+02 -0.14865584441E+02  0.44201588705E+02  0.18622777496E+03  0.16806894719E+03 0.  0.
        -24    2    5    5    0    0  0.30057500538E+02 -0.55034455539E+02 -0.17815810010E+02  0.10424612540E+03  0.81348675089E+02 0.  0.
          5    1    3    3  502    0  0.13633668655E+02  0.35054666409E+02 -0.25996563228E+02  0.45963222882E+02  0.47000000000E+01 0. -1.
        -11    1    4    4    0    0 -0.72201616717E+02  0.13272978889E+02  0.92324139840E+02  0.11795334765E+03  0.00000000000E+00 0.  1.
         12    1    4    4    0    0 -0.66918949707E+01 -0.33462060858E+02  0.81767669876E+01  0.35090604063E+02  0.00000000000E+00 0. -1.
         -5    1    5    5    0  501  0.35202342495E+02  0.40168871098E+02  0.62017398715E+02  0.81981649567E+02  0.47000000000E+01 0.  1.
         11    1    6    6    0    0  0.41596118501E+02 -0.57277298865E+02 -0.38407154247E+02  0.80535926995E+02  0.00000000000E+00 0. -1.
        -12    1    6    6    0    0 -0.11538617964E+02  0.22428433264E+01  0.20591344237E+02  0.23710198400E+02  0.00000000000E+00 0.  1.
</event>
<event>
12    1  0.1345781E-002  0.1912060E+03  0.7818608E-02  0.1157378E+00
          2   -1    0    0  502    0  0.00000000000E+00  0.00000000000E+00  0.17025627668E+03  0.17025627668E+03  0.00000000000E+00 0. -1.
         -2   -1    0    0    0  501 -0.00000000000E+00 -0.00000000000E+00 -0.23871271882E+03  0.23871271882E+03  0.00000000000E+00 0.  1.
          6    2    1    2  502    0 -0.36554937950E+02  0.74310158728E+02 -0.99068455395E+02  0.21551823754E+03  0.17255517575E+03 0.  0.
         24    2    3    3    0    0 -0.83779245818E+02  0.25017800971E+02 -0.39679685930E+02  0.12491477334E+03  0.79902257334E+02 0.  0.
         -6    2    1    2    0  501  0.36554937950E+02 -0.74310158728E+02  0.30612013257E+02  0.19345075796E+03  0.17212738661E+03 0.  0.
        -24    2    5    5    0    0  0.67505696542E+02 -0.80304417474E+02 -0.19735814101E+02  0.13386154488E+03  0.80768758245E+02 0.  0.
          5    1    3    3  502    0  0.47224307868E+02  0.49292357757E+02 -0.59388769465E+02  0.90603464202E+02  0.47000000000E+01 0. -1.
        -11    1    4    4    0    0 -0.48208048807E+02 -0.35207005801E+01 -0.58233540624E+02  0.75680622064E+02  0.00000000000E+00 0.  1.
         12    1    4    4    0    0 -0.35571197011E+02  0.28538501551E+02  0.18553854694E+02  0.49234151273E+02  0.00000000000E+00 0. -1.
         -5    1    5    5    0  501 -0.30950758592E+02  0.59942587464E+01  0.50347827358E+02  0.59589213076E+02  0.47000000000E+01 0.  1.
         13    1    6    6    0    0 -0.14120612064E+02  0.34579940719E+01  0.26603932304E+01  0.14779279421E+02  0.00000000000E+00 0. -1.
        -14    1    6    6    0    0  0.81626308605E+02 -0.83762411546E+02 -0.22396207332E+02  0.11908226546E+03  0.00000000000E+00 0.  1.
</event>
<event>
12    1  0.1345781E-002  0.1935661E+03  0.7818608E-02  0.1155284E+00
         -2   -1    0    0    0  501 -0.00000000000E+00  0.00000000000E+00  0.53657608161E+03  0.53657608161E+03  0.00000000000E+00 0. -1.
          2   -1    0    0  502    0  0.00000000000E+00 -0.00000000000E+00 -0.72232842824E+02  0.72232842824E+02  0.00000000000E+00 0.  1.
          6    2    1    2  502    0  0.84098509006E+02  0.27401819891E+02  0.28724294093E+03  0.34614900520E+03  0.17171839660E+03 0.  0.
         24    2    3    3    0    0  0.12365507896E+03  0.13388413787E+02  0.23813981923E+03  0.28138555611E+03  0.83650639590E+02 0.  0.
         -6    2    1    2    0  501 -0.84098509006E+02 -0.27401819891E+02  0.17710029785E+03  0.26265991924E+03  0.17263342296E+03 0.  0.
        -24    2    5    5    0    0 -0.48944695980E+02  0.46917028015E+02  0.13323291410E+03  0.16935654802E+03  0.79585426893E+02 0.  0.
          5    1    3    3  502    0 -0.39556569956E+02  0.14013406103E+02  0.49103121701E+02  0.64763449090E+02  0.47000000000E+01 0. -1.
        -13    1    4    4    0    0  0.27490757837E+02  0.77004645984E+01  0.48091021971E+01  0.28951103355E+02  0.00000000000E+00 0.  1.
         14    1    4    4    0    0  0.96164321125E+02  0.56879491889E+01  0.23333071704E+03  0.25243445275E+03  0.00000000000E+00 0. -1.
         -5    1    5    5    0  501 -0.35153813026E+02 -0.74318847905E+02  0.43867383751E+02  0.93303371222E+02  0.47000000000E+01 0.  1.
         13    1    6    6    0    0  0.54683266704E+01  0.46785335987E+02  0.82291845377E+02  0.94819397148E+02  0.00000000000E+00 0. -1.
        -14    1    6    6    0    0 -0.54413022651E+02  0.13169202799E+00  0.50941068726E+02  0.74537150869E+02  0.00000000000E+00 0.  1.
</event>
<event>
12    1  0.1345781E-002  0.2234501E+03  0.7818608E-02  0.1131337E+00
          2   -1    0    0  502    0  0.00000000000E+00  0.00000000000E+00  0.13576520344E+03  0.13576520344E+03  0.00000000000E+00 0. -1.
         -2   -1    0    0    0  501 -0.00000000000E+00 -0.00000000000E+00 -0.36795175037E+03  0.36795175037E+03  0.00000000000E+00 0.  1.
          6    2    1    2  502    0 -0.71515829840E+02 -0.12278738556E+03 -0.12202036655E+03  0.25515002659E+03  0.17326658722E+03 0.  0.
         24    2    3    3    0    0 -0.87302474807E+02 -0.11696450544E+03 -0.39854286100E+02  0.17114717623E+03  0.80003588477E+02 0.  0.
         -6    2    1    2    0  501  0.71515829840E+02  0.12278738556E+03 -0.11016618038E+03  0.24856692721E+03  0.17163238049E+03 0.  0.
        -24    2    5    5    0    0  0.16486559952E+02  0.14174267183E+03 -0.75010286321E+02  0.18040865325E+03  0.80981154842E+02 0.  0.
          5    1    3    3  502    0  0.15786644967E+02 -0.58228801137E+01 -0.82166080453E+02  0.84002850363E+02  0.47000000000E+01 0. -1.
        -11    1    4    4    0    0 -0.29597824925E+02 -0.94848126179E+02 -0.45123324124E+02  0.10912521551E+03  0.00000000000E+00 0.  1.
         12    1    4    4    0    0 -0.57704649882E+02 -0.22116379266E+02  0.52690380239E+01  0.62021960720E+02  0.00000000000E+00 0. -1.
         -5    1    5    5    0  501  0.55029269887E+02 -0.18955286267E+02 -0.35155894056E+02  0.68158273956E+02  0.47000000000E+01 0.  1.
         13    1    6    6    0    0  0.32612629448E+02  0.16721070008E+02 -0.74892957124E+01  0.37406781898E+02  0.00000000000E+00 0. -1.
        -14    1    6    6    0    0 -0.16126069495E+02  0.12502160182E+03 -0.67520990608E+02  0.14300187135E+03  0.00000000000E+00 0.  1.
</event>
<event>
12    1  0.1345781E-002  0.2295979E+03  0.7818608E-02  0.1126923E+00
         -2   -1    0    0    0  501 -0.00000000000E+00  0.00000000000E+00  0.84551457861E+02  0.84551457861E+02  0.00000000000E+00 0.  1.
          2   -1    0    0  502    0  0.00000000000E+00 -0.00000000000E+00 -0.68546343074E+03  0.68546343074E+03  0.00000000000E+00 0. -1.
          6    2    1    2  502    0  0.14758635092E+03 -0.12513958678E+02 -0.18783083809E+03  0.29865895257E+03  0.17882509912E+03 0.  0.
         24    2    3    3    0    0  0.20874431781E+02 -0.20702544672E+02 -0.13135289296E+03  0.15960927915E+03  0.85774135056E+02 0.  0.
         -6    2    1    2    0  501 -0.14758635092E+03  0.12513958678E+02 -0.41308113479E+03  0.47135593603E+03  0.17205250470E+03 0.  0.
        -24    2    5    5    0    0 -0.95207523411E+02 -0.67455084893E+02 -0.23275127304E+03  0.26720026372E+03  0.60068001758E+02 0.  0.
          5    1    3    3  502    0  0.12671191914E+03  0.81885859939E+01 -0.56477945134E+02  0.13904967342E+03  0.47000000000E+01 0. -1.
        -11    1    4    4    0    0  0.20252721703E+02 -0.20873616004E+02 -0.84140127147E+00  0.29096194554E+02  0.00000000000E+00 0.  1.
         12    1    4    4    0    0  0.62171007795E+00  0.17107133219E+00 -0.13051149169E+03  0.13051308460E+03  0.00000000000E+00 0. -1.
         -5    1    5    5    0  501 -0.52378827506E+02  0.79969043571E+02 -0.18032986175E+03  0.20415567232E+03  0.47000000000E+01 0.  1.
         13    1    6    6    0    0  0.29312471427E+01 -0.21589292638E+02 -0.27192121940E+02  0.34843955890E+02  0.00000000000E+00 0. -1.
        -14    1    6    6    0    0 -0.98138770554E+02 -0.45865792255E+02 -0.20555915110E+03  0.23235630783E+03  0.00000000000E+00 0.  1.
</event>
<event>
12    1  0.1345781E-002  0.1795086E+03  0.7818608E-02  0.1168279E+00
          2   -1    0    0  502    0  0.00000000000E+00  0.00000000000E+00  0.88050618792E+03  0.88050618792E+03  0.00000000000E+00 0. -1.
         -2   -1    0    0    0  501 -0.00000000000E+00 -0.00000000000E+00 -0.45865113320E+02  0.45865113320E+02  0.00000000000E+00 0.  1.
          6    2    1    2  502    0 -0.11058884712E+02 -0.48001545088E+02  0.20888739425E+03  0.27534736780E+03  0.17249864411E+03 0.  0.
         24    2    3    3    0    0  0.41720978078E+02 -0.58258470694E+02  0.59509302360E+02  0.11651782781E+03  0.70002555027E+02 0.  0.
         -6    2    1    2    0  501  0.11058884712E+02  0.48001545088E+02  0.62575368035E+03  0.65102393344E+03  0.17273692764E+03 0.  0.
        -24    2    5    5    0    0  0.38598812241E+02  0.30625092057E+02  0.16617584513E+03  0.19026991516E+03  0.78488626826E+02 0.  0.
          5    1    3    3  502    0 -0.52779862791E+02  0.10256925606E+02  0.14937809189E+03  0.15882953999E+03  0.47000000000E+01 0. -1.
        -13    1    4    4    0    0 -0.67557745650E+01 -0.66789939411E+01 -0.12396131890E+02  0.15617731457E+02  0.00000000000E+00 0.  1.
         14    1    4    4    0    0  0.48476752643E+02 -0.51579476753E+02  0.71905434250E+02  0.10090009635E+03  0.00000000000E+00 0. -1.
         -5    1    5    5    0  501 -0.27539927529E+02  0.17376453031E+02  0.45957783523E+03  0.46075401828E+03  0.47000000000E+01 0.  1.
         11    1    6    6    0    0  0.25412229375E+02 -0.54972496814E+01  0.14305874929E+03  0.14540222456E+03  0.00000000000E+00 0. -1.
        -12    1    6    6    0    0  0.13186582866E+02  0.36122341739E+02  0.23117095831E+02  0.44867690603E+02  0.00000000000E+00 0.  1.
</event>
<event>
12    1  0.1345781E-002  0.1926207E+03  0.7818608E-02  0.1156119E+00
          1   -1    0    0  502    0  0.00000000000E+00  0.00000000000E+00  0.19350474396E+03  0.19350474396E+03  0.00000000000E+00 0.  1.
         -1   -1    0    0    0  501 -0.00000000000E+00 -0.00000000000E+00 -0.21667404664E+03  0.21667404664E+03  0.00000000000E+00 0. -1.
          6    2    1    2  502    0 -0.64961398039E+02 -0.21385756626E+02 -0.80177275019E+02  0.20125617928E+03  0.17145938425E+03 0.  0.
         24    2    3    3    0    0 -0.57352834438E+02 -0.67681716297E+01  0.15250305076E+02  0.10430218466E+03  0.85505661533E+02 0.  0.
         -6    2    1    2    0  501  0.64961398039E+02  0.21385756626E+02  0.57007972341E+02  0.20892261132E+03  0.18900109732E+03 0.  0.
        -24    2    5    5    0    0  0.15502958404E+02 -0.69798573648E+01 -0.47231835130E+02  0.90016039722E+02  0.74719348427E+02 0.  0.
          5    1    3    3  502    0 -0.76085636014E+01 -0.14617584996E+02 -0.95427580096E+02  0.96953994627E+02  0.47000000000E+01 0. -1.
        -13    1    4    4    0    0 -0.18982416093E+02 -0.37612904137E+02 -0.17017819348E+02  0.45438627330E+02  0.00000000000E+00 0.  1.
         14    1    4    4    0    0 -0.38370418345E+02  0.30844732507E+02  0.32268124424E+02  0.58863557327E+02  0.00000000000E+00 0. -1.
         -5    1    5    5    0  501  0.49458439636E+02  0.28365613991E+02  0.10423980747E+03  0.11890657160E+03  0.47000000000E+01 0.  1.
         13    1    6    6    0    0 -0.19823535245E+02  0.93630579963E+01 -0.46132472514E+02  0.51076848228E+02  0.00000000000E+00 0. -1.
        -14    1    6    6    0    0  0.35326493649E+02 -0.16342915361E+02 -0.10993626163E+01  0.38939191494E+02  0.00000000000E+00 0.  1.
</event>
<event>
12    1  0.1345781E-002  0.1817002E+03  0.7818608E-02  0.1166168E+00
          2   -1    0    0  502    0  0.00000000000E+00  0.00000000000E+00  0.45521011336E+03  0.45521011336E+03  0.00000000000E+00 0.  1.
         -2   -1    0    0    0  501 -0.00000000000E+00 -0.00000000000E+00 -0.73755276706E+02  0.73755276706E+02  0.00000000000E+00 0. -1.
          6    2    1    2  502    0 -0.24940087634E+02 -0.53078254029E+02  0.15644514046E+03  0.23966062157E+03  0.17182206649E+03 0.  0.
         24    2    3    3    0    0  0.15138601706E+02 -0.91523261239E+02  0.78271663899E+02  0.14365279711E+03  0.76837413671E+02 0.  0.
         -6    2    1    2    0  501  0.24940087634E+02  0.53078254029E+02  0.22500969619E+03  0.28930476849E+03  0.17212953457E+03 0.  0.
        -24    2    5    5    0    0  0.28381649726E+00  0.24002986362E+02  0.23533730588E+03  0.24952974595E+03  0.79405432235E+02 0.  0.
          5    1    3    3  502    0 -0.40078689340E+02  0.38445007210E+02  0.78173476561E+02  0.96007824453E+02  0.47000000000E+01 0. -1.
        -13    1    4    4    0    0 -0.29870250142E+02 -0.20100416729E+02  0.24897000635E+02  0.43773499253E+02  0.00000000000E+00 0.  1.
         14    1    4    4    0    0  0.45008851848E+02 -0.71422844510E+02  0.53374663264E+02  0.99879297861E+02  0.00000000000E+00 0. -1.
         -5    1    5    5    0  501  0.24656271136E+02  0.29075267666E+02 -0.10327609693E+02  0.39775022542E+02  0.47000000000E+01 0.  1.
         11    1    6    6    0    0 -0.28848158449E+02  0.15645749592E+02  0.39468069379E+02  0.51329662250E+02  0.00000000000E+00 0. -1.
        -12    1    6    6    0    0  0.29131974947E+02  0.83572367701E+01  0.19586923650E+03  0.19820008370E+03  0.00000000000E+00 0.  1.
</event>
<event>
12    1  0.1345781E-002  0.2249045E+03  0.7818608E-02  0.1130278E+00
          1   -1    0    0  502    0  0.00000000000E+00  0.00000000000E+00  0.11149758637E+04  0.11149758637E+04  0.00000000000E+00 0.  1.
         -1   -1    0    0    0  501 -0.00000000000E+00 -0.00000000000E+00 -0.53571677569E+02  0.53571677569E+02  0.00000000000E+00 0. -1.
          6    2    1    2  502    0  0.14466112276E+03 -0.12782127354E+02  0.30170932886E+03  0.37621449945E+03  0.17151853328E+03 0.  0.
         24    2    3    3    0    0  0.62169205270E+02  0.34261939151E+02  0.24029145917E+03  0.26302304500E+03  0.80014038102E+02 0.  0.
         -6    2    1    2    0  501 -0.14466112276E+03  0.12782127354E+02  0.75969485727E+03  0.79233304181E+03  0.17194519410E+03 0.  0.
        -24    2    5    5    0    0 -0.13945438368E+03 -0.43882956095E+02  0.60431878455E+03  0.62679798272E+03  0.79380594781E+02 0.  0.
          5    1    3    3  502    0  0.82491917486E+02 -0.47044066505E+02  0.61417869698E+02  0.11319145446E+03  0.47000000000E+01 0. -1.
        -13    1    4    4    0    0  0.46630356865E+02 -0.12605321380E+02  0.17263231599E+03  0.17926293770E+03  0.00000000000E+00 0.  1.
         14    1    4    4    0    0  0.15538848406E+02  0.46867260531E+02  0.67659143180E+02  0.83760107302E+02  0.00000000000E+00 0. -1.
         -5    1    5    5    0  501 -0.52067390772E+01  0.56665083448E+02  0.15537607272E+03  0.16553505909E+03  0.47000000000E+01 0.  1.
         13    1    6    6    0    0  0.37885167887E+01  0.21373119772E+01  0.34141453779E+00  0.43632013285E+01  0.00000000000E+00 0. -1.
        -14    1    6    6    0    0 -0.14324290047E+03 -0.46020268072E+02  0.60397737001E+03  0.62243478140E+03  0.00000000000E+00 0.  1.
</event>
<event>
12    1  0.1345781E-002  0.1803154E+03  0.7818608E-02  0.1167498E+00
          3   -1    0    0  502    0  0.00000000000E+00  0.00000000000E+00  0.55256634090E+02  0.55256634090E+02  0.00000000000E+00 0.  1.
         -3   -1    0    0    0  501 -0.00000000000E+00 -0.00000000000E+00 -0.73065268622E+03  0.73065268622E+03  0.00000000000E+00 0. -1.
          6    2    1    2  502    0  0.70298266031E+02  0.21945828375E+02 -0.17432083293E+03  0.25543628420E+03  0.17157061784E+03 0.  0.
         24    2    3    3    0    0  0.46826604589E+02 -0.37098512904E+02 -0.42806604008E+02  0.10930197770E+03  0.80904180523E+02 0.  0.
         -6    2    1    2    0  501 -0.70298266031E+02 -0.21945828375E+02 -0.50107521920E+03  0.53047303611E+03  0.15780304543E+03 0.  0.
        -24    2    5    5    0    0 -0.29791670189E+02 -0.60505174493E+02 -0.41338426863E+03  0.42636059549E+03  0.79676747413E+02 0.  0.
          5    1    3    3  502    0  0.23471661441E+02  0.59044341279E+02 -0.13151422892E+03  0.14613430650E+03  0.47000000000E+01 0. -1.
        -13    1    4    4    0    0  0.37483107508E+02  0.19072612270E+02 -0.87671171210E+01  0.42960565986E+02  0.00000000000E+00 0.  1.
         14    1    4    4    0    0  0.93434970815E+01 -0.56171125174E+02 -0.34039486887E+02  0.66341411717E+02  0.00000000000E+00 0. -1.
         -5    1    5    5    0  501 -0.40506595842E+02  0.38559346119E+02 -0.87690950567E+02  0.10411244062E+03  0.47000000000E+01 0.  1.
         13    1    6    6    0    0 -0.41985664474E+02 -0.44917987125E+01 -0.24164634685E+03  0.24530782544E+03  0.00000000000E+00 0. -1.
        -14    1    6    6    0    0  0.12193994285E+02 -0.56013375781E+02 -0.17173792179E+03  0.18105277005E+03  0.00000000000E+00 0.  1.
</event>
<event>
12    1  0.1345781E-002  0.2078691E+03  0.7818608E-02  0.1143265E+00
          2   -1    0    0  502    0  0.00000000000E+00  0.00000000000E+00  0.67772615319E+03  0.67772615319E+03  0.00000000000E+00 0. -1.
         -2   -1    0    0    0  501 -0.00000000000E+00 -0.00000000000E+00 -0.69227818358E+02  0.69227818358E+02  0.00000000000E+00 0.  1.
          6    2    1    2  502    0 -0.43235412313E+02  0.10878529449E+03  0.19826759964E+03  0.28672884470E+03  0.17087963057E+03 0.  0.
         24    2    3    3    0    0 -0.47119092552E+02  0.87026914657E+02  0.60830850751E+02  0.14744690040E+03  0.90809158543E+02 0.  0.
         -6    2    1    2    0  501  0.43235412313E+02 -0.10878529449E+03  0.41023073519E+03  0.46022512685E+03  0.17266838190E+03 0.  0.
        -24    2    5    5    0    0  0.77989932186E+02 -0.10816499393E+03  0.38992910988E+03  0.41969726711E+03  0.79492074155E+02 0.  0.
          5    1    3    3  502    0  0.38836802384E+01  0.21758379832E+02  0.13743674889E+03  0.13928194430E+03  0.47000000000E+01 0. -1.
        -11    1    4    4    0    0 -0.96563233153E+01  0.30703393913E+02 -0.23123753781E+02  0.39631439119E+02  0.00000000000E+00 0.  1.
         12    1    4    4    0    0 -0.37462769237E+02  0.56323520745E+02  0.83954604532E+02  0.10781546128E+03  0.00000000000E+00 0. -1.
         -5    1    5    5    0  501 -0.34754519873E+02 -0.62030056132E+00  0.20301625312E+02  0.40527859735E+02  0.47000000000E+01 0.  1.
         13    1    6    6    0    0 -0.18611389962E+01  0.98985209365E+01  0.11341475641E+02  0.15168178032E+02  0.00000000000E+00 0. -1.
        -14    1    6    6    0    0  0.79851071182E+02 -0.11806351486E+03  0.37858763424E+03  0.40452908908E+03  0.00000000000E+00 0.  1.
</event>
<event>
12    1  0.1345781E-002  0.1968129E+03  0.7818608E-02  0.1152456E+00
          1   -1    0    0  502    0  0.00000000000E+00  0.00000000000E+00  0.50568157253E+03  0.50568157253E+03  0.00000000000E+00 0. -1.
         -1   -1    0    0    0  501 -0.00000000000E+00 -0.00000000000E+00 -0.91943272273E+02  0.91943272273E+02  0.00000000000E+00 0.  1.
          6    2    1    2  502    0 -0.39115508907E+02 -0.98330246526E+02  0.32452267860E+03  0.37710452198E+03  0.16029345325E+03 0.  0.
         24    2    3    3    0    0  0.21415907902E+02 -0.99995180275E+02  0.24274449709E+03  0.27523899594E+03  0.79836938999E+02 0.  0.
         -6    2    1    2    0  501  0.39115508907E+02  0.98330246526E+02  0.89215621657E+02  0.22052032282E+03  0.17167097952E+03 0.  0.
        -24    2    5    5    0    0  0.56387250842E+02  0.44707928515E+02  0.11622501767E+03  0.15786839922E+03  0.78967435119E+02 0.  0.
          5    1    3    3  502    0 -0.60531416808E+02  0.16649337489E+01  0.81778181506E+02  0.10186552604E+03  0.47000000000E+01 0. -1.
        -11    1    4    4    0    0  0.14628045414E+02 -0.10390040429E+02  0.17403120422E+01  0.18026684075E+02  0.00000000000E+00 0.  1.
         12    1    4    4    0    0  0.67878624880E+01 -0.89605139846E+02  0.24100418505E+03  0.25721231186E+03  0.00000000000E+00 0. -1.
         -5    1    5    5    0  501 -0.17271741935E+02  0.53622318011E+02 -0.27009396011E+02  0.62651923603E+02  0.47000000000E+01 0.  1.
         11    1    6    6    0    0  0.23812994066E+02  0.62866334466E+02  0.58340546015E+02  0.89010415149E+02  0.00000000000E+00 0. -1.
        -12    1    6    6    0    0  0.32574256776E+02 -0.18158405951E+02  0.57884471653E+02  0.68857984066E+02  0.00000000000E+00 0.  1.
</event>
<event>
12    1  0.1345781E-002  0.3312169E+03  0.7818608E-02  0.1070600E+00
         -2   -1    0    0    0  501 -0.00000000000E+00  0.00000000000E+00  0.87670120751E+02  0.87670120751E+02  0.00000000000E+00 0. -1.
          2   -1    0    0  502    0  0.00000000000E+00 -0.00000000000E+00 -0.12553801499E+04  0.12553801499E+04  0.00000000000E+00 0.  1.
          6    2    1    2  502    0 -0.19289592142E+03 -0.20245223444E+03 -0.54070823518E+03  0.63244766324E+03  0.17154855704E+03 0.  0.
         24    2    3    3    0    0 -0.17901814110E+03 -0.93970588722E+02 -0.33125509417E+03  0.39611406741E+03  0.79362778379E+02 0.  0.
         -6    2    1    2    0  501  0.19289592142E+03  0.20245223444E+03 -0.62700179401E+03  0.71060260745E+03  0.18338231181E+03 0.  0.
        -24    2    5    5    0    0  0.16712930300E+03  0.18981128199E+03 -0.38695373168E+03  0.46879922755E+03  0.77967933097E+02 0.  0.
          5    1    3    3  502    0 -0.13877780316E+02 -0.10848164572E+03 -0.20945314100E+03  0.23633359584E+03  0.47000000000E+01 0. -1.
        -13    1    4    4    0    0 -0.17031149548E+02 -0.63748090533E+01 -0.94174008310E+02  0.95913722097E+02  0.00000000000E+00 0.  1.
         14    1    4    4    0    0 -0.16198699156E+03 -0.87595779669E+02 -0.23708108586E+03  0.30020034531E+03  0.00000000000E+00 0. -1.
         -5    1    5    5    0  501  0.25766618420E+02  0.12640952450E+02 -0.24004806233E+03  0.24180337990E+03  0.47000000000E+01 0.  1.
         11    1    6    6    0    0  0.58641657019E+01  0.92945367358E+01  0.15078756695E+01  0.11092814861E+02  0.00000000000E+00 0. -1.
        -12    1    6    6    0    0  0.16126513730E+03  0.18051674526E+03 -0.38846160735E+03  0.45770641269E+03  0.00000000000E+00 0.  1.
</event>
<event>
12    1  0.1345781E-002  0.1972685E+03  0.7818608E-02  0.1152064E+00
         -2   -1    0    0    0  501 -0.00000000000E+00  0.00000000000E+00  0.15340663645E+02  0.15340663645E+02  0.00000000000E+00 0. -1.
          2   -1    0    0  502    0  0.00000000000E+00 -0.00000000000E+00 -0.25589809084E+04  0.25589809084E+04  0.00000000000E+00 0.  1.
          6    2    1    2  502    0 -0.26517615451E+02 -0.94839189655E+02 -0.11553326731E+04  0.11721462891E+04  0.17156830051E+03 0.  0.
         24    2    3    3    0    0 -0.81163982008E+02 -0.42877520499E+02 -0.64906114863E+03  0.66026819140E+03  0.79041989909E+02 0.  0.
         -6    2    1    2    0  501  0.26517615451E+02  0.94839189655E+02 -0.13883075717E+04  0.14021752829E+04  0.17029373069E+03 0.  0.
        -24    2    5    5    0    0  0.49073034340E+02  0.76322701153E+02 -0.54055509280E+03  0.55390765849E+03  0.79878459974E+02 0.  0.
          5    1    3    3  502    0  0.54646366557E+02 -0.51961669156E+02 -0.50627152446E+03  0.51187809772E+03  0.47000000000E+01 0. -1.
        -11    1    4    4    0    0  0.44940986562E+01  0.15383644199E+02 -0.56904374962E+02  0.59118197887E+02  0.00000000000E+00 0.  1.
         12    1    4    4    0    0 -0.85658080665E+02 -0.58261164698E+02 -0.59215677367E+03  0.60114999351E+03  0.00000000000E+00 0. -1.
         -5    1    5    5    0  501 -0.22555418889E+02  0.18516488502E+02 -0.84775247887E+03  0.84826762446E+03  0.47000000000E+01 0.  1.
         13    1    6    6    0    0  0.66485460333E+02  0.57771764307E+02 -0.48320894250E+03  0.49117082089E+03  0.00000000000E+00 0. -1.
        -14    1    6    6    0    0 -0.17412425993E+02  0.18550936846E+02 -0.57346150307E+02  0.62736837598E+02  0.00000000000E+00 0.  1.
</event>
<event>
12    1  0.1345781E-002  0.1850363E+03  0.7818608E-02  0.1163016E+00
          3   -1    0    0  502    0  0.00000000000E+00  0.00000000000E+00  0.47812922558E+03  0.47812922558E+03  0.00000000000E+00 0. -1.
         -3   -1    0    0    0  501 -0.00000000000E+00 -0.00000000000E+00 -0.84777104685E+02  0.84777104685E+02  0.00000000000E+00 0.  1.
          6    2    1    2  502    0  0.25622239428E+02 -0.66398580999E+02  0.30261737088E+03  0.35203947359E+03  0.16519457343E+03 0.  0.
         24    2    3    3    0    0 -0.13151457722E+02 -0.10600027643E+02  0.25760883806E+03  0.27040163815E+03  0.80432649113E+02 0.  0.
         -6    2    1    2    0  501 -0.25622239428E+02  0.66398580999E+02  0.90734750009E+02  0.21086685668E+03  0.17654111610E+03 0.  0.
        -24    2    5    5    0    0 -0.70212856107E+02 -0.10931816313E+01  0.40311501534E+02  0.11543072565E+03  0.82269040709E+02 0.  0.
          5    1    3    3  502    0  0.38773697150E+02 -0.55798553356E+02  0.45008532823E+02  0.81637835433E+02  0.47000000000E+01 0. -1.
        -13    1    4    4    0    0 -0.28012702440E+02 -0.12462125901E+02  0.32076371441E+02  0.44372397780E+02  0.00000000000E+00 0.  1.
         14    1    4    4    0    0  0.14861244718E+02  0.18620982575E+01  0.22553246662E+03  0.22602924037E+03  0.00000000000E+00 0. -1.
         -5    1    5    5    0  501  0.44590616679E+02  0.67491762630E+02  0.50423248475E+02  0.95436131028E+02  0.47000000000E+01 0.  1.
         11    1    6    6    0    0 -0.57694811940E+02 -0.30190030935E+02  0.50230241748E+02  0.82238716422E+02  0.00000000000E+00 0. -1.
        -12    1    6    6    0    0 -0.12518044166E+02  0.29096849303E+02 -0.99187402135E+01  0.33192009227E+02  0.00000000000E+00 0.  1.
</event>
<event>
12    1  0.1345781E-002  0.2508934E+03  0.7818608E-02  0.1112742E+00
         -1   -1    0    0    0  501 -0.00000000000E+00  0.00000000000E+00  0.49263064591E+02  0.49263064591E+02  0.00000000000E+00 0. -1.
          1   -1    0    0  502    0  0.00000000000E+00 -0.00000000000E+00 -0.14966352063E+04  0.14966352063E+04  0.00000000000E+00 0.  1.
          6    2    1    2  502    0  0.17105176105E+03 -0.65857688612E+02 -0.10200293903E+04  0.10505067382E+04  0.17178041131E+03 0.  0.
         24    2    3    3    0    0  0.17695714202E+03 -0.85785728495E+02 -0.99354317718E+03  0.10165124771E+04  0.86582618852E+02 0.  0.
         -6    2    1    2    0  501 -0.17105176105E+03  0.65857688612E+02 -0.42734275142E+03  0.49539153276E+03  0.17086545417E+03 0.  0.
        -24    2    5    5    0    0 -0.15394747563E+03 -0.30337289871E+01 -0.25101574064E+03  0.30525503250E+03  0.80390945104E+02 0.  0.
          5    1    3    3  502    0 -0.59053809708E+01  0.19928039883E+02 -0.26486213153E+02  0.33994261063E+02  0.47000000000E+01 0. -1.
        -13    1    4    4    0    0  0.22240988346E+02 -0.42114766450E+02 -0.34844042572E+03  0.35168031704E+03  0.00000000000E+00 0.  1.
         14    1    4    4    0    0  0.15471615367E+03 -0.43670962045E+02 -0.64510275145E+03  0.66483216007E+03  0.00000000000E+00 0. -1.
         -5    1    5    5    0  501 -0.17104285424E+02  0.68891417599E+02 -0.17632701079E+03  0.19013650026E+03  0.47000000000E+01 0.  1.
         13    1    6    6    0    0 -0.72631262947E+02  0.28027288730E+02 -0.16710323289E+03  0.18434836510E+03  0.00000000000E+00 0. -1.
        -14    1    6    6    0    0 -0.81316212679E+02 -0.31061017718E+02 -0.83912507746E+02  0.12090666740E+03  0.00000000000E+00 0.  1.
</event>
<event>
12    1  0.1345781E-002  0.2312093E+03  0.7818608E-02  0.1125791E+00
          2   -1    0    0  502    0  0.00000000000E+00  0.00000000000E+00  0.20611051398E+04  0.20611051398E+04  0.00000000000E+00 0.  1.
         -2   -1    0    0    0  501 -0.00000000000E+00 -0.00000000000E+00 -0.75107383545E+02  0.75107383545E+02  0.00000000000E+00 0. -1.
          6    2    1    2  502    0 -0.14970950226E+03 -0.41993335789E+02  0.12951370808E+03  0.26544775157E+03  0.17179153913E+03 0.  0.
         24    2    3    3    0    0 -0.70736202828E+02 -0.49831285538E+02  0.79762631386E+01  0.12021808517E+03  0.83078275257E+02 0.  0.
         -6    2    1    2    0  501  0.14970950226E+03  0.41993335789E+02  0.18564840482E+04  0.18707647718E+04  0.17044481475E+03 0.  0.
        -24    2    5    5    0    0  0.12656636555E+03  0.34034705528E+01  0.83565478072E+03  0.84893344236E+03  0.79614373857E+02 0.  0.
          5    1    3    3  502    0 -0.78973299431E+02  0.78379497484E+01  0.12153744495E+03  0.14522966640E+03  0.47000000000E+01 0. -1.
        -11    1    4    4    0    0 -0.26511136675E+01 -0.17704913076E+02  0.35743853786E+02  0.39976435986E+02  0.00000000000E+00 0.  1.
         12    1    4    4    0    0 -0.68085089160E+02 -0.32126372462E+02 -0.27767590647E+02  0.80241649184E+02  0.00000000000E+00 0. -1.
         -5    1    5    5    0  501  0.23143136712E+02  0.38589865236E+02  0.10208292675E+04  0.10218313295E+04  0.47000000000E+01 0.  1.
         11    1    6    6    0    0  0.20643670554E+02  0.20826084459E+02  0.71560250098E+02  0.77335349757E+02  0.00000000000E+00 0. -1.
        -12    1    6    6    0    0  0.10592269499E+03 -0.17422613906E+02  0.76409453062E+03  0.77159809261E+03  0.00000000000E+00 0.  1.
</event>
<event>
12    1  0.1345781E-002  0.3400055E+03  0.7818608E-02  0.1066794E+00
          2   -1    0    0  502    0  0.00000000000E+00  0.00000000000E+00  0.51330861551E+03  0.51330861551E+03  0.00000000000E+00 0.  1.
         -2   -1    0    0    0  501 -0.00000000000E+00 -0.00000000000E+00 -0.24700529754E+03  0.24700529754E+03  0.00000000000E+00 0. -1.
          6    2    1    2  502    0 -0.44871828043E+02  0.28979403825E+03  0.24600594018E+03  0.41952661110E+03  0.17172533085E+03 0.  0.
         24    2    3    3    0    0 -0.83168237917E+02  0.12666222541E+03  0.12114534823E+03  0.21050302202E+03  0.81700989810E+02 0.  0.
         -6    2    1    2    0  501  0.44871828043E+02 -0.28979403825E+03  0.20297377786E+02  0.34078730195E+03  0.17242371086E+03 0.  0.
        -24    2    5    5    0    0  0.80114910747E+02 -0.25177456991E+03  0.50495159823E+02  0.28060797916E+03  0.79888946830E+02 0.  0.
          5    1    3    3  502    0  0.38296409874E+02  0.16313181284E+03  0.12486059195E+03  0.20902358908E+03  0.47000000000E+01 0. -1.
        -13    1    4    4    0    0  0.12631498790E+02  0.43241245152E+02  0.34388796087E+02  0.56674062324E+02  0.00000000000E+00 0.  1.
         14    1    4    4    0    0 -0.95799736707E+02  0.83420980261E+02  0.86756552146E+02  0.15382895970E+03  0.00000000000E+00 0. -1.
         -5    1    5    5    0  501 -0.35243082704E+02 -0.38019468344E+02 -0.30197782038E+02  0.60179322791E+02  0.47000000000E+01 0.  1.
         11    1    6    6    0    0  0.66548554400E+01 -0.12691260447E+03  0.47605462301E+02  0.13571063449E+03  0.00000000000E+00 0. -1.
        -12    1    6    6    0    0  0.73460055307E+02 -0.12486196544E+03  0.28896975228E+01  0.14489734466E+03  0.00000000000E+00 0.  1.
</event>
<event>
12    1  0.1345781E-002  0.1942465E+03  0.7818608E-02  0.1154686E+00
         -2   -1    0    0    0  501 -0.00000000000E+00  0.00000000000E+00  0.77910563191E+02  0.77910563191E+02  0.00000000000E+00 0.  1.
          2   -1    0    0  502    0  0.00000000000E+00 -0.00000000000E+00 -0.11664940874E+04  0.11664940874E+04  0.00000000000E+00 0. -1.
          6    2    1    2  502    0 -0.94332543346E+02  0.94520381711E+01 -0.55120210894E+02  0.19040954193E+03  0.15565855662E+03 0.  0.
         24    2    3    3    0    0 -0.94613907757E+02 -0.35348814275E+02 -0.13436458480E+02  0.12903511109E+03  0.79171909576E+02 0.  0.
         -6    2    1    2    0  501  0.94332543346E+02 -0.94520381711E+01 -0.10334633133E+04  0.10539951087E+04  0.18404156963E+03 0.  0.
        -24    2    5    5    0    0  0.18878693905E+01 -0.76547604749E+01 -0.78287852306E+03  0.78685455567E+03  0.78607572714E+02 0.  0.
          5    1    3    3  502    0  0.28136441088E+00  0.44800852446E+02 -0.41683752414E+02  0.61374430842E+02  0.47000000000E+01 0. -1.
        -11    1    4    4    0    0 -0.89348514139E+02 -0.24153093526E+02  0.18853341906E+02  0.94456219524E+02  0.00000000000E+00 0.  1.
         12    1    4    4    0    0 -0.52653936181E+01 -0.11195720748E+02 -0.32289800385E+02  0.34578891566E+02  0.00000000000E+00 0. -1.
         -5    1    5    5    0  501  0.92444673956E+02 -0.17972776962E+01 -0.25058479028E+03  0.26714055302E+03  0.47000000000E+01 0.  1.
         13    1    6    6    0    0  0.14946485782E+02  0.16787527427E+02 -0.71794943233E+02  0.75231192920E+02  0.00000000000E+00 0. -1.
        -14    1    6    6    0    0 -0.13058616391E+02 -0.24442287902E+02 -0.71108357983E+03  0.71162336275E+03  0.00000000000E+00 0.  1.
</event>
<event>
12    1  0.1345781E-002  0.2035259E+03  0.7818608E-02  0.1146798E+00
         -1   -1    0    0    0  501 -0.00000000000E+00  0.00000000000E+00  0.62133854780E+02  0.62133854780E+02  0.00000000000E+00 0.  1.
          1   -1    0    0  502    0  0.00000000000E+00 -0.00000000000E+00 -0.79140589272E+03  0.79140589272E+03  0.00000000000E+00 0. -1.
          6    2    1    2  502    0  0.58849753343E+02  0.92863783059E+02 -0.53289329358E+03  0.57016233506E+03  0.17036094126E+03 0.  0.
         24    2    3    3    0    0  0.98862242885E+02  0.74731435307E+02 -0.31072663654E+03  0.34364545963E+03  0.78629693996E+02 0.  0.
         -6    2    1    2    0  501 -0.58849753343E+02 -0.92863783059E+02 -0.19637874436E+03  0.28337741244E+03  0.17219515374E+03 0.  0.
        -24    2    5    5    0    0 -0.32707297766E+02  0.18494727522E+02 -0.10684751107E+03  0.13804304762E+03  0.78915588458E+02 0.  0.
          5    1    3    3  502    0 -0.40012489542E+02  0.18132347752E+02 -0.22216665703E+03  0.22651687543E+03  0.47000000000E+01 0. -1.
        -13    1    4    4    0    0  0.94240048283E+02  0.37594451341E+02 -0.26949891323E+03  0.28796561202E+03  0.00000000000E+00 0.  1.
         14    1    4    4    0    0  0.46221946018E+01  0.37136983966E+02 -0.41227723313E+02  0.55679847616E+02  0.00000000000E+00 0. -1.
         -5    1    5    5    0  501 -0.26142455577E+02 -0.11135851058E+03 -0.89531233290E+02  0.14533436482E+03  0.47000000000E+01 0.  1.
         11    1    6    6    0    0 -0.43883106442E+01  0.38168365729E+02 -0.17394425195E+02  0.42174013807E+02  0.00000000000E+00 0. -1.
        -12    1    6    6    0    0 -0.28318987122E+02 -0.19673638207E+02 -0.89453085878E+02  0.95869033817E+02  0.00000000000E+00 0.  1.
</event>
<event>
12    1  0.1345781E-002  0.2502405E+03  0.7818608E-02  0.1113153E+00
          2   -1    0    0  502    0  0.00000000000E+00  0.00000000000E+00  0.17663494071E+04  0.17663494071E+04  0.00000000000E+00 0. -1.
         -2   -1    0    0    0  501 -0.00000000000E+00 -0.00000000000E+00 -0.38109769575E+02  0.38109769575E+02  0.00000000000E+00 0.  1.
          6    2    1    2  502    0  0.17984026472E+03  0.21342629470E+02  0.62523180683E+03  0.67337877287E+03  0.17241267596E+03 0.  0.
         24    2    3    3    0    0  0.38259008179E+02 -0.92173932856E+01  0.13149918430E+03  0.15881763973E+03  0.79889268177E+02 0.  0.
         -6    2    1    2    0  501 -0.17984026472E+03 -0.21342629470E+02  0.11030078307E+04  0.11310804038E+04  0.17296987210E+03 0.  0.
        -24    2    5    5    0    0 -0.16463625978E+03  0.10952786602E+02  0.59968878145E+03  0.62647529979E+03  0.74964025253E+02 0.  0.
          5    1    3    3  502    0  0.14158125654E+03  0.30560022756E+02  0.49373262252E+03  0.51456113314E+03  0.47000000000E+01 0. -1.
        -13    1    4    4    0    0 -0.16996851182E+01  0.31585757456E+02  0.40617308888E+02  0.51481208075E+02  0.00000000000E+00 0.  1.
         14    1    4    4    0    0  0.39958693298E+02 -0.40803150742E+02  0.90881875416E+02  0.10733643165E+03  0.00000000000E+00 0. -1.
         -5    1    5    5    0  501 -0.15204004944E+02 -0.32295416072E+02  0.50331904928E+03  0.50460510405E+03  0.47000000000E+01 0.  1.
         13    1    6    6    0    0 -0.10250993767E+03  0.25404678122E+02  0.47285890784E+03  0.48450926897E+03  0.00000000000E+00 0. -1.
        -14    1    6    6    0    0 -0.62126322114E+02 -0.14451891520E+02  0.12682987360E+03  0.14196603082E+03  0.00000000000E+00 0.  1.
</event>
<event>
12    1  0.1345781E-002  0.2176835E+03  0.7818608E-02  0.1135622E+00
         -2   -1    0    0    0  501 -0.00000000000E+00  0.00000000000E+00  0.94959787934E+02  0.94959787934E+02  0.00000000000E+00 0.  1.
          2   -1    0    0  502    0  0.00000000000E+00 -0.00000000000E+00 -0.67700843835E+03  0.67700843835E+03  0.00000000000E+00 0. -1.
          6    2    1    2  502    0  0.12428074835E+03  0.45366477168E+02 -0.93225067688E+02  0.23691331047E+03  0.17301208563E+03 0.  0.
         24    2    3    3    0    0  0.10428913514E+03  0.61307107751E+02 -0.12753259354E+03  0.19386839634E+03  0.81765564361E+02 0.  0.
         -6    2    1    2    0  501 -0.12428074835E+03 -0.45366477168E+02 -0.48882358273E+03  0.53505491581E+03  0.17271782259E+03 0.  0.
        -24    2    5    5    0    0 -0.10949853159E+03 -0.80438025958E+02 -0.45897121160E+03  0.48645675197E+03  0.86749028928E+02 0.  0.
          5    1    3    3  502    0  0.19991613210E+02 -0.15940630583E+02  0.34307525857E+02  0.43044914131E+02  0.47000000000E+01 0. -1.
        -11    1    4    4    0    0  0.32212741012E+02 -0.18042059536E+02 -0.19824930252E+02  0.41907093138E+02  0.00000000000E+00 0.  1.
         12    1    4    4    0    0  0.72076394127E+02  0.79349167287E+02 -0.10770766329E+03  0.15196130320E+03  0.00000000000E+00 0. -1.
         -5    1    5    5    0  501 -0.14782216756E+02  0.35071548790E+02 -0.29852371134E+02  0.48598163845E+02  0.47000000000E+01 0.  1.
         11    1    6    6    0    0 -0.73794268962E+02 -0.10326273248E+02 -0.14816666233E+03  0.16584808072E+03  0.00000000000E+00 0. -1.
        -12    1    6    6    0    0 -0.35704262630E+02 -0.70111752710E+02 -0.31080454926E+03  0.32060867125E+03  0.00000000000E+00 0.  1.
</event>
<event>
12    1  0.1345781E-002  0.1890560E+03  0.7818608E-02  0.1159315E+00
         -2   -1    0    0    0  501 -0.00000000000E+00  0.00000000000E+00  0.29278405304E+02  0.29278405304E+02  0.00000000000E+00 0.  1.
          2   -1    0    0  502    0  0.00000000000E+00 -0.00000000000E+00 -0.21935118749E+04  0.21935118749E+04  0.00000000000E+00 0. -1.
          6    2    1    2  502    0 -0.78774380223E+01  0.63476410254E+02 -0.35810050047E+03  0.40728764593E+03  0.18318283054E+03 0.  0.
         24    2    3    3    0    0 -0.20460703745E+02  0.95241453000E+02 -0.34993421753E+03  0.37184565538E+03  0.79534018257E+02 0.  0.
         -6    2    1    2    0  501  0.78774380223E+01 -0.63476410254E+02 -0.18061329692E+04  0.18155026343E+04  0.17274896292E+03 0.  0.
        -24    2    5    5    0    0  0.30001236478E+02 -0.51446101599E+02 -0.53228527517E+03  0.54139736854E+03  0.78972912641E+02 0.  0.
          5    1    3    3  502    0  0.12583265722E+02 -0.31765042746E+02 -0.81662829329E+01  0.35441990546E+02  0.47000000000E+01 0. -1.
        -11    1    4    4    0    0  0.12195644953E+02  0.29862420897E+02 -0.31330588277E+02  0.44967807367E+02  0.00000000000E+00 0.  1.
         12    1    4    4    0    0 -0.32656348697E+02  0.65379032103E+02 -0.31860362926E+03  0.32687784802E+03  0.00000000000E+00 0. -1.
         -5    1    5    5    0  501 -0.22123798456E+02 -0.12030308655E+02 -0.12738476940E+04  0.12741052658E+04  0.47000000000E+01 0.  1.
         11    1    6    6    0    0  0.14449502606E+02  0.79588546294E+01 -0.31958169880E+03  0.32000717758E+03  0.00000000000E+00 0. -1.
        -12    1    6    6    0    0  0.15551733872E+02 -0.59404956228E+02 -0.21270357637E+03  0.22139019096E+03  0.00000000000E+00 0.  1.
</event>
<event>
12    1  0.1345781E-002  0.2082608E+03  0.7818608E-02  0.1142951E+00
          1   -1    0    0  502    0  0.00000000000E+00  0.00000000000E+00  0.36025518755E+02  0.36025518755E+02  0.00000000000E+00 0.  1.
         -1   -1    0    0    0  501 -0.00000000000E+00 -0.00000000000E+00 -0.12039636013E+04  0.12039636013E+04  0.00000000000E+00 0. -1.
          6    2    1    2  502    0  0.32384370394E+02  0.11230699556E+03 -0.58652849409E+03  0.62238169604E+03  0.17228375574E+03 0.  0.
         24    2    3    3    0    0 -0.18045939075E+02  0.13000976066E+03 -0.41799613596E+03  0.44551493901E+03  0.80836856839E+02 0.  0.
         -6    2    1    2    0  501 -0.32384370394E+02 -0.11230699556E+03 -0.58140958842E+03  0.61760742398E+03  0.17245350663E+03 0.  0.
        -24    2    5    5    0    0 -0.10351746352E+02  0.11888835877E+02 -0.25014439743E+03  0.26310952859E+03  0.80036875256E+02 0.  0.
          5    1    3    3  502    0  0.50430309470E+02 -0.17702765091E+02 -0.16853235813E+03  0.17686675703E+03  0.47000000000E+01 0. -1.
        -11    1    4    4    0    0  0.21423202112E+02  0.38992038553E+02 -0.64456095206E+02  0.78319351814E+02  0.00000000000E+00 0.  1.
         12    1    4    4    0    0 -0.39469141187E+02  0.91017722103E+02 -0.35354004075E+03  0.36719558720E+03  0.00000000000E+00 0. -1.
         -5    1    5    5    0  501 -0.22032624043E+02 -0.12419583144E+03 -0.33126519099E+03  0.35449789538E+03  0.47000000000E+01 0.  1.
         11    1    6    6    0    0 -0.44931470002E+02 -0.18338973816E+00 -0.13519152318E+03  0.14246269185E+03  0.00000000000E+00 0. -1.
        -12    1    6    6    0    0  0.34579723651E+02  0.12072225615E+02 -0.11495287425E+03  0.12064683675E+03  0.00000000000E+00 0.  1.
</event>
<event>
12    1  0.1345781E-002  0.2301889E+03  0.7818608E-02  0.1126507E+00
          1   -1    0    0  502    0  0.00000000000E+00  0.00000000000E+00  0.52426428544E+02  0.52426428544E+02  0.00000000000E+00 0.  1.
         -1   -1    0    0    0  501 -0.00000000000E+00 -0.00000000000E+00 -0.10106931795E+04  0.10106931795E+04  0.00000000000E+00 0. -1.
          6    2    1    2  502    0 -0.15193685597E+03  0.20049911931E+02 -0.47804358780E+03  0.53049539847E+03  0.17150186235E+03 0.  0.
         24    2    3    3    0    0 -0.28048789456E+02 -0.26262619572E+02 -0.26230474515E+03  0.27739770621E+03  0.81665465809E+02 0.  0.
         -6    2    1    2    0  501  0.15193685597E+03 -0.20049911931E+02 -0.48022316316E+03  0.53262420958E+03  0.17201004339E+03 0.  0.
        -24    2    5    5    0    0  0.12169524160E+03  0.46315137100E+02 -0.26942926220E+03  0.30952101899E+03  0.79096840087E+02 0.  0.
          5    1    3    3  502    0 -0.12388806651E+03  0.46312531503E+02 -0.21573884265E+03  0.25309769226E+03  0.47000000000E+01 0. -1.
        -13    1    4    4    0    0 -0.18030123177E+02  0.28907741678E+02 -0.92541392491E+02  0.98613651159E+02  0.00000000000E+00 0.  1.
         14    1    4    4    0    0 -0.10018666278E+02 -0.55170361251E+02 -0.16976335266E+03  0.17878405505E+03  0.00000000000E+00 0. -1.
         -5    1    5    5    0  501  0.30241614368E+02 -0.66365049031E+02 -0.21079390096E+03  0.22310319060E+03  0.47000000000E+01 0.  1.
         13    1    6    6    0    0  0.76547566765E+02  0.28077450356E+02 -0.23796965677E+03  0.25155005613E+03  0.00000000000E+00 0. -1.
        -14    1    6    6    0    0  0.45147674832E+02  0.18237686744E+02 -0.31459605433E+02  0.57970962857E+02  0.00000000000E+00 0.  1.
</event>
<event>
12    1  0.1345781E-002  0.2158137E+03  0.7818608E-02  0.1137043E+00
         -1   -1    0    0    0  501 -0.00000000000E+00  0.00000000000E+00  0.37095336953E+02  0.37095336953E+02  0.00000000000E+00 0.  1.
          1   -1    0    0  502    0  0.00000000000E+00 -0.00000000000E+00 -0.12650123519E+04  0.12650123519E+04  0.00000000000E+00 0. -1.
          6    2    1    2  502    0  0.84491832316E+02  0.10760801660E+03 -0.67557858814E+03  0.70982976251E+03  0.16950961043E+03 0.  0.
         24    2    3    3    0    0  0.59493697024E+02  0.12363830696E+03 -0.36845771954E+03  0.40124072365E+03  0.80044339533E+02 0.  0.
         -6    2    1    2    0  501 -0.84491832316E+02 -0.10760801660E+03 -0.55233842679E+03  0.59227792633E+03  0.16430778843E+03 0.  0.
        -24    2    5    5    0    0 -0.10848976824E+03 -0.37227778045E+02 -0.37316802465E+03  0.39823308122E+03  0.78608365270E+02 0.  0.
          5    1    3    3  502    0  0.24998135292E+02 -0.16030290358E+02 -0.30712086859E+03  0.30858903886E+03  0.47000000000E+01 0. -1.
        -11    1    4    4    0    0  0.72407527040E+02  0.65059580721E+02 -0.20021981519E+03  0.22262877939E+03  0.00000000000E+00 0.  1.
         12    1    4    4    0    0 -0.12913830016E+02  0.58578726235E+02 -0.16823790435E+03  0.17861194426E+03  0.00000000000E+00 0. -1.
         -5    1    5    5    0  501  0.23997935920E+02 -0.70380238554E+02 -0.17917040214E+03  0.19404484510E+03  0.47000000000E+01 0.  1.
         13    1    6    6    0    0 -0.19641130800E+02 -0.24237591929E+02 -0.20716636411E+03  0.20950211765E+03  0.00000000000E+00 0. -1.
        -14    1    6    6    0    0 -0.88848637436E+02 -0.12990186117E+02 -0.16600166054E+03  0.18873096358E+03  0.00000000000E+00 0.  1.
</event>
<event>
12    1  0.1345781E-002  0.1893341E+03  0.7818608E-02  0.1159063E+00
         -2   -1    0    0    0  501 -0.00000000000E+00  0.00000000000E+00  0.63376131831E+02  0.63376131831E+02  0.00000000000E+00 0.  1.
          2   -1    0    0  502    0  0.00000000000E+00 -0.00000000000E+00 -0.57017296087E+03  0.57017296087E+03  0.00000000000E+00 0. -1.
          6    2    1    2  502    0  0.26607420553E+02 -0.74587631830E+02 -0.22572488688E+03  0.29490527279E+03  0.17247065175E+03 0.  0.
         24    2    3    3    0    0  0.12136468533E+02  0.24375714061E+02 -0.13790799417E+03  0.16172476023E+03  0.79967580379E+02 0.  0.
         -6    2    1    2    0  501 -0.26607420553E+02  0.74587631830E+02 -0.28107194216E+03  0.33864381990E+03  0.17148449037E+03 0.  0.
        -24    2    5    5    0    0 -0.78674096603E+02  0.66377766301E+02 -0.23458695256E+03  0.26820743083E+03  0.79426483671E+02 0.  0.
          5    1    3    3  502    0  0.14470952019E+02 -0.98963345891E+02 -0.87816892709E+02  0.13318051257E+03  0.47000000000E+01 0. -1.
        -13    1    4    4    0    0 -0.17498736343E+02 -0.22488060196E+02 -0.38484750695E+02  0.47885223828E+02  0.00000000000E+00 0.  1.
         14    1    4    4    0    0  0.29635204876E+02  0.46863774257E+02 -0.99423243471E+02  0.11383953640E+03  0.00000000000E+00 0. -1.
         -5    1    5    5    0  501  0.52066676050E+02  0.82098655287E+01 -0.46484989604E+02  0.70436389072E+02  0.47000000000E+01 0.  1.
         11    1    6    6    0    0 -0.61485110297E+02  0.35637100389E+02 -0.21797309804E+03  0.22926555167E+03  0.00000000000E+00 0. -1.
        -12    1    6    6    0    0 -0.17188986306E+02  0.30740665912E+02 -0.16613854517E+02  0.38941879165E+02  0.00000000000E+00 0.  1.
</event>
<event>
12    1  0.1345781E-002  0.1739795E+03  0.7818608E-02  0.1173760E+00
         -2   -1    0    0    0  501 -0.00000000000E+00  0.00000000000E+00  0.56330593468E+03  0.56330593468E+03  0.00000000000E+00 0.  1.
          2   -1    0    0  502    0  0.00000000000E+00 -0.00000000000E+00 -0.55747855364E+02  0.55747855364E+02  0.00000000000E+00 0. -1.
          6    2    1    2  502    0  0.12590636847E+01 -0.21547173569E+02  0.19523558775E+03  0.26163981474E+03  0.17283689421E+03 0.  0.
         24    2    3    3    0    0 -0.25564525740E+02 -0.18748951978E+02  0.21204090085E+03  0.22951749319E+03  0.81925990188E+02 0.  0.
         -6    2    1    2    0  501 -0.12590636847E+01  0.21547173569E+02  0.31232249157E+03  0.35741397531E+03  0.17243417608E+03 0.  0.
        -24    2    5    5    0    0  0.43335886376E+02  0.37928872571E+02  0.10148334649E+03  0.14123741615E+03  0.79577256071E+02 0.  0.
          5    1    3    3  502    0  0.26823589424E+02 -0.27982215915E+01 -0.16805313095E+02  0.32122321552E+02  0.47000000000E+01 0. -1.
        -11    1    4    4    0    0 -0.40200104096E+02 -0.22762749678E+02  0.20899359263E+03  0.21403857807E+03  0.00000000000E+00 0.  1.
         12    1    4    4    0    0  0.14635578356E+02  0.40137977003E+01  0.30473082230E+01  0.15478915117E+02  0.00000000000E+00 0. -1.
         -5    1    5    5    0  501 -0.44594950061E+02 -0.16381699002E+02  0.21083914508E+03  0.21617655916E+03  0.47000000000E+01 0.  1.
         13    1    6    6    0    0  0.13711928197E+02  0.59804407329E+02  0.61262591271E+02  0.86704608874E+02  0.00000000000E+00 0. -1.
        -14    1    6    6    0    0  0.29623958179E+02 -0.21875534758E+02  0.40220755217E+02  0.54532807276E+02  0.00000000000E+00 0.  1.
</event>
<event>
12    1  0.1345781E-002  0.2170440E+03  0.7818608E-02  0.1136106E+00
          1   -1    0    0  502    0  0.00000000000E+00  0.00000000000E+00  0.78032191618E+02  0.78032191618E+02  0.00000000000E+00 0. -1.
         -1   -1    0    0    0  501 -0.00000000000E+00 -0.00000000000E+00 -0.61145664659E+03  0.61145664659E+03  0.00000000000E+00 0.  1.
          6    2    1    2  502    0  0.86243550841E+02 -0.10231473487E+03 -0.30488615088E+03  0.37394418754E+03  0.17021291186E+03 0.  0.
         24    2    3    3    0    0  0.92500817447E+02 -0.13279492202E+03 -0.28405349672E+03  0.33620449129E+03  0.78461317977E+02 0.  0.
         -6    2    1    2    0  501 -0.86243550841E+02  0.10231473487E+03 -0.22853830409E+03  0.31554465067E+03  0.17155878029E+03 0.  0.
        -24    2    5    5    0    0 -0.79230301126E+01  0.81227497675E+01 -0.35668931013E+02  0.87012554242E+02  0.78550356372E+02 0.  0.
          5    1    3    3  502    0 -0.62572666062E+01  0.30480187149E+02 -0.20832654159E+02  0.37739696254E+02  0.47000000000E+01 0. -1.
        -11    1    4    4    0    0  0.96810382686E+02 -0.77380220360E+02 -0.20539812529E+03  0.23989234788E+03  0.00000000000E+00 0.  1.
         12    1    4    4    0    0 -0.43095652381E+01 -0.55414701659E+02 -0.78655371436E+02  0.96312143410E+02  0.00000000000E+00 0. -1.
         -5    1    5    5    0  501 -0.78320520729E+02  0.94191985102E+02 -0.19286937308E+03  0.22853209643E+03  0.47000000000E+01 0.  1.
         13    1    6    6    0    0  0.24986102378E+02  0.23718315480E+02 -0.37019782224E+02  0.50570031413E+02  0.00000000000E+00 0. -1.
        -14    1    6    6    0    0 -0.32909132490E+02 -0.15595565712E+02  0.13508512114E+01  0.36442522829E+02  0.00000000000E+00 0.  1.
</event>
<event>
12    1  0.1345781E-002  0.2210263E+03  0.7818608E-02  0.1133120E+00
         -1   -1    0    0    0  501 -0.00000000000E+00  0.00000000000E+00  0.64205463717E+03  0.64205463717E+03  0.00000000000E+00 0. -1.
          1   -1    0    0  502    0  0.00000000000E+00 -0.00000000000E+00 -0.12537218433E+03  0.12537218433E+03  0.00000000000E+00 0.  1.
          6    2    1    2  502    0  0.86069873439E+02  0.10540799566E+03  0.49810979953E+03  0.54448770902E+03  0.17272702227E+03 0.  0.
         24    2    3    3    0    0  0.16032498604E+01  0.14234394858E+02  0.10316905070E+03  0.13042549019E+03  0.78496923888E+02 0.  0.
         -6    2    1    2    0  501 -0.86069873439E+02 -0.10540799566E+03  0.18572653304E+02  0.22293911248E+03  0.17560761874E+03 0.  0.
        -24    2    5    5    0    0  0.16711401188E+02 -0.28817563265E+02 -0.16715547661E+02  0.89907417476E+02  0.81818159973E+02 0.  0.
          5    1    3    3  502    0  0.84466623579E+02  0.91173600803E+02  0.39494074883E+03  0.41406221884E+03  0.47000000000E+01 0. -1.
        -13    1    4    4    0    0 -0.12486077488E+02  0.27539013346E+02  0.10654732967E+03  0.11075483216E+03  0.00000000000E+00 0.  1.
         14    1    4    4    0    0  0.14089327348E+02 -0.13304618487E+02 -0.33782789694E+01  0.19670658022E+02  0.00000000000E+00 0. -1.
         -5    1    5    5    0  501 -0.10278127463E+03 -0.76590432397E+02  0.35288200965E+02  0.13303169501E+03  0.47000000000E+01 0.  1.
         13    1    6    6    0    0 -0.22789132462E+02 -0.27660633838E+02  0.15378186900E+02  0.38999280186E+02  0.00000000000E+00 0. -1.
        -14    1    6    6    0    0  0.39500533650E+02 -0.11569294268E+01 -0.32093734561E+02  0.50908137290E+02  0.00000000000E+00 0.  1.
</event>
<event>
12    1  0.1345781E-002  0.1805301E+03  0.7818608E-02  0.1167291E+00
          2   -1    0    0  502    0  0.00000000000E+00  0.00000000000E+00  0.28507982631E+03  0.28507982631E+03  0.00000000000E+00 0. -1.
         -2   -1    0    0    0  501 -0.00000000000E+00 -0.00000000000E+00 -0.11598783567E+03  0.11598783567E+03  0.00000000000E+00 0.  1.
          6    2    1    2  502    0  0.52492046039E+01  0.57939706114E+02  0.59995163327E+02  0.18908685511E+03  0.16961679003E+03 0.  0.
         24    2    3    3    0    0 -0.55448998235E+02  0.57840422009E+02  0.15547656872E+02  0.11370812791E+03  0.79168825269E+02 0.  0.
         -6    2    1    2    0  501 -0.52492046039E+01 -0.57939706114E+02  0.10909682731E+03  0.21198080687E+03  0.17218937557E+03 0.  0.
        -24    2    5    5    0    0 -0.51309030954E+02 -0.30615320130E+02  0.12120350083E+03  0.15687371824E+03  0.79681618815E+02 0.  0.
          5    1    3    3  502    0  0.60698202839E+02  0.99284105129E-01  0.44447506455E+02  0.75378727207E+02  0.47000000000E+01 0. -1.
        -11    1    4    4    0    0  0.69733020328E+01  0.41956157993E+02 -0.11171780781E+02  0.43974479196E+02  0.00000000000E+00 0.  1.
         12    1    4    4    0    0 -0.62422300268E+02  0.15884264016E+02  0.26719437653E+02  0.69733648711E+02  0.00000000000E+00 0. -1.
         -5    1    5    5    0  501  0.46059826350E+02 -0.27324385983E+02 -0.12106673526E+02  0.55107088624E+02  0.47000000000E+01 0.  1.
         11    1    6    6    0    0 -0.16311381709E+02 -0.29184384606E+02  0.11689576461E+03  0.12158293162E+03  0.00000000000E+00 0. -1.
        -12    1    6    6    0    0 -0.34997649246E+02 -0.14309355246E+01  0.43077362275E+01  0.35290786625E+02  0.00000000000E+00 0.  1.
</event>
<event>
12    1  0.1345781E-002  0.2096809E+03  0.7818608E-02  0.1141819E+00
         -2   -1    0    0    0  501 -0.00000000000E+00  0.00000000000E+00  0.88020925147E+02  0.88020925147E+02  0.00000000000E+00 0.  1.
          2   -1    0    0  502    0  0.00000000000E+00 -0.00000000000E+00 -0.10186109609E+04  0.10186109609E+04  0.00000000000E+00 0. -1.
          6    2    1    2  502    0 -0.10782240939E+03  0.49994446205E+02 -0.85948059260E+03  0.88451133743E+03  0.17183800616E+03 0.  0.
         24    2    3    3    0    0 -0.96315751475E+02  0.97948225675E+02 -0.65590213351E+03  0.67499225203E+03  0.80847712746E+02 0.  0.
         -6    2    1    2    0  501  0.10782240939E+03 -0.49994446205E+02 -0.71109443162E+02  0.22212054863E+03  0.17365445171E+03 0.  0.
        -24    2    5    5    0    0  0.34833434336E+02 -0.79684422801E+02 -0.45115665284E+01  0.11884299850E+03  0.80872298560E+02 0.  0.
          5    1    3    3  502    0 -0.11506657913E+02 -0.47953779469E+02 -0.20357845908E+03  0.20951908540E+03  0.47000000000E+01 0. -1.
        -13    1    4    4    0    0 -0.38123972295E+02  0.13663639225E+02 -0.76021264894E+02  0.86135736002E+02  0.00000000000E+00 0.  1.
         14    1    4    4    0    0 -0.58191779181E+02  0.84284586449E+02 -0.57988086862E+03  0.58885651603E+03  0.00000000000E+00 0. -1.
         -5    1    5    5    0  501  0.72988975052E+02  0.29689976595E+02 -0.66597876634E+02  0.10327755013E+03  0.47000000000E+01 0.  1.
         11    1    6    6    0    0  0.54641785490E+02 -0.82250081365E+02 -0.26360630509E+01  0.98781321284E+02  0.00000000000E+00 0. -1.
        -12    1    6    6    0    0 -0.19808351154E+02  0.25656585647E+01 -0.18755034775E+01  0.20061677213E+02  0.00000000000E+00 0.  1.
</event>
<event>
12    1  0.1345781E-002  0.2153390E+03  0.7818608E-02  0.1137406E+00
          2   -1    0    0  502    0  0.00000000000E+00  0.00000000000E+00  0.21411573180E+03  0.21411573180E+03  0.00000000000E+00 0. -1.
         -2   -1    0    0    0  501 -0.00000000000E+00 -0.00000000000E+00 -0.21672762552E+03  0.21672762552E+03  0.00000000000E+00 0.  1.
          6    2    1    2  502    0 -0.12254433556E+03 -0.40184065520E+02  0.44408080013E+01  0.21441025632E+03  0.17123131706E+03 0.  0.
         24    2    3    3    0    0 -0.92900695730E+02 -0.92359892537E+02 -0.45666225341E+01  0.15354740959E+03  0.79969143641E+02 0.  0.
         -6    2    1    2    0  501  0.12254433556E+03  0.40184065520E+02 -0.70527017276E+01  0.21643310100E+03  0.17367116429E+03 0.  0.
        -24    2    5    5    0    0  0.48260728394E+02  0.47140292832E+02 -0.63739139379E+02  0.12261473603E+03  0.80127339209E+02 0.  0.
          5    1    3    3  502    0 -0.29643639829E+02  0.52175827018E+02  0.90074305354E+01  0.60862846730E+02  0.47000000000E+01 0. -1.
        -13    1    4    4    0    0  0.10660490775E+02 -0.27519109530E+02 -0.10220182045E+02  0.31231387640E+02  0.00000000000E+00 0.  1.
         14    1    4    4    0    0 -0.10356118651E+03 -0.64840783007E+02  0.56535595107E+01  0.12231602195E+03  0.00000000000E+00 0. -1.
         -5    1    5    5    0  501  0.74283607165E+02 -0.69562273122E+01  0.56686437651E+02  0.93818364969E+02  0.47000000000E+01 0.  1.
         11    1    6    6    0    0 -0.12336913848E+01 -0.20091709215E+02 -0.56469756759E+01  0.20906628325E+02  0.00000000000E+00 0. -1.
        -12    1    6    6    0    0  0.49494419779E+02  0.67232002048E+02 -0.58092163703E+02  0.10170810770E+03  0.00000000000E+00 0.  1.
</event>
<event>
12    1  0.1345781E-002  0.2043940E+03  0.7818608E-02  0.1146084E+00
         -1   -1    0    0    0  501 -0.00000000000E+00  0.00000000000E+00  0.35649530122E+02  0.35649530122E+02  0.00000000000E+00 0.  1.
          1   -1    0    0  502    0  0.00000000000E+00 -0.00000000000E+00 -0.17784658316E+04  0.17784658316E+04  0.00000000000E+00 0. -1.
          6    2    1    2  502    0  0.50447887159E+01 -0.10973815746E+03 -0.34328442922E+03  0.39981932447E+03  0.17304155506E+03 0.  0.
         24    2    3    3    0    0 -0.40901589049E+02 -0.11386629724E+03 -0.31375857054E+03  0.34484680862E+03  0.76396382086E+02 0.  0.
         -6    2    1    2    0  501 -0.50447887159E+01  0.10973815746E+03 -0.13995318723E+04  0.14142960373E+04  0.17168548695E+03 0.  0.
        -24    2    5    5    0    0 -0.39524626610E+02  0.71065518986E+00 -0.68511192200E+03  0.69076731578E+03  0.78857071602E+02 0.  0.
          5    1    3    3  502    0  0.45946377765E+02  0.41281397733E+01 -0.29525858679E+02  0.54972515846E+02  0.47000000000E+01 0. -1.
        -11    1    4    4    0    0  0.21401392401E+01 -0.89156308093E+02 -0.15872950995E+03  0.18206725351E+03  0.00000000000E+00 0.  1.
         12    1    4    4    0    0 -0.43041728289E+02 -0.24709989145E+02 -0.15502906059E+03  0.16277955512E+03  0.00000000000E+00 0. -1.
         -5    1    5    5    0  501  0.34479837894E+02  0.10902750227E+03 -0.71441995027E+03  0.72352872149E+03  0.47000000000E+01 0.  1.
         13    1    6    6    0    0  0.62131330867E+01  0.17726134130E+00 -0.50167609187E+03  0.50171459576E+03  0.00000000000E+00 0. -1.
        -14    1    6    6    0    0 -0.45737759696E+02  0.53339384856E+00 -0.18343583014E+03  0.18905272003E+03  0.00000000000E+00 0.  1.
</event>
<event>
12    1  0.1345781E-002  0.2524743E+03  0.7818608E-02  0.1111751E+00
         -2   -1    0    0    0  501 -0.00000000000E+00  0.00000000000E+00  0.68117238593E+03  0.68117238593E+03  0.00000000000E+00 0.  1.
          2   -1    0    0  502    0  0.00000000000E+00 -0.00000000000E+00 -0.93975953421E+02  0.93975953421E+02  0.00000000000E+00 0. -1.
          6    2    1    2  502    0  0.86877415015E+02  0.16360229760E+03  0.26799303038E+03  0.36794371911E+03  0.17102315364E+03 0.  0.
         24    2    3    3    0    0 -0.15614512966E+02  0.95713516322E+02  0.16365959787E+03  0.20663334417E+03  0.80672081449E+02 0.  0.
         -6    2    1    2    0  501 -0.86877415015E+02 -0.16360229760E+03  0.31920340214E+03  0.40720462025E+03  0.17207961470E+03 0.  0.
        -24    2    5    5    0    0 -0.57350373136E+02 -0.49786772009E+02  0.30038615109E+02  0.95012076895E+02  0.48550884568E+02 0.  0.
          5    1    3    3  502    0  0.10249192798E+03  0.67888781278E+02  0.10433343250E+03  0.16131037494E+03  0.47000000000E+01 0. -1.
        -13    1    4    4    0    0 -0.78577111841E+01  0.40664054908E+02  0.14038110810E+03  0.14636312547E+03  0.00000000000E+00 0.  1.
         14    1    4    4    0    0 -0.77568017822E+01  0.55049461414E+02  0.23278489774E+02  0.60270218699E+02  0.00000000000E+00 0. -1.
         -5    1    5    5    0  501 -0.29527041879E+02 -0.11381552559E+03  0.28916478703E+03  0.31219254335E+03  0.47000000000E+01 0.  1.
         11    1    6    6    0    0 -0.16635723055E+02 -0.27297144336E+02  0.35970444059E+02  0.48122283989E+02  0.00000000000E+00 0. -1.
        -12    1    6    6    0    0 -0.40714650081E+02 -0.22489627673E+02 -0.59318289502E+01  0.46889792906E+02  0.00000000000E+00 0.  1.
</event>
<event>
12    1  0.1345781E-002  0.1772798E+03  0.7818608E-02  0.1170462E+00
         -1   -1    0    0    0  501 -0.00000000000E+00  0.00000000000E+00  0.13628221099E+03  0.13628221099E+03  0.00000000000E+00 0. -1.
          1   -1    0    0  502    0  0.00000000000E+00 -0.00000000000E+00 -0.23098700163E+03  0.23098700163E+03  0.00000000000E+00 0.  1.
          6    2    1    2  502    0 -0.62026855990E+02 -0.20819922564E+02 -0.51024483479E+02  0.19128904817E+03  0.17235777324E+03 0.  0.
         24    2    3    3    0    0  0.23858892675E+02 -0.28927295503E+02  0.71746033597E+01  0.87119402740E+02  0.78308876991E+02 0.  0.
         -6    2    1    2    0  501  0.62026855990E+02  0.20819922564E+02 -0.43680307160E+02  0.17598016446E+03  0.15741743553E+03 0.  0.
        -24    2    5    5    0    0  0.94886898700E+01  0.54007747627E+02  0.66258958061E+00  0.99494393735E+02  0.83017006213E+02 0.  0.
          5    1    3    3  502    0 -0.85885748665E+02  0.81073729388E+01 -0.58199086839E+02  0.10416964543E+03  0.47000000000E+01 0. -1.
        -11    1    4    4    0    0 -0.19334698208E+01 -0.52062579593E+02  0.25114992319E+01  0.52158969774E+02  0.00000000000E+00 0.  1.
         12    1    4    4    0    0  0.25792362496E+02  0.23135284091E+02  0.46631041278E+01  0.34960432966E+02  0.00000000000E+00 0. -1.
         -5    1    5    5    0  501  0.52538166120E+02 -0.33187825063E+02 -0.44342896741E+02  0.76485770723E+02  0.47000000000E+01 0.  1.
         13    1    6    6    0    0  0.32463397102E+02 -0.51482209106E+01 -0.11607299825E+02  0.34858366846E+02  0.00000000000E+00 0. -1.
        -14    1    6    6    0    0 -0.22974707232E+02  0.59155968538E+02  0.12269889406E+02  0.64636026889E+02  0.00000000000E+00 0.  1.
</event>
<event>
12    1  0.1345781E-002  0.2053589E+03  0.7818608E-02  0.1145295E+00
          3   -1    0    0  502    0  0.00000000000E+00  0.00000000000E+00  0.31961877337E+03  0.31961877337E+03  0.00000000000E+00 0.  1.
         -3   -1    0    0    0  501 -0.00000000000E+00 -0.00000000000E+00 -0.15825039360E+03  0.15825039360E+03  0.00000000000E+00 0. -1.
          6    2    1    2  502    0  0.57556987559E+02 -0.96615987984E+02  0.17824162341E+03  0.27225592626E+03  0.17235358168E+03 0.  0.
         24    2    3    3    0    0  0.23285866347E+02 -0.12075958111E+03  0.78592732326E+02  0.16404587898E+03  0.74894090783E+02 0.  0.
         -6    2    1    2    0  501 -0.57556987559E+02  0.96615987984E+02 -0.16873243642E+02  0.20561324070E+03  0.17130278004E+03 0.  0.
        -24    2    5    5    0    0 -0.44968288191E+02  0.28866984811E+02 -0.68779527361E+02  0.11921442663E+03  0.81400284882E+02 0.  0.
          5    1    3    3  502    0  0.34271121213E+02  0.24143593124E+02  0.99648891088E+02  0.10821004728E+03  0.47000000000E+01 0. -1.
        -11    1    4    4    0    0  0.13332507919E+02 -0.96795323962E+01  0.44459827572E+02  0.47414400582E+02  0.00000000000E+00 0.  1.
         12    1    4    4    0    0  0.99533584280E+01 -0.11108004871E+03  0.34132904753E+02  0.11663147840E+03  0.00000000000E+00 0. -1.
         -5    1    5    5    0  501 -0.12588699369E+02  0.67749003173E+02  0.51906283718E+02  0.86398814067E+02  0.47000000000E+01 0.  1.
         13    1    6    6    0    0 -0.21539619731E+02  0.54364122232E+02 -0.59370251263E+02  0.83332105093E+02  0.00000000000E+00 0. -1.
        -14    1    6    6    0    0 -0.23428668460E+02 -0.25497137421E+02 -0.94092760981E+01  0.35882321541E+02  0.00000000000E+00 0.  1.
</event>
<event>
12    1  0.1345781E-002  0.1944581E+03  0.7818608E-02  0.1154501E+00
         -2   -1    0    0    0  501 -0.00000000000E+00  0.00000000000E+00  0.39916998896E+03  0.39916998896E+03  0.00000000000E+00 0.  1.
          2   -1    0    0  502    0  0.00000000000E+00 -0.00000000000E+00 -0.33690938296E+03  0.33690938296E+03  0.00000000000E+00 0. -1.
          6    2    1    2  502    0 -0.17525125212E+02 -0.85252030759E+02  0.34320617371E+03  0.39492629484E+03  0.17493216377E+03 0.  0.
         24    2    3    3    0    0 -0.45822939025E+02 -0.11327577274E+03  0.31516557963E+03  0.34599306178E+03  0.73828949494E+02 0.  0.
         -6    2    1    2    0  501  0.17525125212E+02  0.85252030759E+02 -0.28094556771E+03  0.34115307708E+03  0.17285824026E+03 0.  0.
        -24    2    5    5    0    0 -0.41502446192E+02  0.98329465291E+02 -0.18376274115E+03  0.22660236666E+03  0.78668613546E+02 0.  0.
          5    1    3    3  502    0  0.28297813813E+02  0.28023741984E+02  0.28040594077E+02  0.48933233058E+02  0.47000000000E+01 0. -1.
        -11    1    4    4    0    0 -0.69604984869E+01 -0.77137427343E+01  0.12214662084E+03  0.12258771288E+03  0.00000000000E+00 0.  1.
         12    1    4    4    0    0 -0.38862440538E+02 -0.10556203001E+03  0.19301895879E+03  0.22340534890E+03  0.00000000000E+00 0. -1.
         -5    1    5    5    0  501  0.59027571404E+02 -0.13077434532E+02 -0.97182826555E+02  0.11455071042E+03  0.47000000000E+01 0.  1.
         11    1    6    6    0    0 -0.17666240871E+02  0.96800104748E+02 -0.10328075306E+03  0.14265086855E+03  0.00000000000E+00 0. -1.
        -12    1    6    6    0    0 -0.23836205321E+02  0.15293605433E+01 -0.80481988098E+02  0.83951498116E+02  0.00000000000E+00 0.  1.
</event>
<event>
12    1  0.1345781E-002  0.2331842E+03  0.7818608E-02  0.1124418E+00
         -2   -1    0    0    0  501 -0.00000000000E+00  0.00000000000E+00  0.46064984091E+02  0.46064984091E+02  0.00000000000E+00 0.  1.
          2   -1    0    0  502    0  0.00000000000E+00 -0.00000000000E+00 -0.12993870211E+04  0.12993870211E+04  0.00000000000E+00 0. -1.
          6    2    1    2  502    0 -0.15223839949E+03  0.40081576855E+02 -0.82986489806E+03  0.86196261931E+03  0.17181602070E+03 0.  0.
         24    2    3    3    0    0 -0.17615593587E+03  0.43148919706E+02 -0.79469104322E+03  0.81905868938E+03  0.80190644515E+02 0.  0.
         -6    2    1    2    0  501  0.15223839949E+03 -0.40081576855E+02 -0.42345713891E+03  0.48348938585E+03  0.17222942445E+03 0.  0.
        -24    2    5    5    0    0  0.15921778368E+03 -0.44966712814E+02 -0.43259670083E+03  0.47014030539E+03  0.80744617640E+02 0.  0.
          5    1    3    3  502    0  0.23917536379E+02 -0.30673428505E+01 -0.35173854845E+02  0.42903929928E+02  0.47000000000E+01 0. -1.
        -11    1    4    4    0    0 -0.96422939837E+02  0.51300876467E+01 -0.26480891496E+03  0.28186426266E+03  0.00000000000E+00 0.  1.
         12    1    4    4    0    0 -0.79732996035E+02  0.38018832059E+02 -0.52988212826E+03  0.53719442672E+03  0.00000000000E+00 0. -1.
         -5    1    5    5    0  501 -0.69793841889E+01  0.48851359584E+01  0.91395619199E+01  0.13349080458E+02  0.47000000000E+01 0.  1.
         13    1    6    6    0    0  0.21516647931E+02 -0.23554663886E+02 -0.16888727925E+03  0.17187408595E+03  0.00000000000E+00 0. -1.
        -14    1    6    6    0    0  0.13770113575E+03 -0.21412048927E+02 -0.26370942158E+03  0.29826621944E+03  0.00000000000E+00 0.  1.
</event>
<event>
12    1  0.1345781E-002  0.2259075E+03  0.7818608E-02  0.1129554E+00
         -1   -1    0    0    0  501 -0.00000000000E+00  0.00000000000E+00  0.20846872106E+02  0.20846872106E+02  0.00000000000E+00 0.  1.
          1   -1    0    0  502    0  0.00000000000E+00 -0.00000000000E+00 -0.24590579404E+04  0.24590579404E+04  0.00000000000E+00 0. -1.
          6    2    1    2  502    0  0.14684247173E+03 -0.39986272229E+02 -0.13188673390E+04  0.13386859539E+04  0.17177721617E+03 0.  0.
         24    2    3    3    0    0  0.45374217321E+02  0.18359075395E+02 -0.86346656761E+03  0.86846054118E+03  0.79077955005E+02 0.  0.
         -6    2    1    2    0  501 -0.14684247173E+03  0.39986272229E+02 -0.11193437294E+04  0.11412188586E+04  0.16213724221E+03 0.  0.
        -24    2    5    5    0    0 -0.16537421930E+03  0.16506790366E+02 -0.10411919001E+04  0.10574065078E+04  0.80042759166E+02 0.  0.
          5    1    3    3  502    0  0.10146825441E+03 -0.58345347624E+02 -0.45540077136E+03  0.47022541275E+03  0.47000000000E+01 0. -1.
        -13    1    4    4    0    0  0.52018089528E+01  0.35284939624E+01 -0.30634024313E+01  0.69923901836E+01  0.00000000000E+00 0.  1.
         14    1    4    4    0    0  0.40172408368E+02  0.14830581432E+02 -0.86040316517E+03  0.86146815100E+03  0.00000000000E+00 0. -1.
         -5    1    5    5    0  501  0.18531747569E+02  0.23479481863E+02 -0.78151829232E+02  0.83812350814E+02  0.47000000000E+01 0.  1.
         13    1    6    6    0    0 -0.30863166604E+02  0.33878402376E+02 -0.35438608618E+03  0.35733706675E+03  0.00000000000E+00 0. -1.
        -14    1    6    6    0    0 -0.13451105269E+03 -0.17371612009E+02 -0.68680581397E+03  0.70006944106E+03  0.00000000000E+00 0.  1.
</event>
<event>
12    1  0.1345781E-002  0.2091710E+03  0.7818608E-02  0.1142224E+00
         -2   -1    0    0    0  501 -0.00000000000E+00  0.00000000000E+00  0.37029055303E+02  0.37029055303E+02  0.00000000000E+00 0. -1.
          2   -1    0    0  502    0  0.00000000000E+00 -0.00000000000E+00 -0.12932213473E+04  0.12932213473E+04  0.00000000000E+00 0.  1.
          6    2    1    2  502    0 -0.51395059045E+02  0.10458014271E+03 -0.43185328780E+03  0.47971431725E+03  0.17334966297E+03 0.  0.
         24    2    3    3    0    0 -0.21207502961E+01  0.12668188854E+03 -0.26729187777E+03  0.30645441900E+03  0.80103461468E+02 0.  0.
         -6    2    1    2    0  501  0.51395059045E+02 -0.10458014271E+03 -0.82433900421E+03  0.85053608536E+03  0.17406429932E+03 0.  0.
        -24    2    5    5    0    0  0.26087257665E+02 -0.83052458140E+02 -0.26769496616E+03  0.29288153180E+03  0.80874847422E+02 0.  0.
          5    1    3    3  502    0 -0.49274308748E+02 -0.22101745823E+02 -0.16456141003E+03  0.17325989825E+03  0.47000000000E+01 0. -1.
        -13    1    4    4    0    0 -0.59386472118E+01  0.36766648650E+02 -0.16954319870E+03  0.17358557028E+03  0.00000000000E+00 0.  1.
         14    1    4    4    0    0  0.38178969157E+01  0.89915239887E+02 -0.97748679061E+02  0.13286884872E+03  0.00000000000E+00 0. -1.
         -5    1    5    5    0  501  0.25307801379E+02 -0.21527684574E+02 -0.55664403805E+03  0.55765455357E+03  0.47000000000E+01 0.  1.
         11    1    6    6    0    0  0.16287978211E+02 -0.75915054303E+02 -0.26964663107E+03  0.28060238658E+03  0.00000000000E+00 0. -1.
        -12    1    6    6    0    0  0.97992794547E+01 -0.71374038364E+01  0.19516649153E+01  0.12279145218E+02  0.00000000000E+00 0.  1.
</event>
<event>
12    1  0.1345781E-002  0.1860455E+03  0.7818608E-02  0.1162077E+00
          2   -1    0    0  502    0  0.00000000000E+00  0.00000000000E+00  0.95892029656E+03  0.95892029656E+03  0.00000000000E+00 0. -1.
         -2   -1    0    0    0  501 -0.00000000000E+00 -0.00000000000E+00 -0.90100547046E+02  0.90100547046E+02  0.00000000000E+00 0.  1.
          6    2    1    2  502    0 -0.29967980240E+01 -0.71315265953E+02  0.84038928942E+03  0.86071420960E+03  0.17169724774E+03 0.  0.
         24    2    3    3    0    0 -0.17729192263E+02 -0.11149288581E+03  0.54258734452E+03  0.55981659751E+03  0.79048140809E+02 0.  0.
         -6    2    1    2    0  501  0.29967980240E+01  0.71315265953E+02  0.28430460098E+02  0.18830663401E+03  0.17191931071E+03 0.  0.
        -24    2    5    5    0    0 -0.15357318831E+02  0.34421305005E+02  0.81705064688E+02  0.12079136570E+03  0.80586369523E+02 0.  0.
          5    1    3    3  502    0  0.14732394239E+02  0.40177619861E+02  0.29780194489E+03  0.30089761209E+03  0.47000000000E+01 0. -1.
        -13    1    4    4    0    0  0.23267844362E+02 -0.47225497786E+02  0.13016825350E+03  0.14041158941E+03  0.00000000000E+00 0.  1.
         14    1    4    4    0    0 -0.40997036625E+02 -0.64267388029E+02  0.41241909102E+03  0.41940500810E+03  0.00000000000E+00 0. -1.
         -5    1    5    5    0  501  0.18354116855E+02  0.36893960948E+02 -0.53274604590E+02  0.67515268305E+02  0.47000000000E+01 0.  1.
         13    1    6    6    0    0  0.18260642081E+02  0.46332941984E+02  0.63644304138E+02  0.80813303431E+02  0.00000000000E+00 0. -1.
        -14    1    6    6    0    0 -0.33617960912E+02 -0.11911636979E+02  0.18060760550E+02  0.39978062273E+02  0.00000000000E+00 0.  1.
</event>
<event>
12    1  0.1345781E-002  0.1802290E+03  0.7818608E-02  0.1167582E+00
          1   -1    0    0  502    0  0.00000000000E+00  0.00000000000E+00  0.24705840509E+04  0.24705840509E+04  0.00000000000E+00 0. -1.
         -1   -1    0    0    0  501 -0.00000000000E+00 -0.00000000000E+00 -0.21410186789E+02  0.21410186789E+02  0.00000000000E+00 0.  1.
          6    2    1    2  502    0 -0.22177807450E+02 -0.56352152250E+02  0.20002412612E+04  0.20083794092E+04  0.17016265106E+03 0.  0.
         24    2    3    3    0    0 -0.50602083313E+02 -0.15356587510E+02  0.63743304704E+03  0.64465036920E+03  0.80354299382E+02 0.  0.
         -6    2    1    2    0  501  0.22177807450E+02  0.56352152250E+02  0.44893260288E+03  0.48361482853E+03  0.16933812398E+03 0.  0.
        -24    2    5    5    0    0 -0.81648891667E+01  0.97304012570E+02  0.27263505113E+03  0.30003745831E+03  0.78472090629E+02 0.  0.
          5    1    3    3  502    0  0.28424275863E+02 -0.40995564741E+02  0.13628082142E+04  0.13637290400E+04  0.47000000000E+01 0. -1.
        -13    1    4    4    0    0  0.15566779156E+02  0.11215359771E+02  0.64378141259E+02  0.67176290312E+02  0.00000000000E+00 0.  1.
         14    1    4    4    0    0 -0.66168862469E+02 -0.26571947280E+02  0.57305490578E+03  0.57747407888E+03  0.00000000000E+00 0. -1.
         -5    1    5    5    0  501  0.30342696617E+02 -0.40951860319E+02  0.17629755175E+03  0.18357737022E+03  0.47000000000E+01 0.  1.
         11    1    6    6    0    0 -0.18210132646E+02  0.70736399089E+02  0.25789084407E+03  0.26803532331E+03  0.00000000000E+00 0. -1.
        -12    1    6    6    0    0  0.10045243479E+02  0.26567613481E+02  0.14744207056E+02  0.32002134997E+02  0.00000000000E+00 0.  1.
</event>
<event>
12    1  0.1345781E-002  0.2592654E+03  0.7818608E-02  0.1107585E+00
          2   -1    0    0  502    0  0.00000000000E+00  0.00000000000E+00  0.82400459933E+03  0.82400459933E+03  0.00000000000E+00 0. -1.
         -2   -1    0    0    0  501 -0.00000000000E+00 -0.00000000000E+00 -0.82067881244E+02  0.82067881244E+02  0.00000000000E+00 0.  1.
          6    2    1    2  502    0  0.70287893052E+02  0.18019084694E+03  0.33548012456E+03  0.42381650423E+03  0.17223352186E+03 0.  0.
         24    2    3    3    0    0  0.16612803596E+02  0.53357780862E+02  0.23074207345E+03  0.25072753511E+03  0.80618573431E+02 0.  0.
         -6    2    1    2    0  501 -0.70287893052E+02 -0.18019084694E+03  0.40645659353E+03  0.48225597634E+03  0.17307436282E+03 0.  0.
        -24    2    5    5    0    0 -0.11232379898E+03 -0.13051572541E+03  0.26038826697E+03  0.32227884952E+03  0.80066327947E+02 0.  0.
          5    1    3    3  502    0  0.53675089456E+02  0.12683306608E+03  0.10473805111E+03  0.17308896912E+03  0.47000000000E+01 0. -1.
        -13    1    4    4    0    0  0.18048594071E+02  0.38748179003E+02  0.37306649580E+02  0.56735872487E+02  0.00000000000E+00 0.  1.
         14    1    4    4    0    0 -0.14357904750E+01  0.14609601860E+02  0.19343542387E+03  0.19399166263E+03  0.00000000000E+00 0. -1.
         -5    1    5    5    0  501  0.42035905925E+02 -0.49675121534E+02  0.14606832655E+03  0.15997712683E+03  0.47000000000E+01 0.  1.
         13    1    6    6    0    0 -0.20373918769E+02 -0.57286789810E+02  0.14646838159E+03  0.15858707280E+03  0.00000000000E+00 0. -1.
        -14    1    6    6    0    0 -0.91949880207E+02 -0.73228935601E+02  0.11391988539E+03  0.16369177672E+03  0.00000000000E+00 0.  1.
</event>
<event>
12    1  0.1345781E-002  0.1845493E+03  0.7818608E-02  0.1163471E+00
          1   -1    0    0  502    0  0.00000000000E+00  0.00000000000E+00  0.36348083037E+02  0.36348083037E+02  0.00000000000E+00 0. -1.
         -1   -1    0    0    0  501 -0.00000000000E+00 -0.00000000000E+00 -0.94110525396E+03  0.94110525396E+03  0.00000000000E+00 0.  1.
          6    2    1    2  502    0  0.43644106252E+02  0.52954167715E+02 -0.42046594311E+03  0.45923897792E+03  0.17146392517E+03 0.  0.
         24    2    3    3    0    0 -0.28999535207E+02  0.68455383805E+02 -0.21809527100E+03  0.24361577584E+03  0.79094793699E+02 0.  0.
         -6    2    1    2    0  501 -0.43644106252E+02 -0.52954167715E+02 -0.48429122781E+03  0.51821435908E+03  0.17117002288E+03 0.  0.
        -24    2    5    5    0    0 -0.28056617843E+01 -0.48532037329E+02 -0.12052660034E+03  0.15210764242E+03  0.79036973040E+02 0.  0.
          5    1    3    3  502    0  0.72643641459E+02 -0.15501216090E+02 -0.20237067210E+03  0.21562320207E+03  0.47000000000E+01 0. -1.
        -13    1    4    4    0    0 -0.20321389306E+02  0.28443206743E+02 -0.19179316989E+03  0.19495280170E+03  0.00000000000E+00 0.  1.
         14    1    4    4    0    0 -0.86781459012E+01  0.40012177062E+02 -0.26302101114E+02  0.48662974144E+02  0.00000000000E+00 0. -1.
         -5    1    5    5    0  501 -0.40838444468E+02 -0.44221303856E+01 -0.36376462747E+03  0.36610671666E+03  0.47000000000E+01 0.  1.
         11    1    6    6    0    0  0.19593445802E+02 -0.38564772675E+02 -0.12002928058E+03  0.12758594361E+03  0.00000000000E+00 0. -1.
        -12    1    6    6    0    0 -0.22399107586E+02 -0.99672646546E+01 -0.49731975385E+00  0.24521698805E+02  0.00000000000E+00 0.  1.
</event>
<event>
12    1  0.1345781E-002  0.1869839E+03  0.7818608E-02  0.1161210E+00
         -1   -1    0    0    0  501 -0.00000000000E+00  0.00000000000E+00  0.16403136729E+03  0.16403136729E+03  0.00000000000E+00 0. -1.
          1   -1    0    0  502    0  0.00000000000E+00 -0.00000000000E+00 -0.23816095839E+03  0.23816095839E+03  0.00000000000E+00 0.  1.
          6    2    1    2  502    0 -0.66324434368E+02 -0.30120715010E+02  0.28178125430E+02  0.18868236101E+03  0.17175808143E+03 0.  0.
         24    2    3    3    0    0  0.95454992190E+01 -0.49564426434E+02  0.50610758611E+02  0.10707587985E+03  0.79724815677E+02 0.  0.
         -6    2    1    2    0  501  0.66324434368E+02  0.30120715010E+02 -0.10230771653E+03  0.21350996467E+03  0.17266571196E+03 0.  0.
        -24    2    5    5    0    0  0.20966648126E+02 -0.48353654302E+02 -0.45255717762E+02  0.10630653201E+03  0.80469388834E+02 0.  0.
          5    1    3    3  502    0 -0.75869933587E+02  0.19443711424E+02 -0.22432633181E+02  0.81606481163E+02  0.47000000000E+01 0. -1.
        -13    1    4    4    0    0 -0.24480918361E+01 -0.44937365781E+02 -0.91698474915E+01  0.45928706709E+02  0.00000000000E+00 0.  1.
         14    1    4    4    0    0  0.11993591055E+02 -0.46270606527E+01  0.59780606103E+02  0.61147173137E+02  0.00000000000E+00 0. -1.
         -5    1    5    5    0  501  0.45357786242E+02  0.78474369312E+02 -0.57051998769E+02  0.10720343267E+03  0.47000000000E+01 0.  1.
         11    1    6    6    0    0  0.12552735161E+02 -0.22314208060E+02  0.21962194971E+02  0.33731780998E+02  0.00000000000E+00 0. -1.
        -12    1    6    6    0    0  0.84139129644E+01 -0.26039446242E+02 -0.67217912732E+02  0.72574751009E+02  0.00000000000E+00 0.  1.
</event>
<event>
12    1  0.1345781E-002  0.1969412E+03  0.7818608E-02  0.1152346E+00
         -1   -1    0    0    0  501 -0.00000000000E+00  0.00000000000E+00  0.44885093166E+03  0.44885093166E+03  0.00000000000E+00 0.  1.
          1   -1    0    0  502    0  0.00000000000E+00 -0.00000000000E+00 -0.10762639386E+03  0.10762639386E+03  0.00000000000E+00 0. -1.
          6    2    1    2  502    0  0.98989292963E+02  0.31845872041E+02  0.49818179372E+02  0.20684293972E+03  0.17172393843E+03 0.  0.
         24    2    3    3    0    0 -0.12120189748E+02  0.54043248630E+02  0.39346009674E+02  0.92957923091E+02  0.63446790825E+02 0.  0.
         -6    2    1    2    0  501 -0.98989292963E+02 -0.31845872041E+02  0.29140635843E+03  0.34963438580E+03  0.16282966040E+03 0.  0.
        -24    2    5    5    0    0 -0.11345811114E+01 -0.11888137178E+02  0.19100757031E+03  0.20794506909E+03  0.81330466384E+02 0.  0.
          5    1    3    3  502    0  0.11110948271E+03 -0.22197376589E+02  0.10472169698E+02  0.11388501663E+03  0.47000000000E+01 0. -1.
        -11    1    4    4    0    0 -0.16183343857E+02  0.35062595809E+02 -0.10034319612E+02  0.39899546530E+02  0.00000000000E+00 0.  1.
         12    1    4    4    0    0  0.40631541097E+01  0.18980652821E+02  0.49380329286E+02  0.53058376560E+02  0.00000000000E+00 0. -1.
         -5    1    5    5    0  501 -0.97854711851E+02 -0.19957734863E+02  0.10039878812E+03  0.14168931671E+03  0.47000000000E+01 0.  1.
         11    1    6    6    0    0  0.37729727289E+01 -0.23997003971E+02  0.96832918942E+01  0.26150672357E+02  0.00000000000E+00 0. -1.
        -12    1    6    6    0    0 -0.49075538403E+01  0.12108866793E+02  0.18132427842E+03  0.18179439673E+03  0.00000000000E+00 0.  1.
</event>
<event>
12    1  0.1345781E-002  0.1899292E+03  0.7818608E-02  0.1158525E+00
          2   -1    0    0  502    0  0.00000000000E+00  0.00000000000E+00  0.94933846648E+03  0.94933846648E+03  0.00000000000E+00 0. -1.
         -2   -1    0    0    0  501 -0.00000000000E+00 -0.00000000000E+00 -0.38734407825E+02  0.38734407825E+02  0.00000000000E+00 0.  1.
          6    2    1    2  502    0  0.77524783710E+02  0.19715502265E+02  0.38468451960E+03  0.42853631801E+03  0.17106257075E+03 0.  0.
         24    2    3    3    0    0  0.30784342310E+02  0.73215977785E+02  0.18517525111E+03  0.21670381824E+03  0.79764754635E+02 0.  0.
         -6    2    1    2    0  501 -0.77524783710E+02 -0.19715502265E+02  0.52591953905E+03  0.55953655630E+03  0.17346758532E+03 0.  0.
        -24    2    5    5    0    0 -0.12524286625E+02 -0.19472543226E+01  0.45161664933E+03  0.45911850674E+03  0.81679591826E+02 0.  0.
          5    1    3    3  502    0  0.46740441400E+02 -0.53500475519E+02  0.19950926850E+03  0.21183249977E+03  0.47000000000E+01 0. -1.
        -13    1    4    4    0    0  0.57703327920E+02  0.53376976624E+02  0.12004564562E+03  0.14349122871E+03  0.00000000000E+00 0.  1.
         14    1    4    4    0    0 -0.26918985610E+02  0.19839001161E+02  0.65129605491E+02  0.73212589524E+02  0.00000000000E+00 0. -1.
         -5    1    5    5    0  501 -0.65000497085E+02 -0.17768247943E+02  0.74302889716E+02  0.10041804956E+03  0.47000000000E+01 0.  1.
         13    1    6    6    0    0 -0.26385831759E+01  0.36346402634E+02  0.12775261016E+03  0.13284860747E+03  0.00000000000E+00 0. -1.
        -14    1    6    6    0    0 -0.98857034487E+01 -0.38293656957E+02  0.32386403918E+03  0.32626989927E+03  0.00000000000E+00 0.  1.
</event>
<event>
12    1  0.1345781E-002  0.1858641E+03  0.7818608E-02  0.1162245E+00
         -3   -1    0    0    0  501 -0.00000000000E+00  0.00000000000E+00  0.83616341180E+02  0.83616341180E+02  0.00000000000E+00 0. -1.
          3   -1    0    0  502    0  0.00000000000E+00 -0.00000000000E+00 -0.42614812839E+03  0.42614812839E+03  0.00000000000E+00 0.  1.
          6    2    1    2  502    0  0.57161284222E+02 -0.39045499043E+02 -0.21583998520E+03  0.28487183980E+03  0.17254884088E+03 0.  0.
         24    2    3    3    0    0  0.23993580712E+02 -0.46779371555E+02 -0.34549535929E+02  0.10035022497E+03  0.78182451361E+02 0.  0.
         -6    2    1    2    0  501 -0.57161284222E+02  0.39045499043E+02 -0.12669180200E+03  0.22489262977E+03  0.17243525979E+03 0.  0.
        -24    2    5    5    0    0 -0.94563402293E+02  0.43805828991E+02 -0.13334215552E+03  0.18631936987E+03  0.77933237091E+02 0.  0.
          5    1    3    3  502    0  0.33167703509E+02  0.77338725112E+01 -0.18129044927E+03  0.18452161482E+03  0.47000000000E+01 0. -1.
        -13    1    4    4    0    0  0.35034447792E+02 -0.14489356874E+02 -0.50117050824E+02  0.62841648435E+02  0.00000000000E+00 0.  1.
         14    1    4    4    0    0 -0.11040867079E+02 -0.32290014680E+02  0.15567514895E+02  0.37508576538E+02  0.00000000000E+00 0. -1.
         -5    1    5    5    0  501  0.37402118072E+02 -0.47603299477E+01  0.66503535119E+01  0.38573259900E+02  0.47000000000E+01 0.  1.
         13    1    6    6    0    0 -0.42400216262E+02  0.60583399946E+02 -0.62936758898E+02  0.97103873809E+02  0.00000000000E+00 0. -1.
        -14    1    6    6    0    0 -0.52163186031E+02 -0.16777570955E+02 -0.70405396619E+02  0.89215496059E+02  0.00000000000E+00 0.  1.
</event>
<event>
12    1  0.1345781E-002  0.1781316E+03  0.7818608E-02  0.1169624E+00
          1   -1    0    0  502    0  0.00000000000E+00  0.00000000000E+00  0.31293692722E+03  0.31293692722E+03  0.00000000000E+00 0.  1.
         -1   -1    0    0    0  501 -0.00000000000E+00 -0.00000000000E+00 -0.10809397851E+03  0.10809397851E+03  0.00000000000E+00 0. -1.
          6    2    1    2  502    0  0.19481996137E+02 -0.43148529294E+02  0.15473355088E+03  0.23583086889E+03  0.17155868733E+03 0.  0.
         24    2    3    3    0    0  0.13034082153E+02 -0.46235093945E+02  0.18197267669E+03  0.20727981898E+03  0.86852156483E+02 0.  0.
         -6    2    1    2    0  501 -0.19481996137E+02  0.43148529294E+02  0.50109397828E+02  0.18520003685E+03  0.17189170470E+03 0.  0.
        -24    2    5    5    0    0 -0.43429756015E+02 -0.76958841636E+01 -0.26173367020E+02  0.90332762221E+02  0.74361229473E+02 0.  0.
          5    1    3    3  502    0  0.64479139837E+01  0.30865646516E+01 -0.27239125806E+02  0.28551049906E+02  0.47000000000E+01 0. -1.
        -13    1    4    4    0    0 -0.33502655885E+02 -0.62480694033E+01  0.94303756163E+02  0.10027295123E+03  0.00000000000E+00 0.  1.
         14    1    4    4    0    0  0.46536738038E+02 -0.39987024542E+02  0.87668920524E+02  0.10700686775E+03  0.00000000000E+00 0. -1.
         -5    1    5    5    0  501  0.23947759879E+02  0.50844413457E+02  0.76282764849E+02  0.94867274631E+02  0.47000000000E+01 0.  1.
         11    1    6    6    0    0 -0.15482300641E+02 -0.40382452461E+02 -0.10024434318E+02  0.44395195498E+02  0.00000000000E+00 0. -1.
        -12    1    6    6    0    0 -0.27947455374E+02  0.32686568298E+02 -0.16148932702E+02  0.45937566723E+02  0.00000000000E+00 0.  1.
</event>
<event>
12    1  0.1345781E-002  0.2365199E+03  0.7818608E-02  0.1122133E+00
         -1   -1    0    0    0  501 -0.00000000000E+00  0.00000000000E+00  0.75526148695E+03  0.75526148695E+03  0.00000000000E+00 0.  1.
          1   -1    0    0  502    0  0.00000000000E+00 -0.00000000000E+00 -0.75494444713E+02  0.75494444713E+02  0.00000000000E+00 0. -1.
          6    2    1    2  502    0 -0.68247297216E+02 -0.13689800526E+03  0.38899760811E+03  0.45264112551E+03  0.17368388518E+03 0.  0.
         24    2    3    3    0    0 -0.10517633380E+03 -0.81767973568E+02  0.32558353225E+03  0.36073623362E+03  0.79861950136E+02 0.  0.
         -6    2    1    2    0  501  0.68247297216E+02  0.13689800526E+03  0.29076943414E+03  0.37811480616E+03  0.18715016801E+03 0.  0.
        -24    2    5    5    0    0  0.33157289630E+02  0.30491931321E+02  0.35421404387E+02  0.99227252655E+02  0.81007456751E+02 0.  0.
          5    1    3    3  502    0  0.36929036585E+02 -0.55130031689E+02  0.63414075858E+02  0.91904891894E+02  0.47000000000E+01 0. -1.
        -11    1    4    4    0    0 -0.70440622674E+02 -0.73868731738E+02  0.14908499126E+03  0.18067873553E+03  0.00000000000E+00 0.  1.
         12    1    4    4    0    0 -0.34735711127E+02 -0.78992418300E+01  0.17649854098E+03  0.18005749809E+03  0.00000000000E+00 0. -1.
         -5    1    5    5    0  501  0.35090007586E+02  0.10640607394E+03  0.25534802975E+03  0.27888755350E+03  0.47000000000E+01 0.  1.
         11    1    6    6    0    0  0.15282261469E+02  0.56756548559E+02  0.32894932960E+02  0.67356736370E+02  0.00000000000E+00 0. -1.
        -12    1    6    6    0    0  0.17875028160E+02 -0.26264617238E+02  0.25264714275E+01  0.31870516285E+02  0.00000000000E+00 0.  1.
</event>
<event>
12    1  0.1345781E-002  0.2313660E+03  0.7818608E-02  0.1125682E+00
          2   -1    0    0  502    0  0.00000000000E+00  0.00000000000E+00  0.13311725519E+03  0.13311725519E+03  0.00000000000E+00 0.  1.
         -2   -1    0    0    0  501 -0.00000000000E+00 -0.00000000000E+00 -0.41361420586E+03  0.41361420586E+03  0.00000000000E+00 0. -1.
          6    2    1    2  502    0 -0.49870063019E+02 -0.14626601721E+03 -0.94930879928E+02  0.25045245385E+03  0.17272460363E+03 0.  0.
         24    2    3    3    0    0 -0.77851181481E+02 -0.75378621025E+02 -0.10757586777E+03  0.17305767595E+03  0.81447215507E+02 0.  0.
         -6    2    1    2    0  501  0.49870063019E+02  0.14626601721E+03 -0.18556607074E+03  0.29627900720E+03  0.17165579664E+03 0.  0.
        -24    2    5    5    0    0  0.91856634486E+02  0.62988880588E+02 -0.11925238767E+03  0.18174714163E+03  0.80035311898E+02 0.  0.
          5    1    3    3  502    0  0.27981118462E+02 -0.70887396186E+02  0.12644987841E+02  0.77394777898E+02  0.47000000000E+01 0. -1.
        -13    1    4    4    0    0 -0.52208936606E+02 -0.91341331659E+02 -0.80180013594E+02  0.13227942588E+03  0.00000000000E+00 0.  1.
         14    1    4    4    0    0 -0.25642244875E+02  0.15962710634E+02 -0.27395854176E+02  0.40778250073E+02  0.00000000000E+00 0. -1.
         -5    1    5    5    0  501 -0.41986571467E+02  0.83277136623E+02 -0.66313683073E+02  0.11453186557E+03  0.47000000000E+01 0.  1.
         11    1    6    6    0    0  0.68931621036E+02  0.82098097511E+02 -0.96215917342E+02  0.14404571755E+03  0.00000000000E+00 0. -1.
        -12    1    6    6    0    0  0.22925013451E+02 -0.19109216923E+02 -0.23036470326E+02  0.37701424087E+02  0.00000000000E+00 0.  1.
</event>
<event>
12    1  0.1345781E-002  0.2878048E+03  0.7818608E-02  0.1091501E+00
         -2   -1    0    0    0  501 -0.00000000000E+00  0.00000000000E+00  0.91071428158E+03  0.91071428158E+03  0.00000000000E+00 0.  1.
          2   -1    0    0  502    0  0.00000000000E+00 -0.00000000000E+00 -0.98562943746E+02  0.98562943746E+02  0.00000000000E+00 0. -1.
          6    2    1    2  502    0 -0.76233676501E+02  0.21609566160E+03  0.54699488435E+03  0.61833880218E+03  0.17501589180E+03 0.  0.
         24    2    3    3    0    0 -0.10324780008E+03  0.21395927649E+03  0.43956664586E+03  0.50744586535E+03  0.88565173109E+02 0.  0.
         -6    2    1    2    0  501  0.76233676501E+02 -0.21609566160E+03  0.26515645348E+03  0.39093842314E+03  0.17325125533E+03 0.  0.
        -24    2    5    5    0    0  0.70091652343E+02 -0.15833273294E+03  0.99547824915E+02  0.21537479296E+03  0.80588075720E+02 0.  0.
          5    1    3    3  502    0  0.27014123580E+02  0.21363851030E+01  0.10742823849E+03  0.11089293683E+03  0.47000000000E+01 0. -1.
        -11    1    4    4    0    0 -0.33760124619E+02  0.92367775068E+02  0.27100619063E+03  0.28829829560E+03  0.00000000000E+00 0.  1.
         12    1    4    4    0    0 -0.69487675462E+02  0.12159150143E+03  0.16856045523E+03  0.21914756975E+03  0.00000000000E+00 0. -1.
         -5    1    5    5    0  501  0.61420241580E+01 -0.57762928657E+02  0.16560862857E+03  0.17556363019E+03  0.47000000000E+01 0.  1.
         13    1    6    6    0    0  0.22301174843E+02 -0.12941492870E+03  0.49394338797E+02  0.14030455044E+03  0.00000000000E+00 0. -1.
        -14    1    6    6    0    0  0.47790477500E+02 -0.28917804242E+02  0.50153486118E+02  0.75070242518E+02  0.00000000000E+00 0.  1.
</event>
<event>
12    1  0.1345781E-002  0.2240461E+03  0.7818608E-02  0.1130902E+00
         -1   -1    0    0    0  501 -0.00000000000E+00  0.00000000000E+00  0.17961171443E+03  0.17961171443E+03  0.00000000000E+00 0.  1.
          1   -1    0    0  502    0  0.00000000000E+00 -0.00000000000E+00 -0.27948202594E+03  0.27948202594E+03  0.00000000000E+00 0. -1.
          6    2    1    2  502    0  0.11022327835E+03 -0.93754571029E+02 -0.50188626882E+02  0.22847833732E+03  0.16954162225E+03 0.  0.
         24    2    3    3    0    0  0.46959045396E+02 -0.37496189099E+01 -0.71788449276E+02  0.11626471558E+03  0.78388079782E+02 0.  0.
         -6    2    1    2    0  501 -0.11022327835E+03  0.93754571029E+02 -0.49681684632E+02  0.23061540305E+03  0.17255753723E+03 0.  0.
        -24    2    5    5    0    0 -0.19020567762E+02 -0.73569453156E+01  0.45360392305E+00  0.85435823511E+02  0.82964857259E+02 0.  0.
          5    1    3    3  502    0  0.63264232957E+02 -0.90004952119E+02  0.21599822394E+02  0.11221362174E+03  0.47000000000E+01 0. -1.
        -13    1    4    4    0    0  0.12868324541E+02 -0.30588511304E+01 -0.80086826519E+02  0.81171732325E+02  0.00000000000E+00 0.  1.
         14    1    4    4    0    0  0.34090720855E+02 -0.69076777944E+00  0.82983772435E+01  0.35092983250E+02  0.00000000000E+00 0. -1.
         -5    1    5    5    0  501 -0.91202710591E+02  0.10111151634E+03 -0.50135288555E+02  0.14517957954E+03  0.47000000000E+01 0.  1.
         13    1    6    6    0    0 -0.15145492654E+02  0.28174730844E+02 -0.25793482351E+02  0.41091424138E+02  0.00000000000E+00 0. -1.
        -14    1    6    6    0    0 -0.38750751077E+01 -0.35531676160E+02  0.26247086274E+02  0.44344399373E+02  0.00000000000E+00 0.  1.
</event>
<event>
12    1  0.1345781E-002  0.1749578E+03  0.7818608E-02  0.1172774E+00
         -1   -1    0    0    0  501 -0.00000000000E+00  0.00000000000E+00  0.36411141114E+02  0.36411141114E+02  0.00000000000E+00 0.  1.
          1   -1    0    0  502    0  0.00000000000E+00 -0.00000000000E+00 -0.91874376622E+03  0.91874376622E+03  0.00000000000E+00 0. -1.
          6    2    1    2  502    0 -0.20088015022E+02 -0.35258603486E+02 -0.30697607598E+03  0.35439570629E+03  0.17238128654E+03 0.  0.
         24    2    3    3    0    0  0.13453654858E+02 -0.19655126248E+02 -0.49939363974E+02  0.94668015357E+02  0.76816458137E+02 0.  0.
         -6    2    1    2    0  501  0.20088015022E+02  0.35258603486E+02 -0.57535654913E+03  0.60075920104E+03  0.16801714658E+03 0.  0.
        -24    2    5    5    0    0  0.64376205052E+00  0.83645409678E+02 -0.46129053346E+03  0.47525020567E+03  0.77954042539E+02 0.  0.
          5    1    3    3  502    0 -0.33541669880E+02 -0.15603477237E+02 -0.25703671200E+03  0.25972769093E+03  0.47000000000E+01 0. -1.
        -11    1    4    4    0    0 -0.11931700353E+02 -0.21378569933E+02  0.12321690647E+02  0.27408626126E+02  0.00000000000E+00 0.  1.
         12    1    4    4    0    0  0.25385355211E+02  0.17234436845E+01 -0.62261054621E+02  0.67259389232E+02  0.00000000000E+00 0. -1.
         -5    1    5    5    0  501  0.19444252972E+02 -0.48386806192E+02 -0.11406601567E+03  0.12550899537E+03  0.47000000000E+01 0.  1.
         11    1    6    6    0    0 -0.64549228991E+00  0.40576401005E+01 -0.24074653979E+03  0.24078159715E+03  0.00000000000E+00 0. -1.
        -12    1    6    6    0    0  0.12892543404E+01  0.79587769577E+02 -0.22054399366E+03  0.23446860852E+03  0.00000000000E+00 0.  1.
</event>
<event>
12    1  0.1345781E-002  0.1844099E+03  0.7818608E-02  0.1163602E+00
          2   -1    0    0  502    0  0.00000000000E+00  0.00000000000E+00  0.76739047893E+03  0.76739047893E+03  0.00000000000E+00 0. -1.
         -2   -1    0    0    0  501 -0.00000000000E+00 -0.00000000000E+00 -0.47029672610E+02  0.47029672610E+02  0.00000000000E+00 0.  1.
          6    2    1    2  502    0  0.27084229702E+01 -0.67417526252E+02  0.45956013045E+03  0.49549738121E+03  0.17253893149E+03 0.  0.
         24    2    3    3    0    0 -0.57155974470E+02 -0.63451630868E+02  0.36667179880E+03  0.38481853696E+03  0.79650382759E+02 0.  0.
         -6    2    1    2    0  501 -0.27084229702E+01  0.67417526252E+02  0.26080067587E+03  0.31892277033E+03  0.17071110832E+03 0.  0.
        -24    2    5    5    0    0 -0.66250314445E+02  0.33123078923E+02  0.12513126775E+03  0.16516334985E+03  0.78325318014E+02 0.  0.
          5    1    3    3  502    0  0.59864397440E+02 -0.39658953847E+01  0.92888331648E+02  0.11067884424E+03  0.47000000000E+01 0. -1.
        -11    1    4    4    0    0 -0.41115189033E+02 -0.27272913612E+02  0.70705086010E+02  0.86217630296E+02  0.00000000000E+00 0.  1.
         12    1    4    4    0    0 -0.16040785437E+02 -0.36178717255E+02  0.29596671279E+03  0.29860090667E+03  0.00000000000E+00 0. -1.
         -5    1    5    5    0  501  0.63541891475E+02  0.34294447329E+02  0.13566940812E+03  0.15375942049E+03  0.47000000000E+01 0.  1.
         13    1    6    6    0    0 -0.78108850135E+02  0.38550386163E+02  0.80287991325E+02  0.11846217242E+03  0.00000000000E+00 0. -1.
        -14    1    6    6    0    0  0.11858535690E+02 -0.54273072394E+01  0.44843276428E+02  0.46701177430E+02  0.00000000000E+00 0.  1.
</event>
<event>
12    1  0.1345781E-002  0.2316828E+03  0.7818608E-02  0.1125461E+00
         -2   -1    0    0    0  501 -0.00000000000E+00  0.00000000000E+00  0.19461393554E+02  0.19461393554E+02  0.00000000000E+00 0.  1.
          2   -1    0    0  502    0  0.00000000000E+00 -0.00000000000E+00 -0.28465377463E+04  0.28465377463E+04  0.00000000000E+00 0. -1.
          6    2    1    2  502    0  0.68540335214E+02  0.13961150068E+03 -0.16651348165E+04  0.16811532115E+04  0.17150222963E+03 0.  0.
         24    2    3    3    0    0  0.61293196487E+02  0.71321431607E+02 -0.53908270536E+03  0.55299918765E+03  0.79714087692E+02 0.  0.
         -6    2    1    2    0  501 -0.68540335214E+02 -0.13961150068E+03 -0.11619415362E+04  0.11848459283E+04  0.17193775500E+03 0.  0.
        -24    2    5    5    0    0  0.26577650336E+02 -0.55034141962E+02 -0.62787735262E+03  0.63580366858E+03  0.79254064640E+02 0.  0.
          5    1    3    3  502    0  0.72471387269E+01  0.68290069069E+02 -0.11260521111E+04  0.11281540238E+04  0.47000000000E+01 0. -1.
        -13    1    4    4    0    0  0.30259672299E+02 -0.12239018752E+02 -0.18576366803E+03  0.18860960131E+03  0.00000000000E+00 0.  1.
         14    1    4    4    0    0  0.31033524188E+02  0.83560450359E+02 -0.35331903733E+03  0.36438958633E+03  0.00000000000E+00 0. -1.
         -5    1    5    5    0  501 -0.95117985550E+02 -0.84577358714E+02 -0.53406418362E+03  0.54904225976E+03  0.47000000000E+01 0.  1.
         13    1    6    6    0    0  0.11998919239E+02 -0.72660918580E+02 -0.39508776248E+03  0.40189292506E+03  0.00000000000E+00 0. -1.
        -14    1    6    6    0    0  0.14578731097E+02  0.17626776619E+02 -0.23278959014E+03  0.23391074351E+03  0.00000000000E+00 0.  1.
</event>
<event>
12    1  0.1345781E-002  0.1731592E+03  0.7818608E-02  0.1174593E+00
          2   -1    0    0  502    0  0.00000000000E+00  0.00000000000E+00  0.15853462754E+04  0.15853462754E+04  0.00000000000E+00 0.  1.
         -2   -1    0    0    0  501 -0.00000000000E+00 -0.00000000000E+00 -0.22195739257E+02  0.22195739257E+02  0.00000000000E+00 0. -1.
          6    2    1    2  502    0 -0.13625031648E+01 -0.39975080920E+01  0.10934557274E+04  0.11071959093E+04  0.17383761740E+03 0.  0.
         24    2    3    3    0    0  0.55109677175E+02 -0.57957888125E+01  0.40624460278E+03  0.41765000016E+03  0.79537272126E+02 0.  0.
         -6    2    1    2    0  501  0.13625031648E+01  0.39975080920E+01  0.46969480872E+03  0.50034610537E+03  0.17238090188E+03 0.  0.
        -24    2    5    5    0    0  0.22601848978E+02 -0.52179312174E+02  0.18640733751E+03  0.21072423760E+03  0.80146644582E+02 0.  0.
          5    1    3    3  502    0 -0.56472180340E+02  0.17982807205E+01  0.68721112465E+03  0.68954590914E+03  0.47000000000E+01 0. -1.
        -11    1    4    4    0    0  0.29671636604E+02  0.30743743641E+02  0.29072077664E+03  0.29384375740E+03  0.00000000000E+00 0.  1.
         12    1    4    4    0    0  0.25438040571E+02 -0.36539532454E+02  0.11552382614E+03  0.12380624276E+03  0.00000000000E+00 0. -1.
         -5    1    5    5    0  501 -0.21239345813E+02  0.56176820266E+02  0.28328747122E+03  0.28962186777E+03  0.47000000000E+01 0.  1.
         11    1    6    6    0    0  0.42475155479E+02 -0.49401431083E+00  0.90644546847E+02  0.10010402967E+03  0.00000000000E+00 0. -1.
        -12    1    6    6    0    0 -0.19873306501E+02 -0.51685297863E+02  0.95762790659E+02  0.11062020792E+03  0.00000000000E+00 0.  1.
</event>
<event>
12    1  0.1345781E-002  0.1846346E+03  0.7818608E-02  0.1163392E+00
          3   -1    0    0  502    0  0.00000000000E+00  0.00000000000E+00  0.29190075932E+03  0.29190075932E+03  0.00000000000E+00 0. -1.
         -3   -1    0    0    0  501 -0.00000000000E+00 -0.00000000000E+00 -0.18290066261E+03  0.18290066261E+03  0.00000000000E+00 0.  1.
          6    2    1    2  502    0  0.22168993986E+02  0.64276337263E+02  0.19718850226E+03  0.26997670005E+03  0.17140945517E+03 0.  0.
         24    2    3    3    0    0  0.53504637105E+02  0.53671839316E+01  0.39482919032E+02  0.98671849403E+02  0.72702682992E+02 0.  0.
         -6    2    1    2    0  501 -0.22168993986E+02 -0.64276337263E+02 -0.88188405546E+02  0.20482472188E+03  0.17191003459E+03 0.  0.
        -24    2    5    5    0    0 -0.32043137995E+02  0.11458179169E+02 -0.91349554925E+00  0.88754848033E+02  0.81966676234E+02 0.  0.
          5    1    3    3  502    0 -0.31335643118E+02  0.58909153331E+02  0.15770558323E+03  0.17130485065E+03  0.47000000000E+01 0. -1.
        -11    1    4    4    0    0 -0.99195518922E+01  0.55090905778E+01 -0.12343008083E+02  0.16765960672E+02  0.00000000000E+00 0.  1.
         12    1    4    4    0    0  0.63424188997E+02 -0.14190664621E+00  0.51825927115E+02  0.81905888731E+02  0.00000000000E+00 0. -1.
         -5    1    5    5    0  501  0.98741440084E+01 -0.75734516432E+02 -0.87274909997E+02  0.11606987384E+03  0.47000000000E+01 0.  1.
         13    1    6    6    0    0 -0.32736365174E+02  0.43276307852E+02 -0.11004027227E+02  0.55367833995E+02  0.00000000000E+00 0. -1.
        -14    1    6    6    0    0  0.69322717956E+00 -0.31818128683E+02  0.10090531678E+02  0.33387014038E+02  0.00000000000E+00 0.  1.
</event>
<event>
12    1  0.1345781E-002  0.4134413E+03  0.7818608E-02  0.1039222E+00
         -2   -1    0    0    0  501 -0.00000000000E+00  0.00000000000E+00  0.94996377286E+03  0.94996377286E+03  0.00000000000E+00 0.  1.
          2   -1    0    0  502    0  0.00000000000E+00 -0.00000000000E+00 -0.26017878834E+03  0.26017878834E+03  0.00000000000E+00 0. -1.
          6    2    1    2  502    0 -0.34104103618E+03  0.15758512019E+03  0.88016111813E+01  0.41341949980E+03  0.17232572644E+03 0.  0.
         24    2    3    3    0    0 -0.10842808580E+03  0.95550556262E+01 -0.18688361338E+02  0.13629232089E+03  0.79864842121E+02 0.  0.
         -6    2    1    2    0  501  0.34104103618E+03 -0.15758512019E+03  0.68098337334E+03  0.79672306140E+03  0.17287921602E+03 0.  0.
        -24    2    5    5    0    0  0.12011490107E+03 -0.10728763100E+03  0.22999365207E+03  0.29199341764E+03  0.80155166571E+02 0.  0.
          5    1    3    3  502    0 -0.23261295038E+03  0.14803006456E+03  0.27489972519E+02  0.27712717891E+03  0.47000000000E+01 0. -1.
        -13    1    4    4    0    0 -0.66135911708E+02 -0.32707447127E+02 -0.44932692397E+00  0.73783045544E+02  0.00000000000E+00 0.  1.
         14    1    4    4    0    0 -0.42292174089E+02  0.42262502754E+02 -0.18239034414E+02  0.62509275348E+02  0.00000000000E+00 0. -1.
         -5    1    5    5    0  501  0.22092613510E+03 -0.50297489187E+02  0.45098972127E+03  0.50472964376E+03  0.47000000000E+01 0.  1.
         11    1    6    6    0    0  0.11932607670E+03 -0.10507424652E+03  0.23655609932E+03  0.28502297801E+03  0.00000000000E+00 0. -1.
        -12    1    6    6    0    0  0.78882436959E+00 -0.22133844788E+01 -0.65624472551E+01  0.69704396355E+01  0.00000000000E+00 0.  1.
</event>
<event>
12    1  0.1345781E-002  0.1775771E+03  0.7818608E-02  0.1170169E+00
         -2   -1    0    0    0  501 -0.00000000000E+00  0.00000000000E+00  0.71598100585E+02  0.71598100585E+02  0.00000000000E+00 0. -1.
          2   -1    0    0  502    0  0.00000000000E+00 -0.00000000000E+00 -0.49873015082E+03  0.49873015082E+03  0.00000000000E+00 0.  1.
          6    2    1    2  502    0 -0.31681582793E+02 -0.23201845996E+01 -0.11289755055E+03  0.20784123028E+03  0.17158966793E+03 0.  0.
         24    2    3    3    0    0 -0.37735937260E+02 -0.64072963055E+01 -0.14780881638E+03  0.17186559724E+03  0.78900462028E+02 0.  0.
         -6    2    1    2    0  501  0.31681582793E+02  0.23201845996E+01 -0.31423449969E+03  0.36248702112E+03  0.17788876789E+03 0.  0.
        -24    2    5    5    0    0  0.66327340872E+02  0.53768365897E+02 -0.17042834618E+03  0.20580408109E+03  0.77583150822E+02 0.  0.
          5    1    3    3  502    0  0.60543544674E+01  0.40871117059E+01  0.34911265838E+02  0.35975633039E+02  0.47000000000E+01 0. -1.
        -11    1    4    4    0    0  0.18017947398E+02  0.18045575181E+02 -0.30977934125E+02  0.40123828515E+02  0.00000000000E+00 0.  1.
         12    1    4    4    0    0 -0.55753884658E+02 -0.24452871486E+02 -0.11683088226E+03  0.13174176873E+03  0.00000000000E+00 0. -1.
         -5    1    5    5    0  501 -0.34645758079E+02 -0.51448181297E+02 -0.14380615351E+03  0.15668294004E+03  0.47000000000E+01 0.  1.
         13    1    6    6    0    0  0.79800617908E+02  0.51153150247E+02 -0.16639399049E+03  0.19149867746E+03  0.00000000000E+00 0. -1.
        -14    1    6    6    0    0 -0.13473277036E+02  0.26152156494E+01 -0.40343556909E+01  0.14305403623E+02  0.00000000000E+00 0.  1.
</event>
<event>
12    1  0.1345781E-002  0.1770608E+03  0.7818608E-02  0.1170678E+00
         -1   -1    0    0    0  501 -0.00000000000E+00  0.00000000000E+00  0.47870228598E+02  0.47870228598E+02  0.00000000000E+00 0.  1.
          1   -1    0    0  502    0  0.00000000000E+00 -0.00000000000E+00 -0.68734044833E+03  0.68734044833E+03  0.00000000000E+00 0. -1.
          6    2    1    2  502    0 -0.42073005056E+02  0.24645002519E+01 -0.40253420620E+03  0.44047007938E+03  0.17379267000E+03 0.  0.
         24    2    3    3    0    0 -0.83973427945E+02  0.26602176862E+02 -0.34651757014E+03  0.36632005317E+03  0.79729182395E+02 0.  0.
         -6    2    1    2    0  501  0.42073005056E+02 -0.24645002519E+01 -0.23693601353E+03  0.29474059755E+03  0.17016795768E+03 0.  0.
        -24    2    5    5    0    0 -0.49537004529E+02 -0.83720713756E+01 -0.11290542255E+03  0.14036128951E+03  0.66555621512E+02 0.  0.
          5    1    3    3  502    0  0.41900422889E+02 -0.24137676610E+02 -0.56016636064E+02  0.74150026206E+02  0.47000000000E+01 0. -1.
        -13    1    4    4    0    0 -0.11244381656E+01  0.51369017365E+01  0.32847291430E+01  0.62001263037E+01  0.00000000000E+00 0.  1.
         14    1    4    4    0    0 -0.82848989780E+02  0.21465275125E+02 -0.34980229928E+03  0.36011992687E+03  0.00000000000E+00 0. -1.
         -5    1    5    5    0  501  0.91610009585E+02  0.59075711237E+01 -0.12403059097E+03  0.15437930804E+03  0.47000000000E+01 0.  1.
         11    1    6    6    0    0  0.10419328347E+02 -0.91775293869E+01 -0.55999318300E+02  0.57695000640E+02  0.00000000000E+00 0. -1.
        -12    1    6    6    0    0 -0.59956332876E+02  0.80545801132E+00 -0.56906104255E+02  0.82666288873E+02  0.00000000000E+00 0.  1.
</event>
<event>
12    1  0.1345781E-002  0.1856816E+03  0.7818608E-02  0.1162415E+00
         -1   -1    0    0    0  501 -0.00000000000E+00  0.00000000000E+00  0.15717995225E+02  0.15717995225E+02  0.00000000000E+00 0. -1.
          1   -1    0    0  502    0  0.00000000000E+00 -0.00000000000E+00 -0.29491379487E+04  0.29491379487E+04  0.00000000000E+00 0.  1.
          6    2    1    2  502    0 -0.71709374627E+02 -0.83410652005E+01 -0.71163172601E+03  0.73525491160E+03  0.17020065744E+03 0.  0.
         24    2    3    3    0    0 -0.10076572259E+03 -0.43258650881E+02 -0.47727813054E+03  0.49649309126E+03  0.81767561090E+02 0.  0.
         -6    2    1    2    0  501  0.71709374627E+02  0.83410652005E+01 -0.22217882275E+04  0.22296010323E+04  0.17194774744E+03 0.  0.
        -24    2    5    5    0    0 -0.59343870266E+01  0.54797187851E+02 -0.11458294388E+04  0.11498343307E+04  0.78459776052E+02 0.  0.
          5    1    3    3  502    0  0.29056347961E+02  0.34917585681E+02 -0.23435359547E+03  0.23876182035E+03  0.47000000000E+01 0. -1.
        -13    1    4    4    0    0 -0.89199700234E+02 -0.42994912518E+02 -0.47432831589E+03  0.48455391886E+03  0.00000000000E+00 0.  1.
         14    1    4    4    0    0 -0.11566022355E+02 -0.26373836352E+00 -0.29498146479E+01  0.11939172396E+02  0.00000000000E+00 0. -1.
         -5    1    5    5    0  501  0.77643761654E+02 -0.46456122651E+02 -0.10759587887E+04  0.10797667017E+04  0.47000000000E+01 0.  1.
         13    1    6    6    0    0 -0.39024675586E+02  0.43215505900E+02 -0.83659045384E+03  0.83861438857E+03  0.00000000000E+00 0. -1.
        -14    1    6    6    0    0  0.33090288559E+02  0.11581681951E+02 -0.30923898494E+03  0.31121994210E+03  0.00000000000E+00 0.  1.
</event>
<event>
12    1  0.1345781E-002  0.2108366E+03  0.7818608E-02  0.1140905E+00
         -3   -1    0    0    0  501 -0.00000000000E+00  0.00000000000E+00  0.16651631382E+03  0.16651631382E+03  0.00000000000E+00 0. -1.
          3   -1    0    0  502    0  0.00000000000E+00 -0.00000000000E+00 -0.38907188330E+03  0.38907188330E+03  0.00000000000E+00 0.  1.
          6    2    1    2  502    0  0.24206867881E+02  0.12454111410E+03 -0.26632651737E+03  0.33870669834E+03  0.16642100857E+03 0.  0.
         24    2    3    3    0    0  0.72851711993E+02  0.11696239156E+03 -0.18970554073E+03  0.24751118334E+03  0.79284429228E+02 0.  0.
         -6    2    1    2    0  501 -0.24206867881E+02 -0.12454111410E+03  0.43770947890E+02  0.21688149877E+03  0.17036791681E+03 0.  0.
        -24    2    5    5    0    0 -0.74682809294E+01 -0.15648226481E+03  0.35289163664E+02  0.17953918945E+03  0.80290230150E+02 0.  0.
          5    1    3    3  502    0 -0.48644844112E+02  0.75787225372E+01 -0.76620976641E+02  0.91195514996E+02  0.47000000000E+01 0. -1.
        -11    1    4    4    0    0  0.31781017477E+02  0.90114413526E+02 -0.16922861841E+03  0.19434239344E+03  0.00000000000E+00 0.  1.
         12    1    4    4    0    0  0.41070694516E+02  0.26847978037E+02 -0.20476922311E+02  0.53168789905E+02  0.00000000000E+00 0. -1.
         -5    1    5    5    0  501 -0.16738586951E+02  0.31941150710E+02  0.84817842262E+01  0.37342309321E+02  0.47000000000E+01 0.  1.
         11    1    6    6    0    0  0.33774771348E+02 -0.10102118611E+03  0.27324220748E+02  0.10996648699E+03  0.00000000000E+00 0. -1.
        -12    1    6    6    0    0 -0.41243052277E+02 -0.55461078703E+02  0.79649429153E+01  0.69572702461E+02  0.00000000000E+00 0.  1.
</event>
<event>
12    1  0.1345781E-002  0.2003036E+03  0.7818608E-02  0.1149483E+00
         -2   -1    0    0    0  501 -0.00000000000E+00  0.00000000000E+00  0.12338929946E+02  0.12338929946E+02  0.00000000000E+00 0.  1.
          2   -1    0    0  502    0  0.00000000000E+00 -0.00000000000E+00 -0.32766641198E+04  0.32766641198E+04  0.00000000000E+00 0. -1.
          6    2    1    2  502    0 -0.54892826459E-01 -0.10082873961E+03 -0.14994597900E+04  0.15129549366E+04  0.17460395302E+03 0.  0.
         24    2    3    3    0    0  0.28781419466E+02  0.23590752483E+01 -0.90680357889E+03  0.91067366287E+03  0.78739152971E+02 0.  0.
         -6    2    1    2    0  501  0.54892826459E-01  0.10082873961E+03 -0.17648653998E+04  0.17760481132E+04  0.17155344093E+03 0.  0.
        -24    2    5    5    0    0 -0.60165923277E+02  0.33750708188E+02 -0.10418516604E+04  0.10474213457E+04  0.82930961551E+02 0.  0.
          5    1    3    3  502    0 -0.28836312292E+02 -0.10318781486E+03 -0.59265621113E+03  0.60228127369E+03  0.47000000000E+01 0. -1.
        -11    1    4    4    0    0  0.36796151147E+02 -0.72484295387E+01 -0.18507150961E+03  0.18883315424E+03  0.00000000000E+00 0.  1.
         12    1    4    4    0    0 -0.80147316810E+01  0.96075047870E+01 -0.72173206928E+03  0.72184050863E+03  0.00000000000E+00 0. -1.
         -5    1    5    5    0  501  0.60220816103E+02  0.67078031422E+02 -0.72301373936E+03  0.72862676748E+03  0.47000000000E+01 0.  1.
         11    1    6    6    0    0  0.55490115473E+01  0.20974366175E+01 -0.56431247131E+03  0.56434365066E+03  0.00000000000E+00 0. -1.
        -12    1    6    6    0    0 -0.65714934824E+02  0.31653271570E+02 -0.47753918913E+03  0.48307769500E+03  0.00000000000E+00 0.  1.
</event>
<event>
12    1  0.1345781E-002  0.2421681E+03  0.7818608E-02  0.1118357E+00
         -2   -1    0    0    0  501 -0.00000000000E+00  0.00000000000E+00  0.98071508366E+02  0.98071508366E+02  0.00000000000E+00 0. -1.
          2   -1    0    0  502    0  0.00000000000E+00 -0.00000000000E+00 -0.66633917360E+03  0.66633917360E+03  0.00000000000E+00 0.  1.
          6    2    1    2  502    0  0.67911287844E+02 -0.15620355738E+03 -0.40697624053E+03  0.47378641392E+03  0.17272061634E+03 0.  0.
         24    2    3    3    0    0  0.13246089040E+01 -0.14830883252E+03 -0.34072158723E+03  0.37940483958E+03  0.76547814456E+02 0.  0.
         -6    2    1    2    0  501 -0.67911287844E+02  0.15620355738E+03 -0.16129142471E+03  0.29062426804E+03  0.17156936537E+03 0.  0.
        -24    2    5    5    0    0 -0.70296272391E+02  0.10728392921E+03 -0.35939056802E+02  0.15596126528E+03  0.81122703887E+02 0.  0.
          5    1    3    3  502    0  0.66586678940E+02 -0.78947248672E+01 -0.66254653293E+02  0.94381574345E+02  0.47000000000E+01 0. -1.
        -13    1    4    4    0    0  0.36431491855E+02 -0.10385539329E+03 -0.23359526758E+03  0.25822460253E+03  0.00000000000E+00 0.  1.
         14    1    4    4    0    0 -0.35106882951E+02 -0.44453439225E+02 -0.10712631965E+03  0.12118023705E+03  0.00000000000E+00 0. -1.
         -5    1    5    5    0  501  0.23849845473E+01  0.48919628174E+02 -0.12535236790E+03  0.13466300275E+03  0.47000000000E+01 0.  1.
         13    1    6    6    0    0  0.68939737725E+01  0.59679733257E+02 -0.56223453392E+01  0.60339110063E+02  0.00000000000E+00 0. -1.
        -14    1    6    6    0    0 -0.77190246163E+02  0.47604195953E+02 -0.30316711463E+02  0.95622155221E+02  0.00000000000E+00 0.  1.
</event>
<event>
12    1  0.1345781E-002  0.2181383E+03  0.7818608E-02  0.1135279E+00
          2   -1    0    0  502    0  0.00000000000E+00  0.00000000000E+00  0.82689174123E+03  0.82689174123E+03  0.00000000000E+00 0.  1.
         -2   -1    0    0    0  501 -0.00000000000E+00 -0.00000000000E+00 -0.13740220378E+03  0.13740220378E+03  0.00000000000E+00 0. -1.
          6    2    1    2  502    0 -0.35943999622E+02 -0.12820382630E+03 -0.22238965480E+02  0.22014282210E+03  0.17389680374E+03 0.  0.
         24    2    3    3    0    0 -0.45092758702E+02 -0.65146068647E+02  0.49915439803E+02  0.12376684587E+03  0.80927831176E+02 0.  0.
         -6    2    1    2    0  501  0.35943999622E+02  0.12820382630E+03  0.71172850293E+03  0.74415112291E+03  0.17168354510E+03 0.  0.
        -24    2    5    5    0    0 -0.29841025259E+01  0.11237478943E+03  0.29718051212E+03  0.32745209215E+03  0.79193545868E+02 0.  0.
          5    1    3    3  502    0  0.91487590795E+01 -0.63057757653E+02 -0.72154405283E+02  0.96375976232E+02  0.47000000000E+01 0. -1.
        -13    1    4    4    0    0  0.28151199525E+01 -0.68930911050E+01  0.47735505869E+02  0.48312711846E+02  0.00000000000E+00 0.  1.
         14    1    4    4    0    0 -0.47907878654E+02 -0.58252977542E+02  0.21799339342E+01  0.75454134026E+02  0.00000000000E+00 0. -1.
         -5    1    5    5    0  501  0.38928102148E+02  0.15829036869E+02  0.41454799081E+03  0.41669903076E+03  0.47000000000E+01 0.  1.
         13    1    6    6    0    0  0.12250602981E+02  0.66843668992E+02  0.79718746221E+02  0.10475319497E+03  0.00000000000E+00 0. -1.
        -14    1    6    6    0    0 -0.15234705507E+02  0.45531120440E+02  0.21746176589E+03  0.22269889718E+03  0.00000000000E+00 0.  1.
</event>
<event>
12    1  0.1345781E-002  0.2256043E+03  0.7818608E-02  0.1129772E+00
          2   -1    0    0  502    0  0.00000000000E+00  0.00000000000E+00  0.38861545278E+03  0.38861545278E+03  0.00000000000E+00 0.  1.
         -2   -1    0    0    0  501 -0.00000000000E+00 -0.00000000000E+00 -0.14384765208E+03  0.14384765208E+03  0.00000000000E+00 0. -1.
          6    2    1    2  502    0 -0.11380747670E+03 -0.88614247206E+02  0.43089840202E+02  0.23039197765E+03  0.17441072925E+03 0.  0.
         24    2    3    3    0    0 -0.20246955588E+02  0.13992714114E+02 -0.25849046919E+01  0.84138663352E+02  0.80417023569E+02 0.  0.
         -6    2    1    2    0  501  0.11380747670E+03  0.88614247206E+02  0.20167796049E+03  0.30207112721E+03  0.17253503871E+03 0.  0.
        -24    2    5    5    0    0  0.12361268371E+03  0.60578045805E+02  0.79817832141E+02  0.17655558413E+03  0.76493089562E+02 0.  0.
          5    1    3    3  502    0 -0.93560521114E+02 -0.10260696132E+03  0.45674744894E+02  0.14625331430E+03  0.47000000000E+01 0. -1.
        -11    1    4    4    0    0 -0.35983446088E+02  0.12208487311E+02  0.29667230975E+02  0.48207884713E+02  0.00000000000E+00 0.  1.
         12    1    4    4    0    0  0.15736490500E+02  0.17842268034E+01 -0.32252135667E+02  0.35930778639E+02  0.00000000000E+00 0. -1.
         -5    1    5    5    0  501 -0.98052070109E+01  0.28036201402E+02  0.12186012835E+03  0.12551554308E+03  0.47000000000E+01 0.  1.
         13    1    6    6    0    0  0.12706740782E+03  0.35174785524E+02  0.66899745484E+02  0.14784778528E+03  0.00000000000E+00 0. -1.
        -14    1    6    6    0    0 -0.34547241101E+01  0.25403260281E+02  0.12918086657E+02  0.28707798844E+02  0.00000000000E+00 0.  1.
</event>
<event>
12    1  0.1345781E-002  0.2341813E+03  0.7818608E-02  0.1123731E+00
          2   -1    0    0  502    0  0.00000000000E+00  0.00000000000E+00  0.27002554220E+04  0.27002554220E+04  0.00000000000E+00 0.  1.
         -2   -1    0    0    0  501 -0.00000000000E+00 -0.00000000000E+00 -0.21803293754E+02  0.21803293754E+02  0.00000000000E+00 0. -1.
          6    2    1    2  502    0 -0.15565442444E+03  0.43682809477E+02  0.98532521162E+03  0.10128733554E+04  0.17002992003E+03 0.  0.
         24    2    3    3    0    0 -0.11803678156E+02  0.43202007279E+01  0.25059920792E+03  0.26314884419E+03  0.79305486797E+02 0.  0.
         -6    2    1    2    0  501  0.15565442444E+03 -0.43682809477E+02  0.16931269166E+04  0.17091853604E+04  0.16881751275E+03 0.  0.
        -24    2    5    5    0    0  0.97853645847E+02 -0.50191886548E+02  0.64356978201E+03  0.65800717999E+03  0.81834119518E+02 0.  0.
          5    1    3    3  502    0 -0.14385074628E+03  0.39362608749E+02  0.73472600370E+03  0.74972451119E+03  0.47000000000E+01 0. -1.
        -11    1    4    4    0    0 -0.20052095220E+02  0.28281780398E+02  0.22300478050E+03  0.22568357882E+03  0.00000000000E+00 0.  1.
         12    1    4    4    0    0  0.82484170642E+01 -0.23961579671E+02  0.27594427426E+02  0.37465265371E+02  0.00000000000E+00 0. -1.
         -5    1    5    5    0  501  0.57800778589E+02  0.65090770713E+01  0.10495571346E+04  0.10511781804E+04  0.47000000000E+01 0.  1.
         13    1    6    6    0    0 -0.20034626799E+01 -0.21434131723E+02  0.38776742657E+02  0.44351681327E+02  0.00000000000E+00 0. -1.
        -14    1    6    6    0    0  0.99857108527E+02 -0.28757754825E+02  0.60479303936E+03  0.61365549866E+03  0.00000000000E+00 0.  1.
</event>
<event>
12    1  0.1345781E-002  0.2835059E+03  0.7818608E-02  0.1093789E+00
         -1   -1    0    0    0  501 -0.00000000000E+00  0.00000000000E+00  0.24632078646E+03  0.24632078646E+03  0.00000000000E+00 0.  1.
          1   -1    0    0  502    0  0.00000000000E+00 -0.00000000000E+00 -0.34870563575E+03  0.34870563575E+03  0.00000000000E+00 0. -1.
          6    2    1    2  502    0 -0.91416932016E+02 -0.20628479761E+03 -0.12660866098E+03  0.31054203812E+03  0.17174437756E+03 0.  0.
         24    2    3    3    0    0 -0.68989660081E+02 -0.10230907805E+03 -0.13987052542E+03  0.20324851627E+03  0.80743264940E+02 0.  0.
         -6    2    1    2    0  501  0.91416932016E+02  0.20628479761E+03  0.24223811687E+02  0.28448438408E+03  0.17156368657E+03 0.  0.
        -24    2    5    5    0    0 -0.51122343152E+01  0.10806806485E+03 -0.27795216413E+02  0.13720072636E+03  0.79665699514E+02 0.  0.
          5    1    3    3  502    0 -0.22427271935E+02 -0.10397571956E+03  0.13261864444E+02  0.10729352186E+03  0.47000000000E+01 0. -1.
        -13    1    4    4    0    0 -0.56351338677E+01 -0.58390483936E+02 -0.10127565438E+03  0.11703829082E+03  0.00000000000E+00 0.  1.
         14    1    4    4    0    0 -0.63354526214E+02 -0.43918594114E+02 -0.38594871041E+02  0.86210225446E+02  0.00000000000E+00 0. -1.
         -5    1    5    5    0  501  0.96529166331E+02  0.98216732755E+02  0.52019028100E+02  0.14728365772E+03  0.47000000000E+01 0.  1.
         13    1    6    6    0    0 -0.29268986080E+01 -0.86573937893E+01  0.10886093810E+02  0.14213523178E+02  0.00000000000E+00 0. -1.
        -14    1    6    6    0    0 -0.21853357071E+01  0.11672545864E+03 -0.38681310223E+02  0.12298720319E+03  0.00000000000E+00 0.  1.
</event>
<event>
12    1  0.1345781E-002  0.2232812E+03  0.7818608E-02  0.1131460E+00
          1   -1    0    0  502    0  0.00000000000E+00  0.00000000000E+00  0.22605827426E+03  0.22605827426E+03  0.00000000000E+00 0. -1.
         -1   -1    0    0    0  501 -0.00000000000E+00 -0.00000000000E+00 -0.22388512595E+03  0.22388512595E+03  0.00000000000E+00 0.  1.
          6    2    1    2  502    0  0.14017041988E+03 -0.22914063876E+02  0.28593244811E+02  0.22535002845E+03  0.17260434740E+03 0.  0.
         24    2    3    3    0    0  0.17143058946E+03 -0.26025202963E+02  0.31841506390E+02  0.19342012722E+03  0.79572017015E+02 0.  0.
         -6    2    1    2    0  501 -0.14017041988E+03  0.22914063876E+02 -0.26420096498E+02  0.22459337176E+03  0.17196325250E+03 0.  0.
        -24    2    5    5    0    0 -0.16880060964E+03  0.36054758732E+02 -0.29816317748E+02  0.19256229395E+03  0.79985203669E+02 0.  0.
          5    1    3    3  502    0 -0.31260169587E+02  0.31111390871E+01 -0.32482615785E+01  0.31929901226E+02  0.47000000000E+01 0. -1.
        -13    1    4    4    0    0  0.59321447141E+02  0.14025051796E+02  0.41867974868E+02  0.73950412361E+02  0.00000000000E+00 0.  1.
         14    1    4    4    0    0  0.11210914232E+03 -0.40050254758E+02 -0.10026468478E+02  0.11946971486E+03  0.00000000000E+00 0. -1.
         -5    1    5    5    0  501  0.28630189762E+02 -0.13140694856E+02  0.33962212494E+01  0.32031077813E+02  0.47000000000E+01 0.  1.
         11    1    6    6    0    0 -0.23944210344E+02  0.34832524681E+02  0.76005952941E+01  0.42946467067E+02  0.00000000000E+00 0. -1.
        -12    1    6    6    0    0 -0.14485639929E+03  0.12222340504E+01 -0.37416913042E+02  0.14961582688E+03  0.00000000000E+00 0.  1.
</event>
<event>
12    1  0.1345781E-002  0.2142344E+03  0.7818608E-02  0.1138256E+00
          2   -1    0    0  502    0  0.00000000000E+00  0.00000000000E+00  0.42076583107E+04  0.42076583107E+04  0.00000000000E+00 0. -1.
         -2   -1    0    0    0  501 -0.00000000000E+00 -0.00000000000E+00 -0.11693443009E+02  0.11693443009E+02  0.00000000000E+00 0.  1.
          6    2    1    2  502    0 -0.11251912737E+03 -0.60435112432E+02  0.26420911556E+04  0.26507385778E+04  0.17162859978E+03 0.  0.
         24    2    3    3    0    0 -0.72244341229E+02 -0.59683318702E+02  0.24987852022E+04  0.25018046667E+04  0.79484338352E+02 0.  0.
         -6    2    1    2    0  501  0.11251912737E+03  0.60435112432E+02  0.15538737121E+04  0.15686131759E+04  0.17236828539E+03 0.  0.
        -24    2    5    5    0    0 -0.65196746038E+01  0.51867337184E+02  0.67798976950E+03  0.68462312282E+03  0.79410112271E+02 0.  0.
          5    1    3    3  502    0 -0.40274786136E+02 -0.75179372985E+00  0.14330595335E+03  0.14893391104E+03  0.47000000000E+01 0. -1.
        -11    1    4    4    0    0 -0.43711955795E+02  0.60084517693E+01  0.13954318520E+04  0.13961292526E+04  0.00000000000E+00 0.  1.
         12    1    4    4    0    0 -0.28532385434E+02 -0.65691770471E+02  0.11033533503E+04  0.11056754141E+04  0.00000000000E+00 0. -1.
         -5    1    5    5    0  501  0.11903880197E+03  0.85677752473E+01  0.87588394257E+03  0.88399005311E+03  0.47000000000E+01 0.  1.
         11    1    6    6    0    0  0.35276575131E+01  0.71997890121E+02  0.54448010423E+03  0.54923103012E+03  0.00000000000E+00 0. -1.
        -12    1    6    6    0    0 -0.10047332117E+02 -0.20130552937E+02  0.13350966527E+03  0.13539209270E+03  0.00000000000E+00 0.  1.
</event>
<event>
12    1  0.1345781E-002  0.1762455E+03  0.7818608E-02  0.1171487E+00
          3   -1    0    0  502    0  0.00000000000E+00  0.00000000000E+00  0.66146976632E+02  0.66146976632E+02  0.00000000000E+00 0. -1.
         -3   -1    0    0    0  501 -0.00000000000E+00 -0.00000000000E+00 -0.47395501902E+03  0.47395501902E+03  0.00000000000E+00 0.  1.
          6    2    1    2  502    0  0.36211476775E+02 -0.27086851063E+02 -0.17688759655E+03  0.24898523285E+03  0.16929103880E+03 0.  0.
         24    2    3    3    0    0  0.90933659624E+02 -0.20578821222E+02 -0.10865091723E+03  0.16114898662E+03  0.73969965113E+02 0.  0.
         -6    2    1    2    0  501 -0.36211476775E+02  0.27086851063E+02 -0.23092044585E+03  0.29111676280E+03  0.17140521790E+03 0.  0.
        -24    2    5    5    0    0 -0.38883381182E+02 -0.48077375049E+02 -0.15129303295E+03  0.18148367088E+03  0.78888463367E+02 0.  0.
          5    1    3    3  502    0 -0.54722182849E+02 -0.65080298411E+01 -0.68236679319E+02  0.87836246235E+02  0.47000000000E+01 0. -1.
        -11    1    4    4    0    0  0.53354207037E+02 -0.23445591619E+02 -0.10883921043E+03  0.12345987568E+03  0.00000000000E+00 0.  1.
         12    1    4    4    0    0  0.37579452587E+02  0.28667703965E+01  0.18829320536E+00  0.37689110942E+02  0.00000000000E+00 0. -1.
         -5    1    5    5    0  501  0.26719044072E+01  0.75164226113E+02 -0.79627412895E+02  0.10963309192E+03  0.47000000000E+01 0.  1.
         11    1    6    6    0    0 -0.58515901964E+01 -0.59069142418E+02 -0.62917470224E+02  0.86498628620E+02  0.00000000000E+00 0. -1.
        -12    1    6    6    0    0 -0.33031790986E+02  0.10991767368E+02 -0.88375562727E+02  0.94985042259E+02  0.00000000000E+00 0.  1.
</event>
<event>
12    1  0.1345781E-002  0.1952855E+03  0.7818608E-02  0.1153779E+00
         -1   -1    0    0    0  501 -0.00000000000E+00  0.00000000000E+00  0.13728389477E+03  0.13728389477E+03  0.00000000000E+00 0. -1.
          1   -1    0    0  502    0  0.00000000000E+00 -0.00000000000E+00 -0.28771112303E+03  0.28771112303E+03  0.00000000000E+00 0.  1.
          6    2    1    2  502    0  0.10023246823E+03  0.27742816808E+02 -0.11202355855E+03  0.22022705394E+03  0.15853853173E+03 0.  0.
         24    2    3    3    0    0  0.52892271375E+02 -0.38679865871E+02 -0.51706372657E+02  0.11867253692E+03  0.84355780187E+02 0.  0.
         -6    2    1    2    0  501 -0.10023246823E+03 -0.27742816808E+02 -0.38403669703E+02  0.20476796386E+03  0.17215941916E+03 0.  0.
        -24    2    5    5    0    0 -0.43119589832E+02  0.19140186106E+01 -0.85983158957E+02  0.12459747950E+03  0.79173643201E+02 0.  0.
          5    1    3    3  502    0  0.47340196853E+02  0.66422682679E+02 -0.60317185893E+02  0.10155451702E+03  0.47000000000E+01 0. -1.
        -13    1    4    4    0    0  0.35460879625E+02  0.23253562766E+02 -0.22662860625E+02  0.48081258478E+02  0.00000000000E+00 0.  1.
         14    1    4    4    0    0  0.17431391750E+02 -0.61933428638E+02 -0.29043512031E+02  0.70591278443E+02  0.00000000000E+00 0. -1.
         -5    1    5    5    0  501 -0.57112878396E+02 -0.29656835418E+02  0.47579489254E+02  0.80170484365E+02  0.47000000000E+01 0.  1.
         11    1    6    6    0    0 -0.29059637769E+02  0.27608939564E+02 -0.74371491905E+01  0.40767968790E+02  0.00000000000E+00 0. -1.
        -12    1    6    6    0    0 -0.14059952063E+02 -0.25694920954E+02 -0.78546009767E+02  0.83829510705E+02  0.00000000000E+00 0.  1.
</event>
<event>
12    1  0.1345781E-002  0.1774759E+03  0.7818608E-02  0.1170269E+00
          2   -1    0    0  502    0  0.00000000000E+00  0.00000000000E+00  0.27322275531E+04  0.27322275531E+04  0.00000000000E+00 0. -1.
         -2   -1    0    0    0  501 -0.00000000000E+00 -0.00000000000E+00 -0.15203271002E+02  0.15203271002E+02  0.00000000000E+00 0.  1.
          6    2    1    2  502    0  0.38304857047E+02 -0.20881928942E+02  0.68480056914E+03  0.70749747955E+03  0.17232976252E+03 0.  0.
         24    2    3    3    0    0  0.59452299021E+02 -0.61656021475E+02  0.34570707503E+03  0.36527499538E+03  0.81095004054E+02 0.  0.
         -6    2    1    2    0  501 -0.38304857047E+02  0.20881928942E+02  0.20322237130E+04  0.20399333446E+04  0.17173093393E+03 0.  0.
        -24    2    5    5    0    0  0.10977583865E+02 -0.27378718716E+02  0.16098811118E+04  0.16119693135E+04  0.76536083282E+02 0.  0.
          5    1    3    3  502    0 -0.21147441974E+02  0.40774092533E+02  0.33909349411E+03  0.34222248417E+03  0.47000000000E+01 0. -1.
        -13    1    4    4    0    0  0.12779980544E+02  0.12940880610E+02  0.14486459252E+03  0.14600186457E+03  0.00000000000E+00 0.  1.
         14    1    4    4    0    0  0.46672318477E+02 -0.74596902085E+02  0.20084248251E+03  0.21927313080E+03  0.00000000000E+00 0. -1.
         -5    1    5    5    0  501 -0.49282440912E+02  0.48260647658E+02  0.42234260119E+03  0.42796403106E+03  0.47000000000E+01 0.  1.
         11    1    6    6    0    0 -0.12944214241E+02  0.87092299471E+01  0.11377868474E+04  0.11378938059E+04  0.00000000000E+00 0. -1.
        -12    1    6    6    0    0  0.23921798105E+02 -0.36087948663E+02  0.47209426440E+03  0.47407550764E+03  0.00000000000E+00 0.  1.
</event>
<event>
12    1  0.1345781E-002  0.2208608E+03  0.7818608E-02  0.1133243E+00
          2   -1    0    0  502    0  0.00000000000E+00  0.00000000000E+00  0.65727402900E+03  0.65727402900E+03  0.00000000000E+00 0. -1.
         -2   -1    0    0    0  501 -0.00000000000E+00 -0.00000000000E+00 -0.76649453444E+02  0.76649453444E+02  0.00000000000E+00 0.  1.
          6    2    1    2  502    0  0.13656582013E+03 -0.20361772542E+02  0.35441497962E+03  0.41707131726E+03  0.17109553147E+03 0.  0.
         24    2    3    3    0    0  0.14375570102E+03  0.30671828559E+02  0.28887588319E+03  0.33356331771E+03  0.78795611470E+02 0.  0.
         -6    2    1    2    0  501 -0.13656582013E+03  0.20361772542E+02  0.22620959594E+03  0.31685216519E+03  0.17366544930E+03 0.  0.
        -24    2    5    5    0    0 -0.81147869719E+02  0.50291717680E+02  0.57941546441E+02  0.13712131829E+03  0.79566321389E+02 0.  0.
          5    1    3    3  502    0 -0.71898808860E+01 -0.51033601100E+02  0.65539096429E+02  0.83507999552E+02  0.47000000000E+01 0. -1.
        -13    1    4    4    0    0 -0.97574979417E+01 -0.16109440320E+01  0.15987641290E+02  0.18799164364E+02  0.00000000000E+00 0.  1.
         14    1    4    4    0    0  0.15351319896E+03  0.32282772591E+02  0.27288824190E+03  0.31476415334E+03  0.00000000000E+00 0. -1.
         -5    1    5    5    0  501 -0.55417950415E+02 -0.29929945138E+02  0.16826804949E+03  0.17973084689E+03  0.47000000000E+01 0.  1.
         13    1    6    6    0    0 -0.58842152572E+02  0.40119068490E+02  0.77871287944E+02  0.10552666043E+03  0.00000000000E+00 0. -1.
        -14    1    6    6    0    0 -0.22305717147E+02  0.10172649190E+02 -0.19929741503E+02  0.31594657861E+02  0.00000000000E+00 0.  1.
</event>
<event>
12    1  0.1345781E-002  0.1752672E+03  0.7818608E-02  0.1172464E+00
          2   -1    0    0  502    0  0.00000000000E+00  0.00000000000E+00  0.26118671831E+03  0.26118671831E+03  0.00000000000E+00 0. -1.
         -2   -1    0    0    0  501 -0.00000000000E+00 -0.00000000000E+00 -0.12080642691E+03  0.12080642691E+03  0.00000000000E+00 0.  1.
          6    2    1    2  502    0 -0.42026621749E+02  0.11951900755E+01  0.40059678884E+02  0.18190319724E+03  0.17238425067E+03 0.  0.
         24    2    3    3    0    0 -0.45797078275E+02  0.53318579910E+02 -0.11912332903E+02  0.10805034273E+03  0.81195625167E+02 0.  0.
         -6    2    1    2    0  501  0.42026621749E+02 -0.11951900755E+01  0.10032061251E+03  0.20008994798E+03  0.16794075317E+03 0.  0.
        -24    2    5    5    0    0 -0.16742519909E+02 -0.34363350485E+02  0.95548268312E+02  0.13227546468E+03  0.83103400349E+02 0.  0.
          5    1    3    3  502    0  0.37704565262E+01 -0.52123389835E+02  0.51972011787E+02  0.73852854511E+02  0.47000000000E+01 0. -1.
        -13    1    4    4    0    0 -0.48562185687E+02  0.26041840625E+02 -0.40541262201E+02  0.68410944173E+02  0.00000000000E+00 0.  1.
         14    1    4    4    0    0  0.27651074115E+01  0.27276739286E+02  0.28628929298E+02  0.39639398555E+02  0.00000000000E+00 0. -1.
         -5    1    5    5    0  501  0.58769141658E+02  0.33168160409E+02  0.47723441956E+01  0.67814483300E+02  0.47000000000E+01 0.  1.
         11    1    6    6    0    0 -0.24278429001E+02  0.14065536385E+02  0.38776119309E+01  0.28325206140E+02  0.00000000000E+00 0. -1.
        -12    1    6    6    0    0  0.75359090922E+01 -0.48428886870E+02  0.91670656381E+02  0.10395025854E+03  0.00000000000E+00 0.  1.
</event>
<event>
12    1  0.1345781E-002  0.2125010E+03  0.7818608E-02  0.1139601E+00
         -1   -1    0    0    0  501 -0.00000000000E+00  0.00000000000E+00  0.70850987797E+02  0.70850987797E+02  0.00000000000E+00 0. -1.
          1   -1    0    0  502    0  0.00000000000E+00 -0.00000000000E+00 -0.67559936558E+03  0.67559936558E+03  0.00000000000E+00 0.  1.
          6    2    1    2  502    0 -0.11332041083E+03 -0.17840933278E+01 -0.38562871428E+03  0.43843321075E+03  0.17512702964E+03 0.  0.
         24    2    3    3    0    0 -0.10502629163E+03  0.53269770668E+02 -0.34016400491E+03  0.36639953701E+03  0.68329203738E+02 0.  0.
         -6    2    1    2    0  501  0.11332041083E+03  0.17840933278E+01 -0.21911966350E+03  0.30801714263E+03  0.18443544865E+03 0.  0.
        -24    2    5    5    0    0  0.10457240319E+03 -0.66182950416E+02 -0.14434979513E+03  0.20648552248E+03  0.80522277699E+02 0.  0.
          5    1    3    3  502    0 -0.82941192032E+01 -0.55053863996E+02 -0.45464709369E+02  0.72033673738E+02  0.47000000000E+01 0. -1.
        -13    1    4    4    0    0 -0.10673492973E+03  0.27521830593E+02 -0.26941082113E+03  0.29108759322E+03  0.00000000000E+00 0.  1.
         14    1    4    4    0    0  0.17086381054E+01  0.25747940075E+02 -0.70753183778E+02  0.75311943787E+02  0.00000000000E+00 0. -1.
         -5    1    5    5    0  501  0.87480076391E+01  0.67967043744E+02 -0.74769868375E+02  0.10153162015E+03  0.47000000000E+01 0.  1.
         13    1    6    6    0    0  0.79807357706E+02 -0.10382613452E+02 -0.11043423340E+03  0.13664820860E+03  0.00000000000E+00 0. -1.
        -14    1    6    6    0    0  0.24765045485E+02 -0.55800336965E+02 -0.33915561729E+02  0.69837313885E+02  0.00000000000E+00 0.  1.
</event>
<event>
12    1  0.1345781E-002  0.1772197E+03  0.7818608E-02  0.1170521E+00
         -2   -1    0    0    0  501 -0.00000000000E+00  0.00000000000E+00  0.20091470620E+02  0.20091470620E+02  0.00000000000E+00 0. -1.
          2   -1    0    0  502    0  0.00000000000E+00 -0.00000000000E+00 -0.15845207516E+04  0.15845207516E+04  0.00000000000E+00 0.  1.
          6    2    1    2  502    0  0.14276813491E+02  0.45242165843E+02 -0.86972468687E+03  0.88735048764E+03  0.16946733015E+03 0.  0.
         24    2    3    3    0    0 -0.29324108052E+01  0.86151907114E+02 -0.53437082673E+03  0.54903988206E+03  0.91988377028E+02 0.  0.
         -6    2    1    2    0  501 -0.14276813491E+02 -0.45242165843E+02 -0.69470459412E+03  0.71726173459E+03  0.17204430198E+03 0.  0.
        -24    2    5    5    0    0  0.52564297074E+02 -0.92131685721E+01 -0.47871441096E+03  0.48826463433E+03  0.79918571534E+02 0.  0.
          5    1    3    3  502    0  0.17209224296E+02 -0.40909741270E+02 -0.33535386015E+03  0.33831060558E+03  0.47000000000E+01 0. -1.
        -13    1    4    4    0    0  0.29953653308E+02  0.46057818713E+02 -0.41854733319E+03  0.42213790890E+03  0.00000000000E+00 0.  1.
         14    1    4    4    0    0 -0.32886064113E+02  0.40094088401E+02 -0.11582349353E+03  0.12690197316E+03  0.00000000000E+00 0. -1.
         -5    1    5    5    0  501 -0.66841110565E+02 -0.36028997271E+02 -0.21599018316E+03  0.22899710026E+03  0.47000000000E+01 0.  1.
         11    1    6    6    0    0  0.43936623936E+02  0.33476631333E+00 -0.98766319867E+02  0.10809868145E+03  0.00000000000E+00 0. -1.
        -12    1    6    6    0    0  0.86276731382E+01 -0.95479348854E+01 -0.37994809109E+03  0.38016595288E+03  0.00000000000E+00 0.  1.
</event>
<event>
12    1  0.1345781E-002  0.2305127E+03  0.7818608E-02  0.1126279E+00
         -2   -1    0    0    0  501 -0.00000000000E+00  0.00000000000E+00  0.30330633504E+02  0.30330633504E+02  0.00000000000E+00 0.  1.
          2   -1    0    0  502    0  0.00000000000E+00 -0.00000000000E+00 -0.17574274338E+04  0.17574274338E+04  0.00000000000E+00 0. -1.
          6    2    1    2  502    0  0.99933738636E+02  0.11560748374E+03 -0.91188804146E+03  0.94045570663E+03  0.17194561225E+03 0.  0.
         24    2    3    3    0    0  0.10125196404E+03  0.50046244729E+02 -0.80817376429E+03  0.81766012420E+03  0.51639699589E+02 0.  0.
         -6    2    1    2    0  501 -0.99933738636E+02 -0.11560748374E+03 -0.81520875882E+03  0.84730236066E+03  0.17321699541E+03 0.  0.
        -24    2    5    5    0    0 -0.27987988081E+02 -0.13064977414E+03 -0.49501025005E+03  0.51874241705E+03  0.78777259599E+02 0.  0.
          5    1    3    3  502    0 -0.13182254052E+01  0.65561239008E+02 -0.10371427717E+03  0.12279558244E+03  0.47000000000E+01 0. -1.
        -11    1    4    4    0    0  0.61612078556E+02  0.21451172339E+02 -0.29312168534E+03  0.30029406161E+03  0.00000000000E+00 0.  1.
         12    1    4    4    0    0  0.39639885485E+02  0.28595072390E+02 -0.51505207895E+03  0.51736606259E+03  0.00000000000E+00 0. -1.
         -5    1    5    5    0  501 -0.71945750555E+02  0.15042290403E+02 -0.32019850877E+03  0.32855994360E+03  0.47000000000E+01 0.  1.
         11    1    6    6    0    0  0.36743297158E+01 -0.23314286555E+02 -0.22815008539E+03  0.22936764837E+03  0.00000000000E+00 0. -1.
        -12    1    6    6    0    0 -0.31662317797E+02 -0.10733548759E+03 -0.26686016466E+03  0.28937476868E+03  0.00000000000E+00 0.  1.
</event>
<event>
12    1  0.1345781E-002  0.1793507E+03  0.7818608E-02  0.1168433E+00
         -2   -1    0    0    0  501 -0.00000000000E+00  0.00000000000E+00  0.56139585469E+02  0.56139585469E+02  0.00000000000E+00 0. -1.
          2   -1    0    0  502    0  0.00000000000E+00 -0.00000000000E+00 -0.59886044299E+03  0.59886044299E+03  0.00000000000E+00 0.  1.
          6    2    1    2  502    0  0.54132874739E+02  0.35450418772E+01 -0.34127783435E+03  0.38614019004E+03  0.17231004236E+03 0.  0.
         24    2    3    3    0    0 -0.99960375605E+01 -0.40244085292E+02 -0.25285796013E+03  0.26836850751E+03  0.79780954178E+02 0.  0.
         -6    2    1    2    0  501 -0.54132874739E+02 -0.35450418772E+01 -0.20144302317E+03  0.26885983842E+03  0.16959771720E+03 0.  0.
        -24    2    5    5    0    0  0.21473704618E+02  0.38659585518E+02 -0.11265855796E+03  0.14475360699E+03  0.79410153718E+02 0.  0.
          5    1    3    3  502    0  0.64128912299E+02  0.43789127170E+02 -0.88419874214E+02  0.11777168253E+03  0.47000000000E+01 0. -1.
        -13    1    4    4    0    0  0.27218831531E+02  0.24470447792E+01 -0.13333144423E+03  0.13610336821E+03  0.00000000000E+00 0.  1.
         14    1    4    4    0    0 -0.37214869091E+02 -0.42691130072E+02 -0.11952651590E+03  0.13226513929E+03  0.00000000000E+00 0. -1.
         -5    1    5    5    0  501 -0.75606579356E+02 -0.42204627395E+02 -0.88784465213E+02  0.12410623143E+03  0.47000000000E+01 0.  1.
         13    1    6    6    0    0 -0.26496848757E+02  0.31377283411E+02 -0.39597969154E+02  0.57049242497E+02  0.00000000000E+00 0. -1.
        -14    1    6    6    0    0  0.47970553375E+02  0.72823021065E+01 -0.73060588806E+02  0.87704364496E+02  0.00000000000E+00 0.  1.
</event>
<event>
12    1  0.1345781E-002  0.3230119E+03  0.7818608E-02  0.1074271E+00
         -2   -1    0    0    0  501 -0.00000000000E+00  0.00000000000E+00  0.12137349352E+03  0.12137349352E+03  0.00000000000E+00 0. -1.
          2   -1    0    0  502    0  0.00000000000E+00 -0.00000000000E+00 -0.91745791370E+03  0.91745791370E+03  0.00000000000E+00 0.  1.
          6    2    1    2  502    0 -0.21372704929E+03  0.17053660548E+03 -0.52849203194E+03  0.61940973590E+03  0.17205408363E+03 0.  0.
         24    2    3    3    0    0 -0.21706755019E+03  0.17219523516E+03 -0.53677867179E+03  0.60917897841E+03  0.78728424865E+02 0.  0.
         -6    2    1    2    0  501  0.21372704929E+03 -0.17053660548E+03 -0.26759238824E+03  0.41942167132E+03  0.17189202054E+03 0.  0.
        -24    2    5    5    0    0  0.21701533496E+03 -0.14971276191E+03 -0.28148024965E+03  0.39374273096E+03  0.79326165618E+02 0.  0.
          5    1    3    3  502    0  0.33405009050E+01 -0.16586296833E+01  0.82866398544E+01  0.10230757489E+02  0.47000000000E+01 0. -1.
        -13    1    4    4    0    0 -0.25277463446E+02 -0.56055224816E+01 -0.60812550404E+02  0.66094919072E+02  0.00000000000E+00 0.  1.
         14    1    4    4    0    0 -0.19179008675E+03  0.17780075765E+03 -0.47596612139E+03  0.54308405933E+03  0.00000000000E+00 0. -1.
         -5    1    5    5    0  501 -0.32882856724E+01 -0.20823843570E+02  0.13887861413E+02  0.25678940366E+02  0.47000000000E+01 0.  1.
         13    1    6    6    0    0  0.31851357667E+02 -0.50446841316E+02 -0.32404666598E+02  0.67892968718E+02  0.00000000000E+00 0. -1.
        -14    1    6    6    0    0  0.18516397729E+03 -0.99265920594E+02 -0.24907558305E+03  0.32584976224E+03  0.00000000000E+00 0.  1.
</event>
<event>
12    1  0.1345781E-002  0.1728969E+03  0.7818608E-02  0.1174860E+00
         -3   -1    0    0    0  501 -0.00000000000E+00  0.00000000000E+00  0.11061491448E+03  0.11061491448E+03  0.00000000000E+00 0. -1.
          3   -1    0    0  502    0  0.00000000000E+00 -0.00000000000E+00 -0.39597194254E+03  0.39597194254E+03  0.00000000000E+00 0.  1.
          6    2    1    2  502    0 -0.20681618148E+02 -0.13906856698E+01 -0.46540476402E-01  0.17306327141E+03  0.17181743337E+03 0.  0.
         24    2    3    3    0    0  0.27522566362E+02 -0.19974109637E+02 -0.50855597199E+02  0.10045034353E+03  0.79671343864E+02 0.  0.
         -6    2    1    2    0  501  0.20681618148E+02  0.13906856698E+01 -0.28531048759E+03  0.33352358561E+03  0.17148249035E+03 0.  0.
        -24    2    5    5    0    0  0.50736608678E+02  0.41517459699E+02 -0.10414709957E+03  0.14549240839E+03  0.77611336995E+02 0.  0.
          5    1    3    3  502    0 -0.48204184509E+02  0.18583423967E+02  0.50809056723E+02  0.72612927882E+02  0.47000000000E+01 0. -1.
        -13    1    4    4    0    0 -0.41446072011E+01 -0.25130356381E+02 -0.61565353348E+02  0.66625860696E+02  0.00000000000E+00 0.  1.
         14    1    4    4    0    0  0.31667173563E+02  0.51562467441E+01  0.10709756148E+02  0.33824482830E+02  0.00000000000E+00 0. -1.
         -5    1    5    5    0  501 -0.30054990530E+02 -0.40126774029E+02 -0.18116338802E+03  0.18803117722E+03  0.47000000000E+01 0.  1.
         11    1    6    6    0    0  0.66263265076E+01 -0.19265999933E+02 -0.46659134207E+02  0.50913276867E+02  0.00000000000E+00 0. -1.
        -12    1    6    6    0    0  0.44110282170E+02  0.60783459632E+02 -0.57487965361E+02  0.94579131522E+02  0.00000000000E+00 0.  1.
</event>
<event>
12    1  0.1345781E-002  0.1713901E+03  0.7818608E-02  0.1176406E+00
         -2   -1    0    0    0  501 -0.00000000000E+00  0.00000000000E+00  0.92332489064E+01  0.92332489064E+01  0.00000000000E+00 0.  1.
          2   -1    0    0  502    0  0.00000000000E+00 -0.00000000000E+00 -0.33552938757E+04  0.33552938757E+04  0.00000000000E+00 0. -1.
          6    2    1    2  502    0 -0.30906210553E+01 -0.19125837231E+01 -0.12815152513E+04  0.12928022705E+04  0.17042054282E+03 0.  0.
         24    2    3    3    0    0  0.26157450902E+02  0.60586781427E+02 -0.77931729514E+03  0.78586391378E+03  0.76757241709E+02 0.  0.
         -6    2    1    2    0  501  0.30906210553E+01  0.19125837231E+01 -0.20645453755E+04  0.20717248541E+04  0.17228770612E+03 0.  0.
        -24    2    5    5    0    0  0.34874951382E+02  0.26020819598E+02 -0.61671699917E+03  0.62333935707E+03  0.79490576319E+02 0.  0.
          5    1    3    3  502    0 -0.29248071958E+02 -0.62499365151E+02 -0.50219795616E+03  0.50693835674E+03  0.47000000000E+01 0. -1.
        -11    1    4    4    0    0 -0.26102944928E+02  0.12021337581E+02 -0.17404986478E+03  0.17640643900E+03  0.00000000000E+00 0.  1.
         12    1    4    4    0    0  0.52260395830E+02  0.48565443847E+02 -0.60526743037E+03  0.60945747479E+03  0.00000000000E+00 0. -1.
         -5    1    5    5    0  501 -0.31784330327E+02 -0.24108235875E+02 -0.14478283763E+04  0.14483854970E+04  0.47000000000E+01 0.  1.
         13    1    6    6    0    0 -0.13924671760E+02 -0.15898478755E+02 -0.78645243595E+02  0.81435449593E+02  0.00000000000E+00 0. -1.
        -14    1    6    6    0    0  0.48799623143E+02  0.41919298353E+02 -0.53807175557E+03  0.54190390748E+03  0.00000000000E+00 0.  1.
</event>
<event>
12    1  0.1345781E-002  0.2252555E+03  0.7818608E-02  0.1130024E+00
          1   -1    0    0  502    0  0.00000000000E+00  0.00000000000E+00  0.27088420513E+04  0.27088420513E+04  0.00000000000E+00 0.  1.
         -1   -1    0    0    0  501 -0.00000000000E+00 -0.00000000000E+00 -0.18733789268E+02  0.18733789268E+02  0.00000000000E+00 0. -1.
          6    2    1    2  502    0 -0.14663968297E+03  0.81170180135E+01  0.13358353289E+04  0.13548494277E+04  0.17202285666E+03 0.  0.
         24    2    3    3    0    0 -0.36387713980E+02 -0.50653289695E+02  0.66058352885E+03  0.66812056621E+03  0.78260276802E+02 0.  0.
         -6    2    1    2    0  501  0.14663968297E+03 -0.81170180135E+01  0.13542729332E+04  0.13727264129E+04  0.16956870158E+03 0.  0.
        -24    2    5    5    0    0  0.53707696467E+02 -0.18539434281E+02  0.37354324457E+03  0.38753719606E+03  0.86152745071E+02 0.  0.
          5    1    3    3  502    0 -0.11025196899E+03  0.58770307708E+02  0.67525180003E+03  0.68672886147E+03  0.47000000000E+01 0. -1.
        -11    1    4    4    0    0  0.43577697467E+01 -0.20718442688E+02  0.38101640722E+02  0.43588749125E+02  0.00000000000E+00 0.  1.
         12    1    4    4    0    0 -0.40745483727E+02 -0.29934847007E+02  0.62248188813E+03  0.62453181709E+03  0.00000000000E+00 0. -1.
         -5    1    5    5    0  501  0.92931986504E+02  0.10422416267E+02  0.98072968860E+03  0.98518921684E+03  0.47000000000E+01 0.  1.
         11    1    6    6    0    0  0.67356080416E+02  0.11216812997E+02  0.21254554002E+03  0.22324485446E+03  0.00000000000E+00 0. -1.
        -12    1    6    6    0    0 -0.13648383949E+02 -0.29756247278E+02  0.16099770455E+03  0.16429234160E+03  0.00000000000E+00 0.  1.
</event>
<event>
12    1  0.1345781E-002  0.1926341E+03  0.7818608E-02  0.1156107E+00
          1   -1    0    0  502    0  0.00000000000E+00  0.00000000000E+00  0.11048269265E+03  0.11048269265E+03  0.00000000000E+00 0.  1.
         -1   -1    0    0    0  501 -0.00000000000E+00 -0.00000000000E+00 -0.33587382634E+03  0.33587382634E+03  0.00000000000E+00 0. -1.
          6    2    1    2  502    0 -0.83208932689E+02  0.16552618854E+02 -0.11293019281E+03  0.22294514123E+03  0.17249229514E+03 0.  0.
         24    2    3    3    0    0 -0.26398648745E+02  0.63138635603E+02 -0.10440923908E+03  0.14883466984E+03  0.81037607182E+02 0.  0.
         -6    2    1    2    0  501  0.83208932689E+02 -0.16552618854E+02 -0.11246094088E+03  0.22341137776E+03  0.17339972554E+03 0.  0.
        -24    2    5    5    0    0  0.98495901826E+02  0.36090618855E+01 -0.21507124122E+02  0.12888692812E+03  0.80217303921E+02 0.  0.
          5    1    3    3  502    0 -0.56810283943E+02 -0.46586016749E+02 -0.85209537241E+01  0.74110471397E+02  0.47000000000E+01 0. -1.
        -11    1    4    4    0    0 -0.35777088258E+02  0.30490683522E+02 -0.94029270314E+01  0.47938469548E+02  0.00000000000E+00 0.  1.
         12    1    4    4    0    0  0.93784395126E+01  0.32647952081E+02 -0.95006312052E+02  0.10089620029E+03  0.00000000000E+00 0. -1.
         -5    1    5    5    0  501 -0.15286969137E+02 -0.20161680740E+02 -0.90953816759E+02  0.94524449634E+02  0.47000000000E+01 0.  1.
         13    1    6    6    0    0  0.10766756895E+03  0.74443446124E+00 -0.34196421046E+02  0.11297015004E+03  0.00000000000E+00 0. -1.
        -14    1    6    6    0    0 -0.91716671273E+01  0.28646274242E+01  0.12689296924E+02  0.15916778085E+02  0.00000000000E+00 0.  1.
</event>
<event>
12    1  0.1345781E-002  0.2369935E+03  0.7818608E-02  0.1121812E+00
          2   -1    0    0  502    0  0.00000000000E+00  0.00000000000E+00  0.45780705583E+03  0.45780705583E+03  0.00000000000E+00 0.  1.
         -2   -1    0    0    0  501 -0.00000000000E+00 -0.00000000000E+00 -0.12768147567E+03  0.12768147567E+03  0.00000000000E+00 0. -1.
          6    2    1    2  502    0  0.14230113521E+03 -0.82132364697E+02  0.22302785308E+03  0.32549206178E+03  0.17090441955E+03 0.  0.
         24    2    3    3    0    0  0.98493970520E+02 -0.83094354208E+02  0.23521442223E+03  0.27976903072E+03  0.79618792971E+02 0.  0.
         -6    2    1    2    0  501 -0.14230113521E+03  0.82132364697E+02  0.10709772708E+03  0.25999646972E+03  0.17068363339E+03 0.  0.
        -24    2    5    5    0    0 -0.45944062021E+02  0.34780005690E+01 -0.37799935406E+01  0.93301678319E+02  0.81042960848E+02 0.  0.
          5    1    3    3  502    0  0.43807164689E+02  0.96198951101E+00 -0.12186569152E+02  0.45723031063E+02  0.47000000000E+01 0. -1.
        -13    1    4    4    0    0  0.44257969766E+01  0.12901060542E+02  0.43850968557E+02  0.45923114936E+02  0.00000000000E+00 0.  1.
         14    1    4    4    0    0  0.94068173543E+02 -0.95995414750E+02  0.19136345367E+03  0.23384591578E+03  0.00000000000E+00 0. -1.
         -5    1    5    5    0  501 -0.96357073188E+02  0.78654364128E+02  0.11087772062E+03  0.16669479140E+03  0.47000000000E+01 0.  1.
         13    1    6    6    0    0  0.16120730952E+02  0.62274854815E+01 -0.22542465221E+02  0.28404617232E+02  0.00000000000E+00 0. -1.
        -14    1    6    6    0    0 -0.62064792974E+02 -0.27494849125E+01  0.18762471680E+02  0.64897061087E+02  0.00000000000E+00 0.  1.
</event>
<event>
12    1  0.1345781E-002  0.1901224E+03  0.7818608E-02  0.1158351E+00
          1   -1    0    0  502    0  0.00000000000E+00  0.00000000000E+00  0.24751246894E+03  0.24751246894E+03  0.00000000000E+00 0. -1.
         -1   -1    0    0    0  501 -0.00000000000E+00 -0.00000000000E+00 -0.28103210359E+03  0.28103210359E+03  0.00000000000E+00 0.  1.
          6    2    1    2  502    0  0.63504337409E+02  0.52588739938E+02 -0.19995508142E+03  0.27649964652E+03  0.17225458920E+03 0.  0.
         24    2    3    3    0    0 -0.82545275226E+01  0.75073814684E+02 -0.84025904399E+02  0.13823693510E+03  0.79654772242E+02 0.  0.
         -6    2    1    2    0  501 -0.63504337409E+02 -0.52588739938E+02  0.16643544677E+03  0.25204492602E+03  0.17037461769E+03 0.  0.
        -24    2    5    5    0    0 -0.49121338801E+01  0.31273763498E+02  0.80956318228E+02  0.11864800996E+03  0.80754241158E+02 0.  0.
          5    1    3    3  502    0  0.71758864931E+02 -0.22485074746E+02 -0.11592917702E+03  0.13826271141E+03  0.47000000000E+01 0. -1.
        -11    1    4    4    0    0 -0.14452878585E+01  0.28889493124E+02 -0.86778370276E+02  0.91472275678E+02  0.00000000000E+00 0.  1.
         12    1    4    4    0    0 -0.68092396641E+01  0.46184321561E+02  0.27524658769E+01  0.46764659426E+02  0.00000000000E+00 0. -1.
         -5    1    5    5    0  501 -0.58592203529E+02 -0.83862503437E+02  0.85479128541E+02  0.13339691606E+03  0.47000000000E+01 0.  1.
         13    1    6    6    0    0 -0.63590447963E+01  0.80393231132E+01  0.92219207118E+02  0.92787123720E+02  0.00000000000E+00 0. -1.
        -14    1    6    6    0    0  0.14469109162E+01  0.23234440385E+02 -0.11262888890E+02  0.25860886245E+02  0.00000000000E+00 0.  1.
</event>
<event>
12    1  0.1345781E-002  0.1837751E+03  0.7818608E-02  0.1164199E+00
          3   -1    0    0  502    0  0.00000000000E+00  0.00000000000E+00  0.14370424657E+03  0.14370424657E+03  0.00000000000E+00 0. -1.
         -3   -1    0    0    0  501 -0.00000000000E+00 -0.00000000000E+00 -0.10000605133E+04  0.10000605133E+04  0.00000000000E+00 0.  1.
          6    2    1    2  502    0 -0.19169931401E+02  0.62723862244E+02  0.72323537488E+02  0.19696515030E+03  0.17106375184E+03 0.  0.
         24    2    3    3    0    0  0.51150715825E+02  0.48354566926E+02  0.43605931020E+02  0.11951670941E+03  0.86187045064E+02 0.  0.
         -6    2    1    2    0  501  0.19169931401E+02 -0.62723862244E+02 -0.92867980421E+03  0.94679960957E+03  0.17228335025E+03 0.  0.
        -24    2    5    5    0    0  0.72774749493E+02 -0.13209493599E+02 -0.54069944598E+03  0.55198826526E+03  0.82852273452E+02 0.  0.
          5    1    3    3  502    0 -0.70320647226E+02  0.14369295318E+02  0.28717606468E+02  0.77448440885E+02  0.47000000000E+01 0. -1.
        -13    1    4    4    0    0  0.28528334493E+02  0.54312421967E+02 -0.89414244909E+01  0.61997210589E+02  0.00000000000E+00 0.  1.
         14    1    4    4    0    0  0.22622381332E+02 -0.59578550416E+01  0.52547355511E+02  0.57519498824E+02  0.00000000000E+00 0. -1.
         -5    1    5    5    0  501 -0.53604818092E+02 -0.49514368645E+02 -0.38798035823E+03  0.39481134432E+03  0.47000000000E+01 0.  1.
         13    1    6    6    0    0  0.20646577714E+01 -0.13658566923E+02 -0.11187686851E+02  0.17775927520E+02  0.00000000000E+00 0. -1.
        -14    1    6    6    0    0  0.70710091722E+02  0.44907332375E+00 -0.52951175912E+03  0.53421233774E+03  0.00000000000E+00 0.  1.
</event>
<event>
12    1  0.1345781E-002  0.6184804E+03  0.7818608E-02  0.9867790E-01
          2   -1    0    0  502    0  0.00000000000E+00  0.00000000000E+00  0.15976492934E+04  0.15976492934E+04  0.00000000000E+00 0. -1.
         -2   -1    0    0    0  501 -0.00000000000E+00 -0.00000000000E+00 -0.24244611706E+03  0.24244611706E+03  0.00000000000E+00 0.  1.
          6    2    1    2  502    0  0.41220054176E+03 -0.42844096736E+03  0.78047453330E+03  0.99592309818E+03  0.17103032251E+03 0.  0.
         24    2    3    3    0    0  0.23433155420E+03 -0.30941314891E+03  0.42392695904E+03  0.58004660087E+03  0.78052665379E+02 0.  0.
         -6    2    1    2    0  501 -0.41220054176E+03  0.42844096736E+03  0.57472864303E+03  0.84417231226E+03  0.16983206567E+03 0.  0.
        -24    2    5    5    0    0 -0.20640387880E+03  0.26142966883E+03  0.24638331721E+03  0.42217967807E+03  0.81135125870E+02 0.  0.
          5    1    3    3  502    0  0.17786898756E+03 -0.11902781845E+03  0.35654757426E+03  0.41587649731E+03  0.47000000000E+01 0. -1.
        -13    1    4    4    0    0  0.19599274894E+03 -0.23798759419E+03  0.37459143695E+03  0.48514945868E+03  0.00000000000E+00 0.  1.
         14    1    4    4    0    0  0.38338805261E+02 -0.71425554722E+02  0.49335522089E+02  0.94897142191E+02  0.00000000000E+00 0. -1.
         -5    1    5    5    0  501 -0.20579666296E+03  0.16701129853E+03  0.32834532582E+03  0.42199263419E+03  0.47000000000E+01 0.  1.
         11    1    6    6    0    0 -0.83909314873E+02  0.47882409157E+02  0.66843976262E+02  0.11748027661E+03  0.00000000000E+00 0. -1.
        -12    1    6    6    0    0 -0.12249456393E+03  0.21354725967E+03  0.17953934095E+03  0.30469940146E+03  0.00000000000E+00 0.  1.
</event>
<event>
12    1  0.1345781E-002  0.2434084E+03  0.7818608E-02  0.1117543E+00
         -1   -1    0    0    0  501 -0.00000000000E+00  0.00000000000E+00  0.26517047134E+02  0.26517047134E+02  0.00000000000E+00 0. -1.
          1   -1    0    0  502    0  0.00000000000E+00 -0.00000000000E+00 -0.22982278542E+04  0.22982278542E+04  0.00000000000E+00 0.  1.
          6    2    1    2  502    0  0.16863484248E+03 -0.38335491105E+02 -0.94390089538E+03  0.97488294187E+03  0.17187358750E+03 0.  0.
         24    2    3    3    0    0  0.99269714242E+02  0.29288445632E+02 -0.70880490337E+03  0.72056673457E+03  0.78100824076E+02 0.  0.
         -6    2    1    2    0  501 -0.16863484248E+03  0.38335491105E+02 -0.13278099117E+04  0.13498619595E+04  0.17070684829E+03 0.  0.
        -24    2    5    5    0    0 -0.42158051976E+02  0.67246230188E+02 -0.62078528322E+03  0.63101696600E+03  0.80676432083E+02 0.  0.
          5    1    3    3  502    0  0.69365128239E+02 -0.67623936737E+02 -0.23509599201E+03  0.25431620730E+03  0.47000000000E+01 0. -1.
        -11    1    4    4    0    0 -0.37306724765E+01  0.26206265131E+02 -0.13162070404E+03  0.13425608359E+03  0.00000000000E+00 0.  1.
         12    1    4    4    0    0  0.10300038672E+03  0.30821805008E+01 -0.57718419933E+03  0.58631065098E+03  0.00000000000E+00 0. -1.
         -5    1    5    5    0  501 -0.12647679050E+03 -0.28910739083E+02 -0.70702462845E+03  0.71884499345E+03  0.47000000000E+01 0.  1.
         13    1    6    6    0    0 -0.17197581123E+02  0.32959535195E+02 -0.52437347385E+03  0.52568966876E+03  0.00000000000E+00 0. -1.
        -14    1    6    6    0    0 -0.24960470853E+02  0.34286694993E+02 -0.96411809369E+02  0.10532729724E+03  0.00000000000E+00 0.  1.
</event>
<event>
12    1  0.1345781E-002  0.1773830E+03  0.7818608E-02  0.1170360E+00
          2   -1    0    0  502    0  0.00000000000E+00  0.00000000000E+00  0.11778241409E+04  0.11778241409E+04  0.00000000000E+00 0. -1.
         -2   -1    0    0    0  501 -0.00000000000E+00 -0.00000000000E+00 -0.26714782154E+02  0.26714782154E+02  0.00000000000E+00 0.  1.
          6    2    1    2  502    0  0.11191665672E+02  0.39989341364E+02  0.57388199183E+03  0.60074449609E+03  0.17271076468E+03 0.  0.
         24    2    3    3    0    0  0.72106588365E+02  0.10876939637E+02  0.30039315406E+03  0.31900633019E+03  0.78811952101E+02 0.  0.
         -6    2    1    2    0  501 -0.11191665672E+02 -0.39989341364E+02  0.57722736692E+03  0.60379442697E+03  0.17219720123E+03 0.  0.
        -24    2    5    5    0    0  0.38514054608E+01  0.31793134024E+02  0.43553848815E+03  0.44417974679E+03  0.81093995457E+02 0.  0.
          5    1    3    3  502    0 -0.60914922693E+02  0.29112401727E+02  0.27348883777E+03  0.28173816590E+03  0.47000000000E+01 0. -1.
        -13    1    4    4    0    0  0.34946475957E+02  0.44505132072E+02  0.17694850948E+03  0.18577604251E+03  0.00000000000E+00 0.  1.
         14    1    4    4    0    0  0.37160112408E+02 -0.33628192435E+02  0.12344464458E+03  0.13323028768E+03  0.00000000000E+00 0. -1.
         -5    1    5    5    0  501 -0.15043071133E+02 -0.71782475388E+02  0.14168887877E+03  0.15961468018E+03  0.47000000000E+01 0.  1.
         11    1    6    6    0    0  0.10209155900E+00 -0.17185844976E+02  0.29129088718E+03  0.29179743769E+03  0.00000000000E+00 0. -1.
        -12    1    6    6    0    0  0.37493139018E+01  0.48978979001E+02  0.14424760097E+03  0.15238230909E+03  0.00000000000E+00 0.  1.
</event>
<event>
12    1  0.1345781E-002  0.2016532E+03  0.7818608E-02  0.1148352E+00
         -2   -1    0    0    0  501 -0.00000000000E+00  0.00000000000E+00  0.26563026522E+02  0.26563026522E+02  0.00000000000E+00 0.  1.
          2   -1    0    0  502    0  0.00000000000E+00 -0.00000000000E+00 -0.18757818663E+04  0.18757818663E+04  0.00000000000E+00 0. -1.
          6    2    1    2  502    0  0.10224708123E+03 -0.34337972291E+02 -0.13327769360E+04  0.13479574173E+04  0.17047368051E+03 0.  0.
         24    2    3    3    0    0  0.11566881977E+03 -0.41307005288E+02 -0.71499870435E+03  0.72997623313E+03  0.80972891473E+02 0.  0.
         -6    2    1    2    0  501 -0.10224708123E+03  0.34337972291E+02 -0.51644190380E+03  0.55438747555E+03  0.17029289793E+03 0.  0.
        -24    2    5    5    0    0 -0.13652283494E+03  0.11692638257E+02 -0.44790500733E+03  0.47434352122E+03  0.74884432890E+02 0.  0.
          5    1    3    3  502    0 -0.13421738546E+02  0.69690329975E+01 -0.61777823161E+03  0.61798118413E+03  0.47000000000E+01 0. -1.
        -11    1    4    4    0    0 -0.83737578635E+01 -0.19210387928E+02 -0.11448565143E+03  0.11638781384E+03  0.00000000000E+00 0.  1.
         12    1    4    4    0    0  0.12404257764E+03 -0.22096617360E+02 -0.60051305292E+03  0.61358841929E+03  0.00000000000E+00 0. -1.
         -5    1    5    5    0  501  0.34275753710E+02  0.22645334034E+02 -0.68536896473E+02  0.80043954325E+02  0.47000000000E+01 0.  1.
         13    1    6    6    0    0 -0.86630212806E+02 -0.10979889934E+02 -0.17032294927E+03  0.19140339287E+03  0.00000000000E+00 0. -1.
        -14    1    6    6    0    0 -0.49892622131E+02  0.22672528192E+02 -0.27758205806E+03  0.28294012836E+03  0.00000000000E+00 0.  1.
</event>
<event>
12    1  0.1345781E-002  0.3186596E+03  0.7818608E-02  0.1076268E+00
          2   -1    0    0  502    0  0.00000000000E+00  0.00000000000E+00  0.16492928925E+04  0.16492928925E+04  0.00000000000E+00 0. -1.
         -2   -1    0    0    0  501 -0.00000000000E+00 -0.00000000000E+00 -0.61768688706E+02  0.61768688706E+02  0.00000000000E+00 0.  1.
          6    2    1    2  502    0 -0.25439209754E+03  0.90360717121E+02  0.74081176280E+03  0.80573715634E+03  0.16592136301E+03 0.  0.
         24    2    3    3    0    0 -0.17964958673E+03  0.12185378734E+03  0.48702939740E+03  0.53926795477E+03  0.80560372450E+02 0.  0.
         -6    2    1    2    0  501  0.25439209754E+03 -0.90360717121E+02  0.84671244094E+03  0.90532442482E+03  0.17265560530E+03 0.  0.
        -24    2    5    5    0    0  0.13716454464E+03  0.10695804211E+02  0.34906481334E+03  0.38414310233E+03  0.82408534849E+02 0.  0.
          5    1    3    3  502    0 -0.74742510815E+02 -0.31493070218E+02  0.25378236540E+03  0.26646920157E+03  0.47000000000E+01 0. -1.
        -11    1    4    4    0    0 -0.15137956359E+03  0.58945625092E+02  0.33371079634E+03  0.37115125567E+03  0.00000000000E+00 0.  1.
         12    1    4    4    0    0 -0.28270023134E+02  0.62908162247E+02  0.15331860106E+03  0.16811669910E+03  0.00000000000E+00 0. -1.
         -5    1    5    5    0  501  0.11722755290E+03 -0.10105652133E+03  0.49764762760E+03  0.52118132250E+03  0.47000000000E+01 0.  1.
         11    1    6    6    0    0  0.58932968905E+02  0.20669084012E+02  0.24912629432E+03  0.25683499835E+03  0.00000000000E+00 0. -1.
        -12    1    6    6    0    0  0.78231575739E+02 -0.99732798015E+01  0.99938519023E+02  0.12730810397E+03  0.00000000000E+00 0.  1.
</event>
<event>
12    1  0.1345781E-002  0.1876759E+03  0.7818608E-02  0.1160574E+00
         -2   -1    0    0    0  501 -0.00000000000E+00  0.00000000000E+00  0.35938116456E+03  0.35938116456E+03  0.00000000000E+00 0.  1.
          2   -1    0    0  502    0  0.00000000000E+00 -0.00000000000E+00 -0.17052873624E+03  0.17052873624E+03  0.00000000000E+00 0. -1.
          6    2    1    2  502    0 -0.79436175194E+02 -0.34851915753E+02 -0.78982303648E+02  0.20156732646E+03  0.16390979485E+03 0.  0.
         24    2    3    3    0    0 -0.91938005627E+02  0.14234969819E+02 -0.20296559946E+02  0.12390186044E+03  0.79274771712E+02 0.  0.
         -6    2    1    2    0  501  0.79436175194E+02  0.34851915753E+02  0.26783473197E+03  0.32834257434E+03  0.16896342951E+03 0.  0.
        -24    2    5    5    0    0  0.32723974771E+02  0.69911427336E+02  0.23875156555E+03  0.26292759448E+03  0.78550262181E+02 0.  0.
          5    1    3    3  502    0  0.12501830432E+02 -0.49086885572E+02 -0.58685743702E+02  0.77665466027E+02  0.47000000000E+01 0. -1.
        -13    1    4    4    0    0 -0.50937719390E+02  0.16872441929E+02 -0.49889513762E+02  0.73268643612E+02  0.00000000000E+00 0.  1.
         14    1    4    4    0    0 -0.41000286236E+02 -0.26374721097E+01  0.29592953816E+02  0.50633216826E+02  0.00000000000E+00 0. -1.
         -5    1    5    5    0  501  0.46712200423E+02 -0.35059511583E+02  0.29083166417E+02  0.65414979857E+02  0.47000000000E+01 0.  1.
         11    1    6    6    0    0  0.19856016450E+01 -0.17406267224E+02  0.40669265440E+02  0.44282162368E+02  0.00000000000E+00 0. -1.
        -12    1    6    6    0    0  0.30738373126E+02  0.87317694561E+02  0.19808230011E+03  0.21864543211E+03  0.00000000000E+00 0.  1.
</event>
<event>
12    1  0.1345781E-002  0.1754458E+03  0.7818608E-02  0.1172285E+00
         -1   -1    0    0    0  501 -0.00000000000E+00  0.00000000000E+00  0.30499205679E+03  0.30499205679E+03  0.00000000000E+00 0. -1.
          1   -1    0    0  502    0  0.00000000000E+00 -0.00000000000E+00 -0.10895933327E+03  0.10895933327E+03  0.00000000000E+00 0.  1.
          6    2    1    2  502    0  0.16945039045E+02  0.13597459018E+02  0.15610111429E+03  0.23788856744E+03  0.17818918990E+03 0.  0.
         24    2    3    3    0    0 -0.58792619782E+02  0.19663825568E+02  0.10366480232E+03  0.14545128827E+03  0.81033621672E+02 0.  0.
         -6    2    1    2    0  501 -0.16945039045E+02 -0.13597459018E+02  0.39931609240E+02  0.17606282262E+03  0.17009279483E+03 0.  0.
        -24    2    5    5    0    0  0.70989237298E+01  0.24632648761E+02 -0.32668117524E+02  0.90433016989E+02  0.80335313257E+02 0.  0.
          5    1    3    3  502    0  0.75737658828E+02 -0.60663665504E+01  0.52436311963E+02  0.92437279169E+02  0.47000000000E+01 0. -1.
        -13    1    4    4    0    0 -0.36670465681E+02  0.49042219261E+02  0.44156157580E+02  0.75495884494E+02  0.00000000000E+00 0.  1.
         14    1    4    4    0    0 -0.22122154102E+02 -0.29378393693E+02  0.59508644744E+02  0.69955403775E+02  0.00000000000E+00 0. -1.
         -5    1    5    5    0  501 -0.24043962775E+02 -0.38230107779E+02  0.72599726763E+02  0.85629805633E+02  0.47000000000E+01 0.  1.
         11    1    6    6    0    0  0.67360180000E+01  0.54233860113E+02 -0.19394198365E+02  0.57989830587E+02  0.00000000000E+00 0. -1.
        -12    1    6    6    0    0  0.36290572979E+00 -0.29601211352E+02 -0.13273919159E+02  0.32443186402E+02  0.00000000000E+00 0.  1.
</event>
<event>
12    1  0.1345781E-002  0.2359399E+03  0.7818608E-02  0.1122527E+00
         -2   -1    0    0    0  501 -0.00000000000E+00  0.00000000000E+00  0.56865052175E+02  0.56865052175E+02  0.00000000000E+00 0. -1.
          2   -1    0    0  502    0  0.00000000000E+00 -0.00000000000E+00 -0.98898284319E+03  0.98898284319E+03  0.00000000000E+00 0.  1.
          6    2    1    2  502    0 -0.83532501361E+02  0.13861336291E+03 -0.51913512466E+03  0.57031852688E+03  0.17196104582E+03 0.  0.
         24    2    3    3    0    0 -0.11475054997E+03  0.62040260684E+02 -0.35684375573E+03  0.38811373832E+03  0.79234621246E+02 0.  0.
         -6    2    1    2    0  501  0.83532501361E+02 -0.13861336291E+03 -0.41298266635E+03  0.47552936849E+03  0.17141223534E+03 0.  0.
        -24    2    5    5    0    0  0.11701272158E+03 -0.68993479300E+02 -0.29144823757E+03  0.33144411345E+03  0.80380644167E+02 0.  0.
          5    1    3    3  502    0  0.31218048608E+02  0.76573102230E+02 -0.16229136893E+03  0.18220478856E+03  0.47000000000E+01 0. -1.
        -13    1    4    4    0    0 -0.23974166850E+01  0.30029335671E+02 -0.12399254897E+03  0.12759961131E+03  0.00000000000E+00 0.  1.
         14    1    4    4    0    0 -0.11235313328E+03  0.32010925013E+02 -0.23285120676E+03  0.26051412701E+03  0.00000000000E+00 0. -1.
         -5    1    5    5    0  501 -0.33480220223E+02 -0.69619883615E+02 -0.12153442878E+03  0.14408525504E+03  0.47000000000E+01 0.  1.
         11    1    6    6    0    0  0.36198548589E+02 -0.62539642551E+02 -0.98562231266E+02  0.12221315495E+03  0.00000000000E+00 0. -1.
        -12    1    6    6    0    0  0.80814172995E+02 -0.64538367488E+01 -0.19288600631E+03  0.20923095850E+03  0.00000000000E+00 0.  1.
</event>
<event>
12    1  0.1345781E-002  0.2508587E+03  0.7818608E-02  0.1112763E+00
          1   -1    0    0  502    0  0.00000000000E+00  0.00000000000E+00  0.26694988258E+04  0.26694988258E+04  0.00000000000E+00 0.  1.
         -1   -1    0    0    0  501 -0.00000000000E+00 -0.00000000000E+00 -0.24418716143E+02  0.24418716143E+02  0.00000000000E+00 0. -1.
          6    2    1    2  502    0  0.17643049613E+03 -0.48226999132E+02  0.10691923080E+04  0.10981012563E+04  0.17088187196E+03 0.  0.
         24    2    3    3    0    0  0.17832452072E+03 -0.81152620205E+02  0.82231038977E+03  0.84898189654E+03  0.78679737376E+02 0.  0.
         -6    2    1    2    0  501 -0.17643049613E+03  0.48226999132E+02  0.15758878017E+04  0.15958162857E+04  0.17249258169E+03 0.  0.
        -24    2    5    5    0    0 -0.13237056686E+03  0.60504688552E+01  0.14073993029E+04  0.14165661775E+04  0.91259860754E+02 0.  0.
          5    1    3    3  502    0 -0.18940245906E+01  0.32925621073E+02  0.24688191821E+03  0.24911935973E+03  0.47000000000E+01 0. -1.
        -13    1    4    4    0    0 -0.75713141314E+01 -0.62159898608E+01  0.58349172343E+02  0.59165777614E+02  0.00000000000E+00 0.  1.
         14    1    4    4    0    0  0.18589583485E+03 -0.74936630344E+02  0.76396121743E+03  0.78981611893E+03  0.00000000000E+00 0. -1.
         -5    1    5    5    0  501 -0.44059929270E+02  0.42176530276E+02  0.16848849876E+03  0.17925010820E+03  0.47000000000E+01 0.  1.
         11    1    6    6    0    0 -0.16796236155E+02  0.12573852480E+02  0.49783294122E+02  0.54023991789E+02  0.00000000000E+00 0. -1.
        -12    1    6    6    0    0 -0.11557433071E+03 -0.65233836250E+01  0.13576160088E+04  0.13625421857E+04  0.00000000000E+00 0.  1.
</event>
<event>
12    1  0.1345781E-002  0.2563093E+03  0.7818608E-02  0.1109381E+00
         -1   -1    0    0    0  501 -0.00000000000E+00  0.00000000000E+00  0.20295540850E+03  0.20295540850E+03  0.00000000000E+00 0.  1.
          1   -1    0    0  502    0  0.00000000000E+00 -0.00000000000E+00 -0.51757578305E+03  0.51757578305E+03  0.00000000000E+00 0. -1.
          6    2    1    2  502    0  0.18645781952E+03  0.30859879128E+02  0.63275864796E+02  0.26378774862E+03  0.17280419744E+03 0.  0.
         24    2    3    3    0    0  0.77686836790E+02  0.58788468405E+02 -0.14375225548E+02  0.12717547020E+03  0.80471264949E+02 0.  0.
         -6    2    1    2    0  501 -0.18645781952E+03 -0.30859879128E+02 -0.37789623935E+03  0.45674344292E+03  0.17346513868E+03 0.  0.
        -24    2    5    5    0    0 -0.11823951347E+03 -0.45383470232E+02 -0.12862941232E+03  0.19785985318E+03  0.81010825647E+02 0.  0.
          5    1    3    3  502    0  0.10877098273E+03 -0.27928589277E+02  0.77651090344E+02  0.13661227842E+03  0.47000000000E+01 0. -1.
        -13    1    4    4    0    0  0.65232097914E+02  0.21254159308E+02  0.23398150512E+02  0.72487511570E+02  0.00000000000E+00 0.  1.
         14    1    4    4    0    0  0.12454738876E+02  0.37534309098E+02 -0.37773376060E+02  0.54687958628E+02  0.00000000000E+00 0. -1.
         -5    1    5    5    0  501 -0.68218306055E+02  0.14523591104E+02 -0.24926682703E+03  0.25888358974E+03  0.47000000000E+01 0.  1.
         11    1    6    6    0    0 -0.64659465527E+02 -0.10537636149E+02 -0.11523705596E+03  0.13255741142E+03  0.00000000000E+00 0. -1.
        -12    1    6    6    0    0 -0.53580047943E+02 -0.34845834083E+02 -0.13392356360E+02  0.65302441757E+02  0.00000000000E+00 0.  1.
</event>
<event>
12    1  0.1345781E-002  0.3501310E+03  0.7818608E-02  0.1062561E+00
          2   -1    0    0  502    0  0.00000000000E+00  0.00000000000E+00  0.57441086857E+03  0.57441086857E+03  0.00000000000E+00 0. -1.
         -2   -1    0    0    0  501 -0.00000000000E+00 -0.00000000000E+00 -0.21386576101E+03  0.21386576101E+03  0.00000000000E+00 0.  1.
          6    2    1    2  502    0 -0.24163869103E+03  0.18571363377E+03  0.19832160161E+03  0.40255042622E+03  0.17273267558E+03 0.  0.
         24    2    3    3    0    0 -0.88001786213E+02  0.23799462954E+02  0.10441406511E+03  0.16034965693E+03  0.80616292839E+02 0.  0.
         -6    2    1    2    0  501  0.24163869103E+03 -0.18571363377E+03  0.16222350596E+03  0.38572620335E+03  0.17201577630E+03 0.  0.
        -24    2    5    5    0    0  0.17831293887E+03 -0.18618282882E+03  0.78169902489E+02  0.28038167675E+03  0.77741887576E+02 0.  0.
          5    1    3    3  502    0 -0.15363690482E+03  0.16191417082E+03  0.93907536500E+02  0.24220076929E+03  0.47000000000E+01 0. -1.
        -13    1    4    4    0    0 -0.17862321450E+02  0.19200769108E+02 -0.83068096133E+01  0.27508819456E+02  0.00000000000E+00 0.  1.
         14    1    4    4    0    0 -0.70139464763E+02  0.45986938456E+01  0.11272087472E+03  0.13284083747E+03  0.00000000000E+00 0. -1.
         -5    1    5    5    0  501  0.63325752161E+02  0.46919504591E+00  0.84053603466E+02  0.10534452661E+03  0.47000000000E+01 0.  1.
         11    1    6    6    0    0  0.15570713872E+02 -0.71825949359E+01  0.28732443415E+02  0.33460276524E+02  0.00000000000E+00 0. -1.
        -12    1    6    6    0    0  0.16274222500E+03 -0.17900023388E+03  0.49437459074E+02  0.24692140022E+03  0.00000000000E+00 0.  1.
</event>
<event>
12    1  0.1345781E-002  0.2458078E+03  0.7818608E-02  0.1115983E+00
          1   -1    0    0  502    0  0.00000000000E+00  0.00000000000E+00  0.48189856806E+03  0.48189856806E+03  0.00000000000E+00 0. -1.
         -1   -1    0    0    0  501 -0.00000000000E+00 -0.00000000000E+00 -0.18052234374E+03  0.18052234374E+03  0.00000000000E+00 0.  1.
          6    2    1    2  502    0 -0.59620965487E+02  0.16591478742E+03  0.33404713061E+03  0.41517226328E+03  0.17233150181E+03 0.  0.
         24    2    3    3    0    0  0.55158454502E+01  0.15283502766E+03  0.19149142759E+03  0.25782518603E+03  0.80099247696E+02 0.  0.
         -6    2    1    2    0  501  0.59620965487E+02 -0.16591478742E+03 -0.32670906290E+02  0.24724864851E+03  0.17024138705E+03 0.  0.
        -24    2    5    5    0    0 -0.45057430485E+01 -0.38741130918E+02 -0.52327135161E+02  0.10339514321E+03  0.80195072293E+02 0.  0.
          5    1    3    3  502    0 -0.65136810937E+02  0.13079759762E+02  0.14255570302E+03  0.15734707725E+03  0.47000000000E+01 0. -1.
        -13    1    4    4    0    0  0.35281303667E+02  0.32563367252E+02  0.64463992900E+02  0.80378788594E+02  0.00000000000E+00 0.  1.
         14    1    4    4    0    0 -0.29765458217E+02  0.12027166040E+03  0.12702743469E+03  0.17744639744E+03  0.00000000000E+00 0. -1.
         -5    1    5    5    0  501  0.64126708535E+02 -0.12717365650E+03  0.19656228871E+02  0.14385350530E+03  0.47000000000E+01 0.  1.
         13    1    6    6    0    0 -0.20440202647E+01 -0.14647779035E+02  0.21275090450E+02  0.25910710587E+02  0.00000000000E+00 0. -1.
        -14    1    6    6    0    0 -0.24617227838E+01 -0.24093351883E+02 -0.73602225610E+02  0.77484432622E+02  0.00000000000E+00 0.  1.
</event>
<event>
12    1  0.1345781E-002  0.1858640E+03  0.7818608E-02  0.1162246E+00
         -2   -1    0    0    0  501 -0.00000000000E+00  0.00000000000E+00  0.60040884941E+02  0.60040884941E+02  0.00000000000E+00 0.  1.
          2   -1    0    0  502    0  0.00000000000E+00 -0.00000000000E+00 -0.61958265104E+03  0.61958265104E+03  0.00000000000E+00 0. -1.
          6    2    1    2  502    0  0.56365421581E+02  0.42433561346E+02 -0.37428371700E+03  0.41914119228E+03  0.17496676934E+03 0.  0.
         24    2    3    3    0    0  0.34640465595E+02  0.96865597425E+02 -0.26462483767E+03  0.29471458708E+03  0.79040984980E+02 0.  0.
         -6    2    1    2    0  501 -0.56365421581E+02 -0.42433561346E+02 -0.18525804910E+03  0.26048234371E+03  0.16897585256E+03 0.  0.
        -24    2    5    5    0    0 -0.62132013797E+01 -0.83789817057E+02 -0.10601890677E+03  0.15788352912E+03  0.81411687491E+02 0.  0.
          5    1    3    3  502    0  0.21724955985E+02 -0.54432036079E+02 -0.10965887933E+03  0.12442660520E+03  0.47000000000E+01 0. -1.
        -11    1    4    4    0    0  0.18125870468E+02  0.56299528987E+02 -0.23377712104E+03  0.24114295856E+03  0.00000000000E+00 0.  1.
         12    1    4    4    0    0  0.16514595128E+02  0.40566068439E+02 -0.30847716633E+02  0.53571628520E+02  0.00000000000E+00 0. -1.
         -5    1    5    5    0  501 -0.50152220201E+02  0.41356255711E+02 -0.79239142327E+02  0.10259881458E+03  0.47000000000E+01 0.  1.
         13    1    6    6    0    0  0.17776300970E+02  0.71595712556E+01 -0.35434952020E+02  0.40285135738E+02  0.00000000000E+00 0. -1.
        -14    1    6    6    0    0 -0.23989502350E+02 -0.90949388313E+02 -0.70583954755E+02  0.11759839338E+03  0.00000000000E+00 0.  1.
</event>
<event>
12    1  0.1345781E-002  0.2431592E+03  0.7818608E-02  0.1117706E+00
         -1   -1    0    0    0  501 -0.00000000000E+00  0.00000000000E+00  0.12907686754E+03  0.12907686754E+03  0.00000000000E+00 0. -1.
          1   -1    0    0  502    0  0.00000000000E+00 -0.00000000000E+00 -0.79574734128E+03  0.79574734128E+03  0.00000000000E+00 0.  1.
          6    2    1    2  502    0  0.39709269172E+02  0.17088684417E+03 -0.63253549441E+03  0.67676548941E+03  0.16471562278E+03 0.  0.
         24    2    3    3    0    0  0.51609189270E+02  0.55980990384E+02 -0.42524036238E+03  0.43940853228E+03  0.80331268751E+02 0.  0.
         -6    2    1    2    0  501 -0.39709269172E+02 -0.17088684417E+03 -0.34134979325E+02  0.24805871941E+03  0.17201392936E+03 0.  0.
        -24    2    5    5    0    0 -0.13089330688E+00 -0.17829606315E+03 -0.49430938321E+02  0.20472973692E+03  0.87643278404E+02 0.  0.
          5    1    3    3  502    0 -0.11899920098E+02  0.11490585379E+03 -0.20729513203E+03  0.23735695713E+03  0.47000000000E+01 0. -1.
        -11    1    4    4    0    0  0.49830192348E+02 -0.19774132140E+01 -0.14822264903E+03  0.15638705803E+03  0.00000000000E+00 0.  1.
         12    1    4    4    0    0  0.17789969221E+01  0.57958403598E+02 -0.27701771335E+03  0.28302147425E+03  0.00000000000E+00 0. -1.
         -5    1    5    5    0  501 -0.39578375865E+02  0.74092189794E+01  0.15295958997E+02  0.43328982490E+02  0.47000000000E+01 0.  1.
         11    1    6    6    0    0  0.22660537582E+02 -0.42576372099E+01 -0.37679607888E+01  0.23362897223E+02  0.00000000000E+00 0. -1.
        -12    1    6    6    0    0 -0.22791430889E+02 -0.17403842594E+03 -0.45662977533E+02  0.18136683970E+03  0.00000000000E+00 0.  1.
</event>
<event>
12    1  0.1345781E-002  0.1757841E+03  0.7818608E-02  0.1171947E+00
         -2   -1    0    0    0  501 -0.00000000000E+00  0.00000000000E+00  0.47748127706E+03  0.47748127706E+03  0.00000000000E+00 0.  1.
          2   -1    0    0  502    0  0.00000000000E+00 -0.00000000000E+00 -0.81016028333E+02  0.81016028333E+02  0.00000000000E+00 0. -1.
          6    2    1    2  502    0  0.18508719306E+01  0.20307636448E+02  0.74038690000E+02  0.19182280342E+03  0.17577950526E+03 0.  0.
         24    2    3    3    0    0 -0.32848174762E+02  0.65735566535E+02  0.15942520092E+02  0.11018350142E+03  0.80536157998E+02 0.  0.
         -6    2    1    2    0  501 -0.18508719306E+01 -0.20307636448E+02  0.32242655873E+03  0.36667450197E+03  0.17342283241E+03 0.  0.
        -24    2    5    5    0    0  0.57877184559E+02 -0.10266094219E+02  0.11518474781E+03  0.15071262688E+03  0.77405481651E+02 0.  0.
          5    1    3    3  502    0  0.34699046692E+02 -0.45427930087E+02  0.58096169909E+02  0.81639302002E+02  0.47000000000E+01 0. -1.
        -11    1    4    4    0    0 -0.11035353223E+02 -0.25889807279E+01  0.34320925807E+02  0.36144263586E+02  0.00000000000E+00 0.  1.
         12    1    4    4    0    0 -0.21812821538E+02  0.68324547263E+02 -0.18378405715E+02  0.74039237832E+02  0.00000000000E+00 0. -1.
         -5    1    5    5    0  501 -0.59728056490E+02 -0.10041542229E+02  0.20724181092E+03  0.21596187509E+03  0.47000000000E+01 0.  1.
         11    1    6    6    0    0  0.15932648074E+02  0.17200634236E+02 -0.17211755038E+01  0.23509009717E+02  0.00000000000E+00 0. -1.
        -12    1    6    6    0    0  0.41944536485E+02 -0.27466728455E+02  0.11690592331E+03  0.12720361716E+03  0.00000000000E+00 0.  1.
</event>
<event>
12    1  0.1345781E-002  0.1791399E+03  0.7818608E-02  0.1168638E+00
         -1   -1    0    0    0  501 -0.00000000000E+00  0.00000000000E+00  0.58112881174E+02  0.58112881174E+02  0.00000000000E+00 0.  1.
          1   -1    0    0  502    0  0.00000000000E+00 -0.00000000000E+00 -0.69739657229E+03  0.69739657229E+03  0.00000000000E+00 0. -1.
          6    2    1    2  502    0 -0.70781327285E+01  0.51574898528E+02 -0.14725839989E+03  0.23188005269E+03  0.17138626660E+03 0.  0.
         24    2    3    3    0    0 -0.13777232585E+01  0.97553747991E+02 -0.76327012778E+02  0.14702782265E+03  0.79200605333E+02 0.  0.
         -6    2    1    2    0  501  0.70781327285E+01 -0.51574898528E+02 -0.49202529123E+03  0.52362940077E+03  0.17143159575E+03 0.  0.
        -24    2    5    5    0    0  0.53824718535E+02  0.12928434099E+02 -0.22658049131E+03  0.24644903529E+03  0.79587456414E+02 0.  0.
          5    1    3    3  502    0 -0.57004094700E+01 -0.45978849463E+02 -0.70931387109E+02  0.84852230043E+02  0.47000000000E+01 0. -1.
        -11    1    4    4    0    0  0.34185033060E+02  0.24424865099E+02 -0.13059235925E+02  0.43996979026E+02  0.00000000000E+00 0.  1.
         12    1    4    4    0    0 -0.35562756319E+02  0.73128882893E+02 -0.63267776853E+02  0.10303084362E+03  0.00000000000E+00 0. -1.
         -5    1    5    5    0  501 -0.46746585806E+02 -0.64503332628E+02 -0.26544479992E+03  0.27718036548E+03  0.47000000000E+01 0.  1.
         11    1    6    6    0    0  0.19912758462E+02 -0.32484964963E+02 -0.11748406715E+03  0.12350828690E+03  0.00000000000E+00 0. -1.
        -12    1    6    6    0    0  0.33911960073E+02  0.45413399062E+02 -0.10909642416E+03  0.12294074839E+03  0.00000000000E+00 0.  1.
</event>
<event>
12    1  0.1345781E-002  0.2049610E+03  0.7818608E-02  0.1145620E+00
          1   -1    0    0  502    0  0.00000000000E+00  0.00000000000E+00  0.89400555783E+03  0.89400555783E+03  0.00000000000E+00 0. -1.
         -1   -1    0    0    0  501 -0.00000000000E+00 -0.00000000000E+00 -0.47120912542E+02  0.47120912542E+02  0.00000000000E+00 0.  1.
          6    2    1    2  502    0  0.10656149746E+03 -0.32318578790E+02  0.44824502369E+03  0.49287522208E+03  0.17205388692E+03 0.  0.
         24    2    3    3    0    0  0.12867838548E+03  0.12674306511E+02  0.30455013023E+03  0.34061285355E+03  0.80917051649E+02 0.  0.
         -6    2    1    2    0  501 -0.10656149746E+03  0.32318578790E+02  0.39863962159E+03  0.44825124829E+03  0.17209238917E+03 0.  0.
        -24    2    5    5    0    0 -0.75952547456E+02  0.58021423929E+02  0.38746146911E+03  0.40648301680E+03  0.77244920902E+02 0.  0.
          5    1    3    3  502    0 -0.22116888020E+02 -0.44992885302E+02  0.14369489346E+03  0.15226236853E+03  0.47000000000E+01 0. -1.
        -13    1    4    4    0    0  0.17479386836E+01  0.22654554515E+02  0.27254508242E+02  0.35483691316E+02  0.00000000000E+00 0.  1.
         14    1    4    4    0    0  0.12693044679E+03 -0.99802480035E+01  0.27729562199E+03  0.30512916224E+03  0.00000000000E+00 0. -1.
         -5    1    5    5    0  501 -0.30608950001E+02 -0.25702845139E+02  0.11178152485E+02  0.41768231485E+02  0.47000000000E+01 0.  1.
         11    1    6    6    0    0 -0.71370666589E+02  0.18275239729E+02  0.16858803903E+03  0.18398283436E+03  0.00000000000E+00 0. -1.
        -12    1    6    6    0    0 -0.45818808666E+01  0.39746184201E+02  0.21887343008E+03  0.22250018244E+03  0.00000000000E+00 0.  1.
</event>
<event>
12    1  0.1345781E-002  0.2514458E+03  0.7818608E-02  0.1112394E+00
         -2   -1    0    0    0  501 -0.00000000000E+00  0.00000000000E+00  0.80383231534E+02  0.80383231534E+02  0.00000000000E+00 0.  1.
          2   -1    0    0  502    0  0.00000000000E+00 -0.00000000000E+00 -0.82979839211E+03  0.82979839211E+03  0.00000000000E+00 0. -1.
          6    2    1    2  502    0  0.97677256124E+02 -0.15742457162E+03 -0.47575722615E+03  0.53720034056E+03  0.16708059596E+03 0.  0.
         24    2    3    3    0    0  0.11569759303E+01 -0.72444958747E+02 -0.13292214898E+03  0.17100957165E+03  0.79538451490E+02 0.  0.
         -6    2    1    2    0  501 -0.97677256124E+02  0.15742457162E+03 -0.27365793442E+03  0.37298128308E+03  0.17292492690E+03 0.  0.
        -24    2    5    5    0    0 -0.96186166792E+02  0.86209624726E+02 -0.25768277698E+03  0.29983015415E+03  0.82545924843E+02 0.  0.
          5    1    3    3  502    0  0.96520280194E+02 -0.84979612878E+02 -0.34283507718E+03  0.36619076891E+03  0.47000000000E+01 0. -1.
        -11    1    4    4    0    0 -0.16129099061E+02 -0.84152003866E+02 -0.11553396608E+03  0.14383951095E+03  0.00000000000E+00 0.  1.
         12    1    4    4    0    0  0.17286074991E+02  0.11707045120E+02 -0.17388182896E+02  0.27170060700E+02  0.00000000000E+00 0. -1.
         -5    1    5    5    0  501 -0.14910893323E+01  0.71214946898E+02 -0.15975157444E+02  0.73151128935E+02  0.47000000000E+01 0.  1.
         11    1    6    6    0    0 -0.28699037546E+02  0.75328712772E+02 -0.10362025072E+03  0.13128292380E+03  0.00000000000E+00 0. -1.
        -12    1    6    6    0    0 -0.67487129246E+02  0.10880911954E+02 -0.15406252626E+03  0.16854723034E+03  0.00000000000E+00 0.  1.
</event>
<event>
12    1  0.1345781E-002  0.2183372E+03  0.7818608E-02  0.1135129E+00
         -2   -1    0    0    0  501 -0.00000000000E+00  0.00000000000E+00  0.35504123188E+02  0.35504123188E+02  0.00000000000E+00 0.  1.
          2   -1    0    0  502    0  0.00000000000E+00 -0.00000000000E+00 -0.13573180604E+04  0.13573180604E+04  0.00000000000E+00 0. -1.
          6    2    1    2  502    0  0.20443553895E+01 -0.12375248041E+03 -0.70901975892E+03  0.73990060884E+03  0.17153727476E+03 0.  0.
         24    2    3    3    0    0 -0.95937451998E+01 -0.28041932777E+01 -0.20652792400E+03  0.22290537897E+03  0.83265365776E+02 0.  0.
         -6    2    1    2    0  501 -0.20443553895E+01  0.12375248041E+03 -0.61279417834E+03  0.65292157480E+03  0.18833752155E+03 0.  0.
        -24    2    5    5    0    0 -0.71552659908E+02  0.51282685089E+02 -0.26046588023E+03  0.28653298970E+03  0.80678265331E+02 0.  0.
          5    1    3    3  502    0  0.11638100589E+02 -0.12094828713E+03 -0.50249183492E+03  0.51699522987E+03  0.47000000000E+01 0. -1.
        -13    1    4    4    0    0  0.26561891754E+02  0.19189091937E+02 -0.43421956790E+02  0.54398728610E+02  0.00000000000E+00 0.  1.
         14    1    4    4    0    0 -0.36155636954E+02 -0.21993285215E+02 -0.16310596721E+03  0.16850665036E+03  0.00000000000E+00 0. -1.
         -5    1    5    5    0  501  0.69508304518E+02  0.72469795322E+02 -0.35232829812E+03  0.36638858509E+03  0.47000000000E+01 0.  1.
         11    1    6    6    0    0 -0.30585148788E+02  0.34222829752E+02 -0.22525430811E+03  0.22988291961E+03  0.00000000000E+00 0. -1.
        -12    1    6    6    0    0 -0.40967511120E+02  0.17059855337E+02 -0.35211572111E+02  0.56650070097E+02  0.00000000000E+00 0.  1.
</event>
<event>
12    1  0.1345781E-002  0.2076308E+03  0.7818608E-02  0.1143456E+00
         -1   -1    0    0    0  501 -0.00000000000E+00  0.00000000000E+00  0.22513453075E+02  0.22513453075E+02  0.00000000000E+00 0. -1.
          1   -1    0    0  502    0  0.00000000000E+00 -0.00000000000E+00 -0.22774983205E+04  0.22774983205E+04  0.00000000000E+00 0.  1.
          6    2    1    2  502    0  0.67316522588E+02 -0.97010301657E+02 -0.67556058948E+03  0.70719315206E+03  0.17261961480E+03 0.  0.
         24    2    3    3    0    0 -0.17452171754E+02 -0.36235379184E+02 -0.18114431222E+03  0.20187259245E+03  0.79509123550E+02 0.  0.
         -6    2    1    2    0  501 -0.67316522588E+02  0.97010301657E+02 -0.15794242779E+04  0.15928186215E+04  0.16896034583E+03 0.  0.
        -24    2    5    5    0    0  0.13146105038E+02  0.26621061194E+02 -0.10058227631E+04  0.10093208345E+04  0.78534165968E+02 0.  0.
          5    1    3    3  502    0  0.84768694343E+02 -0.60774922473E+02 -0.49441627726E+03  0.50532055961E+03  0.47000000000E+01 0. -1.
        -11    1    4    4    0    0 -0.11520924669E+02  0.68246584697E+01 -0.14421822819E+03  0.14483854808E+03  0.00000000000E+00 0.  1.
         12    1    4    4    0    0 -0.59312470858E+01 -0.43060037654E+02 -0.36926084031E+02  0.57034044365E+02  0.00000000000E+00 0. -1.
         -5    1    5    5    0  501 -0.80462627626E+02  0.70389240463E+02 -0.57360151483E+03  0.58349778700E+03  0.47000000000E+01 0.  1.
         11    1    6    6    0    0 -0.26938213600E+02 -0.24554418137E+00 -0.17142133037E+03  0.17352521474E+03  0.00000000000E+00 0. -1.
        -12    1    6    6    0    0  0.40084318637E+02  0.26866605375E+02 -0.83440143274E+03  0.83579561978E+03  0.00000000000E+00 0.  1.
</event>
<event>
12    1  0.1345781E-002  0.1835951E+03  0.7818608E-02  0.1164368E+00
          1   -1    0    0  502    0  0.00000000000E+00  0.00000000000E+00  0.24566071254E+03  0.24566071254E+03  0.00000000000E+00 0. -1.
         -1   -1    0    0    0  501 -0.00000000000E+00 -0.00000000000E+00 -0.13752858461E+03  0.13752858461E+03  0.00000000000E+00 0.  1.
          6    2    1    2  502    0 -0.47143964996E+02  0.43710901285E+02  0.63232677276E+02  0.19402098562E+03  0.17179224388E+03 0.  0.
         24    2    3    3    0    0 -0.67051717276E+02 -0.21921393863E+02  0.99428197395E+01  0.10703928821E+03  0.79887854255E+02 0.  0.
         -6    2    1    2    0  501  0.47143964996E+02 -0.43710901285E+02  0.44899450659E+02  0.18916831153E+03  0.17214962414E+03 0.  0.
        -24    2    5    5    0    0  0.68703962782E+02  0.40626155214E+01  0.74017576869E+02  0.12902599959E+03  0.80202041973E+02 0.  0.
          5    1    3    3  502    0  0.19907752280E+02  0.65632295149E+02  0.53289857537E+02  0.86981697406E+02  0.47000000000E+01 0. -1.
        -13    1    4    4    0    0 -0.77267844409E+02 -0.86109636538E+01 -0.12783351575E+02  0.78790117097E+02  0.00000000000E+00 0.  1.
         14    1    4    4    0    0  0.10216127133E+02 -0.13310430210E+02  0.22726171314E+02  0.28249171113E+02  0.00000000000E+00 0. -1.
         -5    1    5    5    0  501 -0.21559997786E+02 -0.47773516807E+02 -0.29118126211E+02  0.60142311949E+02  0.47000000000E+01 0.  1.
         11    1    6    6    0    0  0.51237003596E+02 -0.76762221309E+01  0.89146033704E+02  0.10310756640E+03  0.00000000000E+00 0. -1.
        -12    1    6    6    0    0  0.17466959186E+02  0.11738837652E+02 -0.15128456834E+02  0.25918433186E+02  0.00000000000E+00 0.  1.
</event>
<event>
12    1  0.1345781E-002  0.1751972E+03  0.7818608E-02  0.1172534E+00
          2   -1    0    0  502    0  0.00000000000E+00  0.00000000000E+00  0.10455171754E+04  0.10455171754E+04  0.00000000000E+00 0.  1.
         -2   -1    0    0    0  501 -0.00000000000E+00 -0.00000000000E+00 -0.37661704840E+02  0.37661704840E+02  0.00000000000E+00 0. -1.
          6    2    1    2  502    0  0.24796526301E+02 -0.18841953571E+02  0.25040857760E+03  0.30581346524E+03  0.17276438539E+03 0.  0.
         24    2    3    3    0    0  0.38275568870E+02 -0.75569113329E+02  0.15049870933E+03  0.19003899906E+03  0.79304789211E+02 0.  0.
         -6    2    1    2    0  501 -0.24796526301E+02  0.18841953571E+02  0.75744689296E+03  0.77736541499E+03  0.17205030033E+03 0.  0.
        -24    2    5    5    0    0 -0.13683265127E+02 -0.56082588053E+02  0.42803732654E+03  0.43932703854E+03  0.80372914889E+02 0.  0.
          5    1    3    3  502    0 -0.13479042569E+02  0.56727159758E+02  0.99909868267E+02  0.11577446618E+03  0.47000000000E+01 0. -1.
        -11    1    4    4    0    0 -0.45185903743E+01 -0.68698624805E+00  0.75806930209E+02  0.75944586883E+02  0.00000000000E+00 0.  1.
         12    1    4    4    0    0  0.42794159244E+02 -0.74882127081E+02  0.74691779120E+02  0.11409441218E+03  0.00000000000E+00 0. -1.
         -5    1    5    5    0  501 -0.11113261174E+02  0.74924541624E+02  0.32940956641E+03  0.33803837646E+03  0.47000000000E+01 0.  1.
         13    1    6    6    0    0  0.85390228036E+01  0.62418125922E+01  0.60530095289E+01  0.12186634451E+02  0.00000000000E+00 0. -1.
        -14    1    6    6    0    0 -0.22222287930E+02 -0.62324400645E+02  0.42198431701E+03  0.42714040409E+03  0.00000000000E+00 0.  1.
</event>
<event>
12    1  0.1345781E-002  0.4960855E+03  0.7818608E-02  0.1014806E+00
          1   -1    0    0  502    0  0.00000000000E+00  0.00000000000E+00  0.10940027685E+04  0.10940027685E+04  0.00000000000E+00 0.  1.
         -1   -1    0    0    0  501 -0.00000000000E+00 -0.00000000000E+00 -0.27694958109E+03  0.27694958109E+03  0.00000000000E+00 0. -1.
          6    2    1    2  502    0 -0.45609832123E+03 -0.92224508512E+02  0.70579233672E+03  0.86291456273E+03  0.17305398406E+03 0.  0.
         24    2    3    3    0    0 -0.22673813761E+03 -0.44611766670E+01  0.25882405012E+03  0.35290354768E+03  0.78236435884E+02 0.  0.
         -6    2    1    2    0  501  0.45609832123E+03  0.92224508512E+02  0.11126085072E+03  0.50803778689E+03  0.17085776952E+03 0.  0.
        -24    2    5    5    0    0  0.44098815737E+03  0.50726078011E+02  0.10595647455E+03  0.46330901324E+03  0.79904801600E+02 0.  0.
          5    1    3    3  502    0 -0.22936018362E+03 -0.87763331845E+02  0.44696828660E+03  0.51001101506E+03  0.47000000000E+01 0. -1.
        -11    1    4    4    0    0 -0.36087597219E+02 -0.97031925862E+00  0.94586125441E+02  0.10124125305E+03  0.00000000000E+00 0.  1.
         12    1    4    4    0    0 -0.19065054039E+03 -0.34908574083E+01  0.16423792468E+03  0.25166229463E+03  0.00000000000E+00 0. -1.
         -5    1    5    5    0  501  0.15110163863E+02  0.41498430501E+02  0.53043761725E+01  0.44728773654E+02  0.47000000000E+01 0.  1.
         11    1    6    6    0    0  0.13640712732E+03  0.10562152555E+02 -0.43609901158E+01  0.13688492133E+03  0.00000000000E+00 0. -1.
        -12    1    6    6    0    0  0.30458103005E+03  0.40163925456E+02  0.11031746466E+03  0.32642409191E+03  0.00000000000E+00 0.  1.
</event>
<event>
12    1  0.1345781E-002  0.9531462E+03  0.7818608E-02  0.9361481E-01
          3   -1    0    0  502    0  0.00000000000E+00  0.00000000000E+00  0.67814065068E+03  0.67814065068E+03  0.00000000000E+00 0.  1.
         -3   -1    0    0    0  501 -0.00000000000E+00 -0.00000000000E+00 -0.13420890550E+04  0.13420890550E+04  0.00000000000E+00 0. -1.
          6    2    1    2  502    0 -0.87255227974E+03 -0.34561872502E+03 -0.37511489707E+03  0.10251198996E+04  0.17134712885E+03 0.  0.
         24    2    3    3    0    0 -0.38424313030E+03 -0.20697789580E+03 -0.21522330812E+03  0.49290329409E+03  0.78421632426E+02 0.  0.
         -6    2    1    2    0  501  0.87255227974E+03  0.34561872502E+03 -0.28883350729E+03  0.99510980613E+03  0.16130389750E+03 0.  0.
        -24    2    5    5    0    0  0.61620960729E+03  0.24065072047E+03 -0.26477302205E+03  0.71702556592E+03  0.79961613329E+02 0.  0.
          5    1    3    3  502    0 -0.48830914944E+03 -0.13864082922E+03 -0.15989158895E+03  0.53221660550E+03  0.47000000000E+01 0. -1.
        -13    1    4    4    0    0 -0.34267164350E+03 -0.15415085138E+03 -0.19048768364E+03  0.42127413623E+03  0.00000000000E+00 0.  1.
         14    1    4    4    0    0 -0.41571486804E+02 -0.52827044417E+02 -0.24735624476E+02  0.71629157856E+02  0.00000000000E+00 0. -1.
         -5    1    5    5    0  501  0.25634267246E+03  0.10496800456E+03 -0.24060485244E+02  0.27808424021E+03  0.47000000000E+01 0.  1.
         11    1    6    6    0    0  0.36920542362E+03  0.11113241585E+03 -0.12696163159E+03  0.40593387956E+03  0.00000000000E+00 0. -1.
        -12    1    6    6    0    0  0.24700418367E+03  0.12951830462E+03 -0.13781139046E+03  0.31109168636E+03  0.00000000000E+00 0.  1.
</event>
<event>
12    1  0.1345781E-002  0.2133455E+03  0.7818608E-02  0.1138944E+00
          2   -1    0    0  502    0  0.00000000000E+00  0.00000000000E+00  0.12244464462E+04  0.12244464462E+04  0.00000000000E+00 0. -1.
         -2   -1    0    0    0  501 -0.00000000000E+00 -0.00000000000E+00 -0.54540666439E+02  0.54540666439E+02  0.00000000000E+00 0.  1.
          6    2    1    2  502    0  0.12593295303E+03  0.42335933982E+01  0.22266912184E+03  0.30785388226E+03  0.17121753131E+03 0.  0.
         24    2    3    3    0    0  0.10075466143E+03  0.15759321855E+02  0.67161564498E+02  0.14983021576E+03  0.86824879969E+02 0.  0.
         -6    2    1    2    0  501 -0.12593295303E+03 -0.42335933982E+01  0.94723665796E+03  0.97113323043E+03  0.17310526588E+03 0.  0.
        -24    2    5    5    0    0 -0.60971292517E+02 -0.56497041201E+02  0.70665069317E+03  0.71646642504E+03  0.84020960880E+02 0.  0.
          5    1    3    3  502    0  0.25178291594E+02 -0.11525728456E+02  0.15550755734E+03  0.15802366650E+03  0.47000000000E+01 0. -1.
        -13    1    4    4    0    0  0.95272497993E+02 -0.19036428648E+01  0.82314417902E+02  0.12592115043E+03  0.00000000000E+00 0.  1.
         14    1    4    4    0    0  0.54821634407E+01  0.17662964719E+02 -0.15152853404E+02  0.23909065330E+02  0.00000000000E+00 0. -1.
         -5    1    5    5    0  501 -0.64961660510E+02  0.52263447803E+02  0.24058596479E+03  0.25466680539E+03  0.47000000000E+01 0.  1.
         13    1    6    6    0    0 -0.68371796130E+02 -0.24221882175E+02  0.30727318904E+03  0.31571856896E+03  0.00000000000E+00 0. -1.
        -14    1    6    6    0    0  0.74005036132E+01 -0.32275159026E+02  0.39937750414E+03  0.40074785608E+03  0.00000000000E+00 0.  1.
</event>
<event>
12    1  0.1345781E-002  0.2002647E+03  0.7818608E-02  0.1149516E+00
         -2   -1    0    0    0  501 -0.00000000000E+00  0.00000000000E+00  0.10435532778E+02  0.10435532778E+02  0.00000000000E+00 0.  1.
          2   -1    0    0  502    0  0.00000000000E+00 -0.00000000000E+00 -0.39105969906E+04  0.39105969906E+04  0.00000000000E+00 0. -1.
          6    2    1    2  502    0  0.57452675102E+02 -0.92747542159E+02 -0.16739178726E+04  0.16856142919E+04  0.16550401955E+03 0.  0.
         24    2    3    3    0    0  0.21002729870E+02 -0.39651113105E+02 -0.41576184114E+03  0.42580219531E+03  0.80226401824E+02 0.  0.
         -6    2    1    2    0  501 -0.57452675102E+02  0.92747542159E+02 -0.22262435852E+04  0.22354182314E+04  0.17038559890E+03 0.  0.
        -24    2    5    5    0    0 -0.88501177853E+01  0.37427936200E+02 -0.18368328958E+04  0.18390784247E+04  0.82311542957E+02 0.  0.
          5    1    3    3  502    0  0.36449945232E+02 -0.53096429054E+02 -0.12581560315E+04  0.12598120966E+04  0.47000000000E+01 0. -1.
        -11    1    4    4    0    0 -0.10938986935E+01 -0.57926192092E+02 -0.20262757631E+03  0.21074765723E+03  0.00000000000E+00 0.  1.
         12    1    4    4    0    0  0.22096628564E+02  0.18275078988E+02 -0.21313426483E+03  0.21505453809E+03  0.00000000000E+00 0. -1.
         -5    1    5    5    0  501 -0.48602557317E+02  0.55319605959E+02 -0.38941068941E+03  0.39633980675E+03  0.47000000000E+01 0.  1.
         13    1    6    6    0    0 -0.34294510451E+02  0.39964009200E+02 -0.70793794972E+03  0.70989391893E+03  0.00000000000E+00 0. -1.
        -14    1    6    6    0    0  0.25444392665E+02 -0.25360730006E+01 -0.11288949461E+04  0.11291845058E+04  0.00000000000E+00 0.  1.
</event>
<event>
12    1  0.1345781E-002  0.1888155E+03  0.7818608E-02  0.1159534E+00
          2   -1    0    0  502    0  0.00000000000E+00  0.00000000000E+00  0.54737366459E+03  0.54737366459E+03  0.00000000000E+00 0.  1.
         -2   -1    0    0    0  501 -0.00000000000E+00 -0.00000000000E+00 -0.65285814403E+02  0.65285814403E+02  0.00000000000E+00 0. -1.
          6    2    1    2  502    0  0.43381429039E+02 -0.67946795289E+02  0.25622184676E+03  0.31841446410E+03  0.17099538243E+03 0.  0.
         24    2    3    3    0    0  0.59063966340E+02 -0.78681694702E+02  0.26743242101E+03  0.29585461001E+03  0.79564371761E+02 0.  0.
         -6    2    1    2    0  501 -0.43381429039E+02  0.67946795289E+02  0.22586600342E+03  0.29424501489E+03  0.17048742450E+03 0.  0.
        -24    2    5    5    0    0  0.11930855617E+02  0.57712916001E+02  0.21361868751E+03  0.23648457976E+03  0.82576551291E+02 0.  0.
          5    1    3    3  502    0 -0.15682537301E+02  0.10734899413E+02 -0.11210574248E+02  0.22559854091E+02  0.47000000000E+01 0. -1.
        -13    1    4    4    0    0  0.36065319721E+02 -0.14962156470E+02  0.18539760238E+03  0.18946462568E+03  0.00000000000E+00 0.  1.
         14    1    4    4    0    0  0.22998646619E+02 -0.63719538232E+02  0.82034818627E+02  0.10638998433E+03  0.00000000000E+00 0. -1.
         -5    1    5    5    0  501 -0.55312284656E+02  0.10233879288E+02  0.12247315909E+02  0.57760435128E+02  0.47000000000E+01 0.  1.
         11    1    6    6    0    0  0.16434236420E+02 -0.18478848169E+02  0.61678018538E+02  0.66450958812E+02  0.00000000000E+00 0. -1.
        -12    1    6    6    0    0 -0.45033808027E+01  0.76191764169E+02  0.15194066897E+03  0.17003362095E+03  0.00000000000E+00 0.  1.
</event>
<event>
12    1  0.1345781E-002  0.2816730E+03  0.7818608E-02  0.1094779E+00
         -2   -1    0    0    0  501 -0.00000000000E+00  0.00000000000E+00  0.52313891796E+02  0.52313891796E+02  0.00000000000E+00 0.  1.
          2   -1    0    0  502    0  0.00000000000E+00 -0.00000000000E+00 -0.16996915450E+04  0.16996915450E+04  0.00000000000E+00 0. -1.
          6    2    1    2  502    0  0.17859862154E+03  0.12669005993E+03 -0.11034211744E+04  0.11380895077E+04  0.17251550778E+03 0.  0.
         24    2    3    3    0    0  0.50206216610E+02  0.84538094703E+02 -0.33430017963E+03  0.35717299969E+03  0.78412932387E+02 0.  0.
         -6    2    1    2    0  501 -0.17859862154E+03 -0.12669005993E+03 -0.54395647883E+03  0.61391592916E+03  0.18181385624E+03 0.  0.
        -24    2    5    5    0    0 -0.10446401654E+03 -0.14396440099E+03 -0.46283236053E+03  0.50257162043E+03  0.82011951599E+02 0.  0.
          5    1    3    3  502    0  0.12839240493E+03  0.42151965228E+02 -0.76912099480E+03  0.78091650799E+03  0.47000000000E+01 0. -1.
        -11    1    4    4    0    0  0.68468978429E+02  0.78700276480E+02 -0.25339356195E+03  0.27402560421E+03  0.00000000000E+00 0.  1.
         12    1    4    4    0    0 -0.18262761819E+02  0.58378182223E+01 -0.80906617674E+02  0.83147395475E+02  0.00000000000E+00 0. -1.
         -5    1    5    5    0  501 -0.74134604998E+02  0.17274341063E+02 -0.81124118303E+02  0.11134430874E+03  0.47000000000E+01 0.  1.
         11    1    6    6    0    0 -0.97781393561E+02 -0.10645005894E+03 -0.27250026459E+03  0.30846265605E+03  0.00000000000E+00 0. -1.
        -12    1    6    6    0    0 -0.66826229804E+01 -0.37514342057E+02 -0.19033209593E+03  0.19410896438E+03  0.00000000000E+00 0.  1.
</event>
<event>
12    1  0.1345781E-002  0.1927125E+03  0.7818608E-02  0.1156037E+00
         -2   -1    0    0    0  501 -0.00000000000E+00  0.00000000000E+00  0.44205039839E+02  0.44205039839E+02  0.00000000000E+00 0. -1.
          2   -1    0    0  502    0  0.00000000000E+00 -0.00000000000E+00 -0.86874802123E+03  0.86874802123E+03  0.00000000000E+00 0.  1.
          6    2    1    2  502    0 -0.84911856939E+02  0.21821532316E+02 -0.32890784146E+03  0.38107954281E+03  0.17133314638E+03 0.  0.
         24    2    3    3    0    0  0.10628153433E+02  0.12358445231E+02 -0.13157030969E+03  0.16157638783E+03  0.92360672896E+02 0.  0.
         -6    2    1    2    0  501  0.84911856939E+02 -0.21821532316E+02 -0.49563513992E+03  0.53187351826E+03  0.17189835594E+03 0.  0.
        -24    2    5    5    0    0  0.10602573602E+03 -0.42565965119E+02 -0.26712821622E+03  0.30140956975E+03  0.80230460248E+02 0.  0.
          5    1    3    3  502    0 -0.95540010372E+02  0.94630870850E+01 -0.19733753177E+03  0.21950315498E+03  0.47000000000E+01 0. -1.
        -13    1    4    4    0    0 -0.40883926768E+02  0.13418363837E+01 -0.52249239453E+02  0.66357207719E+02  0.00000000000E+00 0.  1.
         14    1    4    4    0    0  0.51512080201E+02  0.11016608847E+02 -0.79321070238E+02  0.95219180110E+02  0.00000000000E+00 0. -1.
         -5    1    5    5    0  501 -0.21113879076E+02  0.20744432803E+02 -0.22850692371E+03  0.23046394851E+03  0.47000000000E+01 0.  1.
         11    1    6    6    0    0  0.81897685668E+02 -0.12707903588E+02 -0.99758226848E+02  0.12969358332E+03  0.00000000000E+00 0. -1.
        -12    1    6    6    0    0  0.24128050347E+02 -0.29858061531E+02 -0.16736998937E+03  0.17171598642E+03  0.00000000000E+00 0.  1.
</event>
<event>
12    1  0.1345781E-002  0.4702572E+03  0.7818608E-02  0.1021848E+00
          1   -1    0    0  502    0  0.00000000000E+00  0.00000000000E+00  0.13290018134E+04  0.13290018134E+04  0.00000000000E+00 0. -1.
         -1   -1    0    0    0  501 -0.00000000000E+00 -0.00000000000E+00 -0.34716220021E+03  0.34716220021E+03  0.00000000000E+00 0.  1.
          6    2    1    2  502    0  0.32971164298E+02 -0.43753229746E+03 -0.11365263582E+03  0.48414591811E+03  0.17017267524E+03 0.  0.
         24    2    3    3    0    0 -0.19544937534E+02 -0.38133573492E+03 -0.11749816846E+03  0.40699105621E+03  0.77697830983E+02 0.  0.
         -6    2    1    2    0  501 -0.32971164298E+02  0.43753229746E+03  0.10954922490E+04  0.11920180955E+04  0.16817331338E+03 0.  0.
        -24    2    5    5    0    0 -0.72542277600E+02  0.31220481185E+03  0.87350022734E+03  0.93399600468E+03  0.81312133275E+02 0.  0.
          5    1    3    3  502    0  0.52516101832E+02 -0.56196562548E+02  0.38455326382E+01  0.77154861902E+02  0.47000000000E+01 0. -1.
        -11    1    4    4    0    0 -0.16685730331E+02 -0.23774870217E+03 -0.11182503673E+03  0.26326355202E+03  0.00000000000E+00 0.  1.
         12    1    4    4    0    0 -0.28592072029E+01 -0.14358703274E+03 -0.56731317201E+01  0.14372750419E+03  0.00000000000E+00 0. -1.
         -5    1    5    5    0  501  0.39571113302E+02  0.12532748562E+03  0.22199202165E+03  0.25802209079E+03  0.47000000000E+01 0.  1.
         13    1    6    6    0    0 -0.71629178968E+02  0.24873067386E+03  0.60409321385E+03  0.65721099993E+03  0.00000000000E+00 0. -1.
        -14    1    6    6    0    0 -0.91309863226E+00  0.63474137987E+02  0.26940701349E+03  0.27678500476E+03  0.00000000000E+00 0.  1.
</event>
<event>
12    1  0.1345781E-002  0.1762999E+03  0.7818608E-02  0.1171433E+00
          2   -1    0    0  502    0  0.00000000000E+00  0.00000000000E+00  0.31720715518E+03  0.31720715518E+03  0.00000000000E+00 0.  1.
         -2   -1    0    0    0  501 -0.00000000000E+00 -0.00000000000E+00 -0.10868655240E+03  0.10868655240E+03  0.00000000000E+00 0. -1.
          6    2    1    2  502    0  0.11815716021E+01  0.33112727527E+02  0.38554890130E+02  0.18243858744E+03  0.17521275581E+03 0.  0.
         24    2    3    3    0    0 -0.29198515023E+02  0.72398914652E+02 -0.11382164803E+02  0.11185421511E+03  0.79294739045E+02 0.  0.
         -6    2    1    2    0  501 -0.11815716021E+01 -0.33112727527E+02  0.16996571265E+03  0.24345512014E+03  0.17112627854E+03 0.  0.
        -24    2    5    5    0    0  0.62101726375E+02 -0.16543833400E+02  0.11316476782E+03  0.15669256261E+03  0.87269534538E+02 0.  0.
          5    1    3    3  502    0  0.30380086625E+02 -0.39286187125E+02  0.49937054933E+02  0.70584372332E+02  0.47000000000E+01 0. -1.
        -13    1    4    4    0    0 -0.42995231829E+02  0.54583131529E+02  0.20834256474E+02  0.72539468225E+02  0.00000000000E+00 0.  1.
         14    1    4    4    0    0  0.13796716806E+02  0.17815783123E+02 -0.32216421276E+02  0.39314746887E+02  0.00000000000E+00 0. -1.
         -5    1    5    5    0  501 -0.63283297977E+02 -0.16568894127E+02  0.56800944826E+02  0.86762557527E+02  0.47000000000E+01 0.  1.
         13    1    6    6    0    0 -0.19938171760E+02  0.32394350465E+01  0.76952660093E+01  0.21615775524E+02  0.00000000000E+00 0. -1.
        -14    1    6    6    0    0  0.82039898135E+02 -0.19783268447E+02  0.10546950181E+03  0.13507678709E+03  0.00000000000E+00 0.  1.
</event>
<event>
12    1  0.1345781E-002  0.1816155E+03  0.7818608E-02  0.1166249E+00
          2   -1    0    0  502    0  0.00000000000E+00  0.00000000000E+00  0.17563253062E+04  0.17563253062E+04  0.00000000000E+00 0. -1.
         -2   -1    0    0    0  501 -0.00000000000E+00 -0.00000000000E+00 -0.19717116175E+02  0.19717116175E+02  0.00000000000E+00 0.  1.
          6    2    1    2  502    0  0.31819312907E+02 -0.48951859427E+02  0.10536171360E+04  0.10688574115E+04  0.17011273787E+03 0.  0.
         24    2    3    3    0    0  0.62225286558E+02 -0.58330061742E+02  0.48258816546E+03  0.49692328144E+03  0.82261946250E+02 0.  0.
         -6    2    1    2    0  501 -0.31819312907E+02  0.48951859427E+02  0.68299105405E+03  0.70718501092E+03  0.17385369292E+03 0.  0.
        -24    2    5    5    0    0 -0.29502426628E+02  0.55765836139E+02  0.68929161840E+03  0.69652736804E+03  0.77763857793E+02 0.  0.
          5    1    3    3  502    0 -0.30405973650E+02  0.93782023154E+01  0.57102897054E+03  0.57193413005E+03  0.47000000000E+01 0. -1.
        -13    1    4    4    0    0  0.16699938223E+02 -0.40820435022E+02  0.79667694345E+02  0.91061173803E+02  0.00000000000E+00 0.  1.
         14    1    4    4    0    0  0.45525348334E+02 -0.17509626720E+02  0.40292047112E+03  0.40586210764E+03  0.00000000000E+00 0. -1.
         -5    1    5    5    0  501 -0.23168862793E+01 -0.68139767127E+01 -0.63005643473E+01  0.10657642880E+02  0.47000000000E+01 0.  1.
         11    1    6    6    0    0  0.26590249081E+02  0.13499887215E+02  0.19275478066E+03  0.19504792685E+03  0.00000000000E+00 0. -1.
        -12    1    6    6    0    0 -0.56092675709E+02  0.42265948924E+02  0.49653683774E+03  0.50147944119E+03  0.00000000000E+00 0.  1.
</event>
<event>
12    1  0.1345781E-002  0.2635823E+03  0.7818608E-02  0.1105010E+00
         -1   -1    0    0    0  501 -0.00000000000E+00  0.00000000000E+00  0.66891397306E+02  0.66891397306E+02  0.00000000000E+00 0.  1.
          1   -1    0    0  502    0  0.00000000000E+00 -0.00000000000E+00 -0.10414599644E+04  0.10414599644E+04  0.00000000000E+00 0. -1.
          6    2    1    2  502    0  0.13884155770E+03  0.14401308493E+03 -0.51691790526E+03  0.58043274581E+03  0.17228263077E+03 0.  0.
         24    2    3    3    0    0  0.69582045173E+02  0.13258272995E+03 -0.23743502765E+03  0.29223090341E+03  0.81262951338E+02 0.  0.
         -6    2    1    2    0  501 -0.13884155770E+03 -0.14401308493E+03 -0.45765066187E+03  0.52791861592E+03  0.17098885914E+03 0.  0.
        -24    2    5    5    0    0 -0.65135947898E+02 -0.13579209266E+03 -0.21764682932E+03  0.27667365325E+03  0.80597667157E+02 0.  0.
          5    1    3    3  502    0  0.69259512531E+02  0.11430354974E+02 -0.27948287760E+03  0.28820184240E+03  0.47000000000E+01 0. -1.
        -11    1    4    4    0    0  0.69409089077E+01  0.93869617593E+01  0.53674623454E+01  0.12849160267E+02  0.00000000000E+00 0.  1.
         12    1    4    4    0    0  0.62641136265E+02  0.12319576819E+03 -0.24280249000E+03  0.27938174315E+03  0.00000000000E+00 0. -1.
         -5    1    5    5    0  501 -0.73705609806E+02 -0.82209922701E+01 -0.24000383255E+03  0.25124496268E+03  0.47000000000E+01 0.  1.
         11    1    6    6    0    0  0.13424468140E+01 -0.73847142574E+02 -0.13480652680E+03  0.15371402765E+03  0.00000000000E+00 0. -1.
        -12    1    6    6    0    0 -0.66478394712E+02 -0.61944950084E+02 -0.82840302519E+02  0.12295962559E+03  0.00000000000E+00 0.  1.
</event>
<event>
12    1  0.1345781E-002  0.1750183E+03  0.7818608E-02  0.1172713E+00
          1   -1    0    0  502    0  0.00000000000E+00  0.00000000000E+00  0.63969544038E+03  0.63969544038E+03  0.00000000000E+00 0. -1.
         -1   -1    0    0    0  501 -0.00000000000E+00 -0.00000000000E+00 -0.48037783704E+02  0.48037783704E+02  0.00000000000E+00 0.  1.
          6    2    1    2  502    0 -0.13711703405E+02  0.30155653969E+02  0.27761502893E+03  0.32855123959E+03  0.17256430242E+03 0.  0.
         24    2    3    3    0    0 -0.33436088456E+01  0.46384399846E+02  0.59229766317E+02  0.10926812919E+03  0.79174911244E+02 0.  0.
         -6    2    1    2    0  501  0.13711703405E+02 -0.30155653969E+02  0.31404262774E+03  0.35918198449E+03  0.17114774806E+03 0.  0.
        -24    2    5    5    0    0 -0.47491040478E+01 -0.83101798425E+02  0.23174626259E+03  0.25948806621E+03  0.81849028045E+02 0.  0.
          5    1    3    3  502    0 -0.10368094559E+02 -0.16228745876E+02  0.21838526262E+03  0.21928311040E+03  0.47000000000E+01 0. -1.
        -11    1    4    4    0    0 -0.29949363072E+02  0.86356744983E+01  0.54578592679E+02  0.62851905311E+02  0.00000000000E+00 0.  1.
         12    1    4    4    0    0  0.26605754227E+02  0.37748725347E+02  0.46511736382E+01  0.46416223883E+02  0.00000000000E+00 0. -1.
         -5    1    5    5    0  501  0.18460807452E+02  0.52946144455E+02  0.82296365155E+02  0.99693918281E+02  0.47000000000E+01 0.  1.
         13    1    6    6    0    0  0.23275099153E+02 -0.50400231122E+02  0.19540218787E+03  0.20313524697E+03  0.00000000000E+00 0. -1.
        -14    1    6    6    0    0 -0.28024203201E+02 -0.32701567302E+02  0.36344074714E+02  0.56352819236E+02  0.00000000000E+00 0.  1.
</event>
<event>
12    1  0.1345781E-002  0.2182299E+03  0.7818608E-02  0.1135210E+00
          2   -1    0    0  502    0  0.00000000000E+00  0.00000000000E+00  0.17451053315E+03  0.17451053315E+03  0.00000000000E+00 0.  1.
         -2   -1    0    0    0  501 -0.00000000000E+00 -0.00000000000E+00 -0.28996601987E+03  0.28996601987E+03  0.00000000000E+00 0. -1.
          6    2    1    2  502    0 -0.12758918021E+03 -0.41702053613E+02 -0.14154776403E+01  0.21833605803E+03  0.17219341008E+03 0.  0.
         24    2    3    3    0    0 -0.91950903498E+02 -0.86972352850E+02  0.29588169635E+02  0.15274030432E+03  0.80218339348E+02 0.  0.
         -6    2    1    2    0  501  0.12758918021E+03  0.41702053613E+02 -0.11404000907E+03  0.24614049499E+03  0.17193591661E+03 0.  0.
        -24    2    5    5    0    0 -0.25106242505E+01  0.34891265915E+02 -0.54686584350E+02  0.10290200513E+03  0.79840443889E+02 0.  0.
          5    1    3    3  502    0 -0.35638276716E+02  0.45270299237E+02 -0.31003647275E+02  0.65595753709E+02  0.47000000000E+01 0. -1.
        -11    1    4    4    0    0 -0.29156403462E+02 -0.39711786938E+02  0.51379949830E+02  0.71183011521E+02  0.00000000000E+00 0.  1.
         12    1    4    4    0    0 -0.62794500035E+02 -0.47260565912E+02 -0.21791780195E+02  0.81557292802E+02  0.00000000000E+00 0. -1.
         -5    1    5    5    0  501  0.13009980446E+03  0.68107876981E+01 -0.59353424724E+02  0.14323848986E+03  0.47000000000E+01 0.  1.
         13    1    6    6    0    0  0.25055219558E+02  0.49858956838E+02 -0.35012531862E+02  0.65875313976E+02  0.00000000000E+00 0. -1.
        -14    1    6    6    0    0 -0.27565843808E+02 -0.14967690923E+02 -0.19674052489E+02  0.37026691153E+02  0.00000000000E+00 0.  1.
</event>
<event>
12    1  0.1345781E-002  0.1878516E+03  0.7818608E-02  0.1160413E+00
          1   -1    0    0  502    0  0.00000000000E+00  0.00000000000E+00  0.19314237911E+04  0.19314237911E+04  0.00000000000E+00 0.  1.
         -1   -1    0    0    0  501 -0.00000000000E+00 -0.00000000000E+00 -0.19088034486E+02  0.19088034486E+02  0.00000000000E+00 0. -1.
          6    2    1    2  502    0 -0.96680958093E+01 -0.52726739842E+02  0.78105527001E+03  0.80455731505E+03  0.18544960829E+03 0.  0.
         24    2    3    3    0    0  0.10773692597E+02 -0.10398530755E+03  0.63622684379E+03  0.64950032385E+03  0.78339372530E+02 0.  0.
         -6    2    1    2    0  501  0.96680958093E+01  0.52726739842E+02  0.11312804866E+04  0.11459545106E+04  0.17476446917E+03 0.  0.
        -24    2    5    5    0    0 -0.34975854637E+02  0.37840314778E+01  0.31581083874E+03  0.32778502468E+03  0.80429517174E+02 0.  0.
          5    1    3    3  502    0 -0.20441788407E+02  0.51258567707E+02  0.14482842622E+03  0.15505699119E+03  0.47000000000E+01 0. -1.
        -13    1    4    4    0    0  0.30972390169E+02 -0.25620604579E+02  0.34176248800E+03  0.34411815200E+03  0.00000000000E+00 0.  1.
         14    1    4    4    0    0 -0.20198697572E+02 -0.78364702970E+02  0.29446435579E+03  0.30538217185E+03  0.00000000000E+00 0. -1.
         -5    1    5    5    0  501  0.44643950447E+02  0.48942708364E+02  0.81546964787E+03  0.81816948588E+03  0.47000000000E+01 0.  1.
         11    1    6    6    0    0  0.12563371267E+02  0.29759408848E+02  0.14648703705E+03  0.15000637566E+03  0.00000000000E+00 0. -1.
        -12    1    6    6    0    0 -0.47539225905E+02 -0.25975377371E+02  0.16932380169E+03  0.17777864902E+03  0.00000000000E+00 0.  1.
</event>
<event>
12    1  0.1345781E-002  0.1982004E+03  0.7818608E-02  0.1151266E+00
          2   -1    0    0  502    0  0.00000000000E+00  0.00000000000E+00  0.11155549096E+03  0.11155549096E+03  0.00000000000E+00 0. -1.
         -2   -1    0    0    0  501 -0.00000000000E+00 -0.00000000000E+00 -0.39175961644E+03  0.39175961644E+03  0.00000000000E+00 0.  1.
          6    2    1    2  502    0  0.56440541738E+02 -0.80955688343E+02 -0.21966651707E+03  0.29538407130E+03  0.17105266039E+03 0.  0.
         24    2    3    3    0    0 -0.21469352162E+02 -0.31478230098E+02 -0.49859776544E+02  0.10205950077E+03  0.80488088110E+02 0.  0.
         -6    2    1    2    0  501 -0.56440541738E+02  0.80955688343E+02 -0.60537608405E+02  0.20793103610E+03  0.17271698097E+03 0.  0.
        -24    2    5    5    0    0 -0.93862521698E+02  0.27448393466E+02 -0.12741129917E+02  0.12687532350E+03  0.79821200436E+02 0.  0.
          5    1    3    3  502    0  0.77909893901E+02 -0.49477458245E+02 -0.16980674053E+03  0.19332457053E+03  0.47000000000E+01 0. -1.
        -13    1    4    4    0    0 -0.14985563625E+02 -0.53351294576E+02 -0.55636056882E+02  0.78525782871E+02  0.00000000000E+00 0.  1.
         14    1    4    4    0    0 -0.64837885368E+01  0.21873064479E+02  0.57762803382E+01  0.23533717896E+02  0.00000000000E+00 0. -1.
         -5    1    5    5    0  501  0.37421979959E+02  0.53507294877E+02 -0.47796478489E+02  0.81055712600E+02  0.47000000000E+01 0.  1.
         11    1    6    6    0    0 -0.36205422776E+02  0.43158030122E+02  0.18692189730E+02  0.59353569053E+02  0.00000000000E+00 0. -1.
        -12    1    6    6    0    0 -0.57657098922E+02 -0.15709636656E+02 -0.31433319646E+02  0.67521754449E+02  0.00000000000E+00 0.  1.
</event>
<event>
12    1  0.1345781E-002  0.2341325E+03  0.7818608E-02  0.1123764E+00
          3   -1    0    0  502    0  0.00000000000E+00  0.00000000000E+00  0.17688243632E+04  0.17688243632E+04  0.00000000000E+00 0. -1.
         -3   -1    0    0    0  501 -0.00000000000E+00 -0.00000000000E+00 -0.35976400402E+02  0.35976400402E+02  0.00000000000E+00 0.  1.
          6    2    1    2  502    0 -0.74932860824E+02 -0.14545515646E+03  0.52220067106E+03  0.57121180269E+03  0.16375972186E+03 0.  0.
         24    2    3    3    0    0 -0.31028207436E+02 -0.15187621634E+03  0.47164340946E+03  0.50378053917E+03  0.85546427245E+02 0.  0.
         -6    2    1    2    0  501  0.74932860824E+02  0.14545515646E+03  0.12106472917E+04  0.12335889609E+04  0.17118038240E+03 0.  0.
        -24    2    5    5    0    0  0.11462287443E+03  0.13702073392E+03  0.10056555910E+04  0.10245671342E+04  0.80508135858E+02 0.  0.
          5    1    3    3  502    0 -0.43904653388E+02  0.64210598834E+01  0.50557261605E+02  0.67431263522E+02  0.47000000000E+01 0. -1.
        -13    1    4    4    0    0  0.13585403895E+02  0.43611310370E+01  0.46780597674E+02  0.48908148418E+02  0.00000000000E+00 0.  1.
         14    1    4    4    0    0 -0.44613611331E+02 -0.15623734738E+03  0.42486281178E+03  0.45487239075E+03  0.00000000000E+00 0. -1.
         -5    1    5    5    0  501 -0.39690013606E+02  0.84344225424E+01  0.20499170072E+03  0.20902182668E+03  0.47000000000E+01 0.  1.
         11    1    6    6    0    0  0.10467027744E+03  0.14787098344E+03  0.93620127849E+03  0.95356936223E+03  0.00000000000E+00 0. -1.
        -12    1    6    6    0    0  0.99525969895E+01 -0.10850249527E+02  0.69454312468E+02  0.70997771951E+02  0.00000000000E+00 0.  1.
</event>
<event>
12    1  0.1345781E-002  0.1783840E+03  0.7818608E-02  0.1169376E+00
         -1   -1    0    0    0  501 -0.00000000000E+00  0.00000000000E+00  0.34959514282E+03  0.34959514282E+03  0.00000000000E+00 0.  1.
          1   -1    0    0  502    0  0.00000000000E+00 -0.00000000000E+00 -0.99821484623E+02  0.99821484623E+02  0.00000000000E+00 0. -1.
          6    2    1    2  502    0 -0.68632413238E+01 -0.49838193330E+02  0.19156427485E+03  0.26171696528E+03  0.17107877987E+03 0.  0.
         24    2    3    3    0    0 -0.23120000342E+02 -0.20035331884E+00  0.19145541977E+03  0.20927366996E+03  0.81275559804E+02 0.  0.
         -6    2    1    2    0  501  0.68632413238E+01  0.49838193330E+02  0.58209383352E+02  0.18769966216E+03  0.17120712973E+03 0.  0.
        -24    2    5    5    0    0  0.57117165641E+02  0.25975129808E+02  0.78395723291E+02  0.12833232240E+03  0.79913813349E+02 0.  0.
          5    1    3    3  502    0  0.16256759018E+02 -0.49637840011E+02  0.10885507667E+00  0.52443295321E+02  0.47000000000E+01 0. -1.
        -11    1    4    4    0    0 -0.14456587620E+02 -0.36883259962E+02  0.13995545071E+03  0.14545410264E+03  0.00000000000E+00 0.  1.
         12    1    4    4    0    0 -0.86634127218E+01  0.36682906643E+02  0.51499969066E+02  0.63819567326E+02  0.00000000000E+00 0. -1.
         -5    1    5    5    0  501 -0.50253924317E+02  0.23863063522E+02 -0.20186339939E+02  0.59367339759E+02  0.47000000000E+01 0.  1.
         11    1    6    6    0    0 -0.76805818286E+01 -0.51808410959E+01 -0.10498037052E+02  0.14001472552E+02  0.00000000000E+00 0. -1.
        -12    1    6    6    0    0  0.64797747470E+02  0.31155970903E+02  0.88893760343E+02  0.11433084985E+03  0.00000000000E+00 0.  1.
</event>
<event>
12    1  0.1345781E-002  0.1917778E+03  0.7818608E-02  0.1156868E+00
          1   -1    0    0  502    0  0.00000000000E+00  0.00000000000E+00  0.55129658861E+03  0.55129658861E+03  0.00000000000E+00 0.  1.
         -1   -1    0    0    0  501 -0.00000000000E+00 -0.00000000000E+00 -0.95625926657E+02  0.95625926657E+02  0.00000000000E+00 0. -1.
          6    2    1    2  502    0 -0.78693961094E+02 -0.36360127873E+02  0.49009245968E+02  0.19680410323E+03  0.16975025905E+03 0.  0.
         24    2    3    3    0    0 -0.99877455310E+02  0.93703227002E+01  0.60248777204E+02  0.14495401548E+03  0.85547895496E+02 0.  0.
         -6    2    1    2    0  501  0.78693961094E+02  0.36360127873E+02  0.40666141599E+03  0.45011841204E+03  0.17238990455E+03 0.  0.
        -24    2    5    5    0    0  0.81551242664E+02 -0.49195571021E+01  0.13655518045E+03  0.17682068990E+03  0.77093656333E+02 0.  0.
          5    1    3    3  502    0  0.21183494216E+02 -0.45730450573E+02 -0.11239531237E+02  0.51850087746E+02  0.47000000000E+01 0. -1.
        -11    1    4    4    0    0 -0.98701102422E+01  0.33873581292E+02  0.31616774128E+02  0.47375721546E+02  0.00000000000E+00 0.  1.
         12    1    4    4    0    0 -0.90007345068E+02 -0.24503258592E+02  0.28632003076E+02  0.97578293939E+02  0.00000000000E+00 0. -1.
         -5    1    5    5    0  501 -0.28572815696E+01  0.41279684975E+02  0.27010623554E+03  0.27329772214E+03  0.47000000000E+01 0.  1.
         11    1    6    6    0    0  0.69934152618E+02 -0.75283941368E+01  0.14571181336E+03  0.16180047891E+03  0.00000000000E+00 0. -1.
        -12    1    6    6    0    0  0.11617090046E+02  0.26088370347E+01 -0.91566329175E+01  0.15020210990E+02  0.00000000000E+00 0.  1.
</event>
<event>
12    1  0.1345781E-002  0.1903133E+03  0.7818608E-02  0.1158179E+00
          1   -1    0    0  502    0  0.00000000000E+00  0.00000000000E+00  0.14567042850E+02  0.14567042850E+02  0.00000000000E+00 0.  1.
         -1   -1    0    0    0  501 -0.00000000000E+00 -0.00000000000E+00 -0.24954611871E+04  0.24954611871E+04  0.00000000000E+00 0. -1.
          6    2    1    2  502    0  0.93395155720E+01  0.80581430980E+02 -0.11607929573E+04  0.11761900888E+04  0.17147081880E+03 0.  0.
         24    2    3    3    0    0 -0.11173413363E+02  0.65937582191E+02 -0.37310132835E+03  0.38808133052E+03  0.83246068786E+02 0.  0.
         -6    2    1    2    0  501 -0.93395155720E+01 -0.80581430980E+02 -0.13201011870E+04  0.13338381412E+04  0.17284805303E+03 0.  0.
        -24    2    5    5    0    0  0.53611456469E+02 -0.24248233720E+02 -0.54413089047E+03  0.55326896099E+03  0.81030562947E+02 0.  0.
          5    1    3    3  502    0  0.20512928935E+02  0.14643848789E+02 -0.78769162891E+03  0.78810875824E+03  0.47000000000E+01 0. -1.
        -13    1    4    4    0    0 -0.17999799432E+01  0.43837897902E-01  0.44017992306E+01  0.47558055074E+01  0.00000000000E+00 0.  1.
         14    1    4    4    0    0 -0.93734334196E+01  0.65893744293E+02 -0.37750312758E+03  0.38332552501E+03  0.00000000000E+00 0. -1.
         -5    1    5    5    0  501 -0.62950972041E+02 -0.56333197259E+02 -0.77597029649E+03  0.78056918017E+03  0.47000000000E+01 0.  1.
         13    1    6    6    0    0  0.22009232239E+02  0.19861100594E+02 -0.36239065508E+03  0.36360123282E+03  0.00000000000E+00 0. -1.
        -14    1    6    6    0    0  0.31602224230E+02 -0.44109334315E+02 -0.18174023539E+03  0.18966772817E+03  0.00000000000E+00 0.  1.
</event>
<event>
12    1  0.1345781E-002  0.1943686E+03  0.7818608E-02  0.1154579E+00
         -2   -1    0    0    0  501 -0.00000000000E+00  0.00000000000E+00  0.39665800610E+03  0.39665800610E+03  0.00000000000E+00 0. -1.
          2   -1    0    0  502    0  0.00000000000E+00 -0.00000000000E+00 -0.13792522192E+03  0.13792522192E+03  0.00000000000E+00 0.  1.
          6    2    1    2  502    0 -0.80561885245E+02  0.24269641900E+02 -0.17641980494E+02  0.19869085553E+03  0.17913007487E+03 0.  0.
         24    2    3    3    0    0  0.21942046570E+02 -0.23933824156E+02 -0.12823877468E+02  0.85218681430E+02  0.77739889921E+02 0.  0.
         -6    2    1    2    0  501  0.80561885245E+02 -0.24269641900E+02  0.27637476467E+03  0.33589237249E+03  0.17135180910E+03 0.  0.
        -24    2    5    5    0    0 -0.55690316373E+01 -0.35613753310E+02  0.20679052752E+03  0.22448644911E+03  0.79576944032E+02 0.  0.
          5    1    3    3  502    0 -0.10250393181E+03  0.48203466057E+02 -0.48181030260E+01  0.11347217410E+03  0.47000000000E+01 0. -1.
        -13    1    4    4    0    0  0.72025765071E+01  0.12053029654E+02 -0.36899661999E+02  0.39480852167E+02  0.00000000000E+00 0.  1.
         14    1    4    4    0    0  0.14739470063E+02 -0.35986853810E+02  0.24075784531E+02  0.45737829263E+02  0.00000000000E+00 0. -1.
         -5    1    5    5    0  501  0.86130916882E+02  0.11344111410E+02  0.69584237149E+02  0.11140592339E+03  0.47000000000E+01 0.  1.
         11    1    6    6    0    0  0.27179059642E+02 -0.43736830861E+02  0.14799450290E+03  0.15669711084E+03  0.00000000000E+00 0. -1.
        -12    1    6    6    0    0 -0.32748091279E+02  0.81230775513E+01  0.58796024617E+02  0.67789338262E+02  0.00000000000E+00 0.  1.
</event>
<event>
12    1  0.1345781E-002  0.2102325E+03  0.7818608E-02  0.1141382E+00
         -2   -1    0    0    0  501 -0.00000000000E+00  0.00000000000E+00  0.91991048141E+02  0.91991048141E+02  0.00000000000E+00 0.  1.
          2   -1    0    0  502    0  0.00000000000E+00 -0.00000000000E+00 -0.50673087933E+03  0.50673087933E+03  0.00000000000E+00 0. -1.
          6    2    1    2  502    0 -0.28385507411E+02  0.11921847531E+03 -0.14004208077E+03  0.25334338288E+03  0.17190783396E+03 0.  0.
         24    2    3    3    0    0  0.24506882889E+02  0.98494179132E+02 -0.33716753939E+02  0.13270231802E+03  0.78558227321E+02 0.  0.
         -6    2    1    2    0  501  0.28385507411E+02 -0.11921847531E+03 -0.27469775041E+03  0.34537854459E+03  0.16973126729E+03 0.  0.
        -24    2    5    5    0    0  0.57050731753E+02 -0.13394097089E+03 -0.17864005589E+03  0.24395065079E+03  0.80029249517E+02 0.  0.
          5    1    3    3  502    0 -0.52892390300E+02  0.20724296176E+02 -0.10632532683E+03  0.12064106486E+03  0.47000000000E+01 0. -1.
        -13    1    4    4    0    0  0.92050090522E+01  0.24110093628E+02  0.25592044233E+02  0.36345309662E+02  0.00000000000E+00 0.  1.
         14    1    4    4    0    0  0.15301873837E+02  0.74384085504E+02 -0.59308798171E+02  0.96357008358E+02  0.00000000000E+00 0. -1.
         -5    1    5    5    0  501 -0.28665224343E+02  0.14722495580E+02 -0.96057694523E+02  0.10142789380E+03  0.47000000000E+01 0.  1.
         11    1    6    6    0    0  0.18130034449E+02 -0.22571949267E+02 -0.95057912167E+02  0.99368997723E+02  0.00000000000E+00 0. -1.
        -12    1    6    6    0    0  0.38920697305E+02 -0.11136902162E+03 -0.83582143723E+02  0.14458165307E+03  0.00000000000E+00 0.  1.
</event>
<event>
12    1  0.1345781E-002  0.2683086E+03  0.7818608E-02  0.1102252E+00
          1   -1    0    0  502    0  0.00000000000E+00  0.00000000000E+00  0.18597912320E+04  0.18597912320E+04  0.00000000000E+00 0. -1.
         -1   -1    0    0    0  501 -0.00000000000E+00 -0.00000000000E+00 -0.45476415194E+02  0.45476415194E+02  0.00000000000E+00 0.  1.
          6    2    1    2  502    0  0.15543111914E+03 -0.13607930456E+03  0.53863799359E+03  0.60160720526E+03  0.17065735073E+03 0.  0.
         24    2    3    3    0    0  0.11000839367E+03 -0.20862891885E+02  0.21812522221E+03  0.25796702665E+03  0.80195182760E+02 0.  0.
         -6    2    1    2    0  501 -0.15543111914E+03  0.13607930456E+03  0.12756768233E+04  0.13036604420E+04  0.17176373496E+03 0.  0.
        -24    2    5    5    0    0 -0.16485336424E+02  0.82332046158E+02  0.43523037125E+03  0.45009906339E+03  0.78187970078E+02 0.  0.
          5    1    3    3  502    0  0.45422725465E+02 -0.11521641268E+03  0.32051277138E+03  0.34364017861E+03  0.47000000000E+01 0. -1.
        -11    1    4    4    0    0  0.65019887267E+02 -0.51317565895E+02  0.12010486507E+03  0.14589810459E+03  0.00000000000E+00 0.  1.
         12    1    4    4    0    0  0.44988506407E+02  0.30454674010E+02  0.98020357137E+02  0.11206892206E+03  0.00000000000E+00 0. -1.
         -5    1    5    5    0  501 -0.13894578271E+03  0.53747258402E+02  0.84044645201E+03  0.85356137858E+03  0.47000000000E+01 0.  1.
         13    1    6    6    0    0 -0.34803986859E+02  0.88553815537E+02  0.37198658760E+03  0.38396239022E+03  0.00000000000E+00 0. -1.
        -14    1    6    6    0    0  0.18318650435E+02 -0.62217693793E+01  0.63243783649E+02  0.66136673171E+02  0.00000000000E+00 0.  1.
</event>
<event>
12    1  0.1345781E-002  0.5896208E+03  0.7818608E-02  0.9927177E-01
          1   -1    0    0  502    0  0.00000000000E+00  0.00000000000E+00  0.16331952298E+04  0.16331952298E+04  0.00000000000E+00 0.  1.
         -1   -1    0    0    0  501 -0.00000000000E+00 -0.00000000000E+00 -0.90442574961E+03  0.90442574961E+03  0.00000000000E+00 0. -1.
          6    2    1    2  502    0  0.27310952214E+03  0.49365332180E+03  0.14738765865E+04  0.15874341409E+04  0.17132584823E+03 0.  0.
         24    2    3    3    0    0  0.39018466227E+02  0.12754708563E+03  0.42554798198E+03  0.45260051800E+03  0.77236287897E+02 0.  0.
         -6    2    1    2    0  501 -0.27310952214E+03 -0.49365332180E+03 -0.74510710635E+03  0.95018683846E+03  0.17142932902E+03 0.  0.
        -24    2    5    5    0    0 -0.98222058883E+02 -0.13254148942E+03 -0.18495862620E+03  0.26114707901E+03  0.82299964774E+02 0.  0.
          5    1    3    3  502    0  0.23409105591E+03  0.36610623617E+03  0.10483286046E+04  0.11348336229E+04  0.47000000000E+01 0. -1.
        -13    1    4    4    0    0  0.62550676626E+02  0.96143356444E+02  0.32655288666E+03  0.34611113811E+03  0.00000000000E+00 0.  1.
         14    1    4    4    0    0 -0.23532210399E+02  0.31403729190E+02  0.98995095317E+02  0.10648937989E+03  0.00000000000E+00 0. -1.
         -5    1    5    5    0  501 -0.17488746325E+03 -0.36111183238E+03 -0.56014848016E+03  0.68903975946E+03  0.47000000000E+01 0.  1.
         11    1    6    6    0    0 -0.63436169420E+02 -0.11737356479E+03 -0.17818291809E+03  0.22259796406E+03  0.00000000000E+00 0. -1.
        -12    1    6    6    0    0 -0.34785889464E+02 -0.15167924629E+02 -0.67757081040E+01  0.38549114953E+02  0.00000000000E+00 0.  1.
</event>
<event>
12    1  0.1345781E-002  0.3430091E+03  0.7818608E-02  0.1065522E+00
         -2   -1    0    0    0  501 -0.00000000000E+00  0.00000000000E+00  0.45254126267E+02  0.45254126267E+02  0.00000000000E+00 0. -1.
          2   -1    0    0  502    0  0.00000000000E+00 -0.00000000000E+00 -0.26040562013E+04  0.26040562013E+04  0.00000000000E+00 0.  1.
          6    2    1    2  502    0  0.27041875472E+03  0.12838455238E+03 -0.12182435920E+04  0.12649671735E+04  0.16252877975E+03 0.  0.
         24    2    3    3    0    0  0.10583453573E+03  0.34507132604E+01 -0.45111518463E+03  0.47048337078E+03  0.81466778529E+02 0.  0.
         -6    2    1    2    0  501 -0.27041875472E+03 -0.12838455238E+03 -0.13405584830E+04  0.13843431541E+04  0.17233695408E+03 0.  0.
        -24    2    5    5    0    0 -0.21156138999E+03 -0.15736592707E+03 -0.11511003801E+04  0.11837924817E+04  0.82524528513E+02 0.  0.
          5    1    3    3  502    0  0.16458421899E+03  0.12493383912E+03 -0.76712840741E+03  0.79448380270E+03  0.47000000000E+01 0. -1.
        -11    1    4    4    0    0 -0.13351493836E+02  0.52970247546E+01 -0.45114046365E+02  0.47345517616E+02  0.00000000000E+00 0.  1.
         12    1    4    4    0    0  0.11918602956E+03 -0.18463114942E+01 -0.40600113826E+03  0.42313785317E+03  0.00000000000E+00 0. -1.
         -5    1    5    5    0  501 -0.58857364732E+02  0.28981374687E+02 -0.18945810285E+03  0.20055067239E+03  0.47000000000E+01 0.  1.
         11    1    6    6    0    0  0.70788802646E+01 -0.35557529198E+01 -0.19546463332E+02  0.21090712492E+02  0.00000000000E+00 0. -1.
        -12    1    6    6    0    0 -0.21864027025E+03 -0.15381017415E+03 -0.11315539168E+04  0.11627017692E+04  0.00000000000E+00 0.  1.
</event>
<event>
12    1  0.1345781E-002  0.1738497E+03  0.7818608E-02  0.1173892E+00
         -2   -1    0    0    0  501 -0.00000000000E+00  0.00000000000E+00  0.20588705540E+02  0.20588705540E+02  0.00000000000E+00 0. -1.
          2   -1    0    0  502    0  0.00000000000E+00 -0.00000000000E+00 -0.14726037934E+04  0.14726037934E+04  0.00000000000E+00 0.  1.
          6    2    1    2  502    0 -0.18803337916E+02  0.39294777736E+01 -0.68417603309E+03  0.70591970347E+03  0.17279113747E+03 0.  0.
         24    2    3    3    0    0 -0.17416042017E+02 -0.60972849204E+02 -0.50235613336E+03  0.51280108041E+03  0.81131106764E+02 0.  0.
         -6    2    1    2    0  501  0.18803337916E+02 -0.39294777736E+01 -0.76783905474E+03  0.78727279544E+03  0.17277914844E+03 0.  0.
        -24    2    5    5    0    0  0.49472859210E+02 -0.45292108777E+02 -0.65572160302E+03  0.66380660670E+03  0.78545856161E+02 0.  0.
          5    1    3    3  502    0 -0.13872958985E+01  0.64902326977E+02 -0.18181989972E+03  0.19311862306E+03  0.47000000000E+01 0. -1.
        -11    1    4    4    0    0  0.32315548567E+02 -0.22111752431E+02 -0.22219244129E+03  0.22561627876E+03  0.00000000000E+00 0.  1.
         12    1    4    4    0    0 -0.49731590584E+02 -0.38861096772E+02 -0.28016369207E+03  0.28718480165E+03  0.00000000000E+00 0. -1.
         -5    1    5    5    0  501 -0.30669521294E+02  0.41362631003E+02 -0.11211745173E+03  0.12346618874E+03  0.47000000000E+01 0.  1.
         11    1    6    6    0    0  0.37572089425E+01  0.14700822799E+02 -0.30644634832E+02  0.34195386443E+02  0.00000000000E+00 0. -1.
        -12    1    6    6    0    0  0.45715650268E+02 -0.59992931576E+02 -0.62507696818E+03  0.62961122026E+03  0.00000000000E+00 0.  1.
</event>
<event>
12    1  0.1345781E-002  0.1845075E+03  0.7818608E-02  0.1163511E+00
          1   -1    0    0  502    0  0.00000000000E+00  0.00000000000E+00  0.55968523660E+03  0.55968523660E+03  0.00000000000E+00 0.  1.
         -1   -1    0    0    0  501 -0.00000000000E+00 -0.00000000000E+00 -0.84447902347E+02  0.84447902347E+02  0.00000000000E+00 0. -1.
          6    2    1    2  502    0 -0.39228083704E+02  0.64538618925E+02  0.40572846170E+03  0.44474806011E+03  0.16577447468E+03 0.  0.
         24    2    3    3    0    0 -0.43881811543E+02 -0.17215904572E+02  0.27555264896E+03  0.29088678650E+03  0.80398130930E+02 0.  0.
         -6    2    1    2    0  501  0.39228083704E+02 -0.64538618925E+02  0.69508872555E+02  0.19938507884E+03  0.17093522286E+03 0.  0.
        -24    2    5    5    0    0  0.39237587521E+02  0.21381126189E+02  0.67671324464E+02  0.11331726096E+03  0.79149558720E+02 0.  0.
          5    1    3    3  502    0  0.46537278387E+01  0.81754523497E+02  0.13017581274E+03  0.15386127361E+03  0.47000000000E+01 0. -1.
        -13    1    4    4    0    0 -0.30571205399E+01  0.19354482959E+02  0.17730982373E+03  0.17838922497E+03  0.00000000000E+00 0.  1.
         14    1    4    4    0    0 -0.40824691003E+02 -0.36570387530E+02  0.98242825232E+02  0.11249756153E+03  0.00000000000E+00 0. -1.
         -5    1    5    5    0  501 -0.95038164107E-02 -0.85919745114E+02  0.18375480909E+01  0.86067817875E+02  0.47000000000E+01 0.  1.
         13    1    6    6    0    0  0.25441350455E+02 -0.73485819881E+01 -0.10816739731E+02  0.28605346155E+02  0.00000000000E+00 0. -1.
        -14    1    6    6    0    0  0.13796237066E+02  0.28729708177E+02  0.78488064196E+02  0.84711914807E+02  0.00000000000E+00 0.  1.
</event>
<event>
12    1  0.1345781E-002  0.1873088E+03  0.7818608E-02  0.1160911E+00
          1   -1    0    0  502    0  0.00000000000E+00  0.00000000000E+00  0.14538884575E+04  0.14538884575E+04  0.00000000000E+00 0. -1.
         -1   -1    0    0    0  501 -0.00000000000E+00 -0.00000000000E+00 -0.24145997138E+02  0.24145997138E+02  0.00000000000E+00 0.  1.
          6    2    1    2  502    0 -0.76478545343E+01  0.71158661372E+02  0.73952690413E+03  0.76349531289E+03  0.17579250869E+03 0.  0.
         24    2    3    3    0    0 -0.34926820079E+01  0.85902303754E+02  0.73805777530E+03  0.74740529148E+03  0.80585268141E+02 0.  0.
         -6    2    1    2    0  501  0.76478545343E+01 -0.71158661372E+02  0.69021555621E+03  0.71453914172E+03  0.17043070806E+03 0.  0.
        -24    2    5    5    0    0 -0.42647871923E+02 -0.19962875567E+02  0.22153628185E+03  0.24037353690E+03  0.80521771490E+02 0.  0.
          5    1    3    3  502    0 -0.41551725263E+01 -0.14743642382E+02  0.14691288293E+01  0.16090021409E+02  0.47000000000E+01 0. -1.
        -11    1    4    4    0    0 -0.36729589147E+02  0.55927478693E+02  0.55197921744E+03  0.55601978569E+03  0.00000000000E+00 0.  1.
         12    1    4    4    0    0  0.33236907139E+02  0.29974825062E+02  0.18607855786E+03  0.19138550580E+03  0.00000000000E+00 0. -1.
         -5    1    5    5    0  501  0.50295726457E+02 -0.51195785805E+02  0.46867927436E+03  0.47416560483E+03  0.47000000000E+01 0.  1.
         11    1    6    6    0    0  0.11499810043E+02 -0.34321520357E+02  0.10518388551E+03  0.11123786298E+03  0.00000000000E+00 0. -1.
        -12    1    6    6    0    0 -0.54147681966E+02  0.14358644790E+02  0.11635239634E+03  0.12913567392E+03  0.00000000000E+00 0.  1.
</event>
<event>
12    1  0.1345781E-002  0.2123444E+03  0.7818608E-02  0.1139723E+00
          2   -1    0    0  502    0  0.00000000000E+00  0.00000000000E+00  0.63427402914E+02  0.63427402914E+02  0.00000000000E+00 0. -1.
         -2   -1    0    0    0  501 -0.00000000000E+00 -0.00000000000E+00 -0.71110607462E+03  0.71110607462E+03  0.00000000000E+00 0.  1.
          6    2    1    2  502    0 -0.87732334752E+02 -0.91447751043E+02 -0.33174618944E+03  0.39439769387E+03  0.17156442811E+03 0.  0.
         24    2    3    3    0    0 -0.12209270955E+03 -0.70559501390E+02 -0.28825522117E+03  0.33497961033E+03  0.96098875374E+02 0.  0.
         -6    2    1    2    0  501  0.87732334752E+02  0.91447751043E+02 -0.31593248227E+03  0.38013578366E+03  0.16920468946E+03 0.  0.
        -24    2    5    5    0    0  0.86015777431E+01  0.21473349732E+02 -0.59280433878E+02  0.10255614196E+03  0.80426988782E+02 0.  0.
          5    1    3    3  502    0  0.34360374802E+02 -0.20888249654E+02 -0.43490968270E+02  0.59418083537E+02  0.47000000000E+01 0. -1.
        -11    1    4    4    0    0 -0.10373007072E+03 -0.54863893315E+02 -0.28781683695E+03  0.31081908885E+03  0.00000000000E+00 0.  1.
         12    1    4    4    0    0 -0.18362638829E+02 -0.15695608075E+02 -0.43838421480E+00  0.24160521483E+02  0.00000000000E+00 0. -1.
         -5    1    5    5    0  501  0.79130757009E+02  0.69974401311E+02 -0.25665204839E+03  0.27757964170E+03  0.47000000000E+01 0.  1.
         13    1    6    6    0    0  0.39176647245E+02  0.32781615316E+02 -0.35613283578E+02  0.62271582277E+02  0.00000000000E+00 0. -1.
        -14    1    6    6    0    0 -0.30575069502E+02 -0.11308265584E+02 -0.23667150300E+02  0.40284559683E+02  0.00000000000E+00 0.  1.
</event>
<event>
12    1  0.1345781E-002  0.1925581E+03  0.7818608E-02  0.1156174E+00
          1   -1    0    0  502    0  0.00000000000E+00  0.00000000000E+00  0.35265444907E+04  0.35265444907E+04  0.00000000000E+00 0.  1.
         -1   -1    0    0    0  501 -0.00000000000E+00 -0.00000000000E+00 -0.11599600274E+02  0.11599600274E+02  0.00000000000E+00 0. -1.
          6    2    1    2  502    0  0.64315540658E+02 -0.59945791972E+02  0.23059299582E+04  0.23140301609E+04  0.17231548531E+03 0.  0.
         24    2    3    3    0    0  0.27174326490E+02  0.32367192384E+02  0.86487019574E+03  0.86953146378E+03  0.79362660372E+02 0.  0.
         -6    2    1    2    0  501 -0.64315540658E+02  0.59945791972E+02  0.12090149322E+04  0.12241139301E+04  0.17031682483E+03 0.  0.
        -24    2    5    5    0    0 -0.79354069456E+01 -0.24814381852E+02  0.42694150216E+03  0.43542898253E+03  0.81490050483E+02 0.  0.
          5    1    3    3  502    0  0.37141214168E+02 -0.92312984356E+02  0.14410597625E+04  0.14444986971E+04  0.47000000000E+01 0. -1.
        -13    1    4    4    0    0  0.14976684640E+02  0.63546456852E+01  0.77520787014E+03  0.77537856853E+03  0.00000000000E+00 0.  1.
         14    1    4    4    0    0  0.12197641850E+02  0.26012546698E+02  0.89662325596E+02  0.94152895249E+02  0.00000000000E+00 0. -1.
         -5    1    5    5    0  501 -0.56380133712E+02  0.84760173824E+02  0.78207343004E+03  0.78868494757E+03  0.47000000000E+01 0.  1.
         11    1    6    6    0    0  0.22951695555E+02 -0.26772676139E+02  0.35949718731E+03  0.36122262416E+03  0.00000000000E+00 0. -1.
        -12    1    6    6    0    0 -0.30887102501E+02  0.19582942871E+01  0.67444314848E+02  0.74206358371E+02  0.00000000000E+00 0.  1.
</event>
<event>
12    1  0.1345781E-002  0.2085595E+03  0.7818608E-02  0.1142712E+00
          2   -1    0    0  502    0  0.00000000000E+00  0.00000000000E+00  0.38601912616E+03  0.38601912616E+03  0.00000000000E+00 0. -1.
         -2   -1    0    0    0  501 -0.00000000000E+00 -0.00000000000E+00 -0.13265917520E+03  0.13265917520E+03  0.00000000000E+00 0.  1.
          6    2    1    2  502    0 -0.57343662493E+01 -0.12153258050E+03  0.22853908323E+03  0.31106266739E+03  0.17241467282E+03 0.  0.
         24    2    3    3    0    0  0.57630572428E+02 -0.57768262124E+02  0.16239305051E+03  0.19935594693E+03  0.81931896938E+02 0.  0.
         -6    2    1    2    0  501  0.57343662493E+01  0.12153258050E+03  0.24820867725E+02  0.20761563397E+03  0.16638847591E+03 0.  0.
        -24    2    5    5    0    0  0.46881720345E+02  0.63408958031E+02 -0.31711016184E+02  0.11656946911E+03  0.79776318038E+02 0.  0.
          5    1    3    3  502    0 -0.63364938678E+02 -0.63764318376E+02  0.66146032724E+02  0.11170672046E+03  0.47000000000E+01 0. -1.
        -11    1    4    4    0    0  0.15810728281E+02  0.21077780805E+02  0.34971071948E+02  0.43786160435E+02  0.00000000000E+00 0.  1.
         12    1    4    4    0    0  0.41819844147E+02 -0.78846042929E+02  0.12742197856E+03  0.15556978649E+03  0.00000000000E+00 0. -1.
         -5    1    5    5    0  501 -0.41147354096E+02  0.58123622469E+02  0.56531883910E+02  0.91046164864E+02  0.47000000000E+01 0.  1.
         11    1    6    6    0    0  0.29597597193E+00  0.43611613571E+02  0.16535141526E+02  0.46641948344E+02  0.00000000000E+00 0. -1.
        -12    1    6    6    0    0  0.46585744373E+02  0.19797344460E+02 -0.48246157710E+02  0.69927520765E+02  0.00000000000E+00 0.  1.
</event>
<event>
12    1  0.1345781E-002  0.2096672E+03  0.7818608E-02  0.1141830E+00
          2   -1    0    0  502    0  0.00000000000E+00  0.00000000000E+00  0.19856822656E+04  0.19856822656E+04  0.00000000000E+00 0. -1.
         -2   -1    0    0    0  501 -0.00000000000E+00 -0.00000000000E+00 -0.35969556746E+02  0.35969556746E+02  0.00000000000E+00 0.  1.
          6    2    1    2  502    0  0.90047522668E+02  0.78328354728E+02  0.15997699046E+04  0.16133655706E+04  0.17158330118E+03 0.  0.
         24    2    3    3    0    0 -0.11759466282E+02  0.93742370807E+01  0.51345386812E+03  0.52010258557E+03  0.81520938745E+02 0.  0.
         -6    2    1    2    0  501 -0.90047522668E+02 -0.78328354728E+02  0.34994280430E+03  0.40828625179E+03  0.17318720977E+03 0.  0.
        -24    2    5    5    0    0 -0.49580463724E+02 -0.10695156579E+03  0.32525279228E+03  0.35271145746E+03  0.68695949907E+02 0.  0.
          5    1    3    3  502    0  0.10180698895E+03  0.68954117647E+02  0.10863160365E+04  0.10932629850E+04  0.47000000000E+01 0. -1.
        -11    1    4    4    0    0  0.32029623791E+02  0.12757415460E+02  0.14510408174E+03  0.14914369912E+03  0.00000000000E+00 0.  1.
         12    1    4    4    0    0 -0.43789090073E+02 -0.33831783795E+01  0.36834978638E+03  0.37095888645E+03  0.00000000000E+00 0. -1.
         -5    1    5    5    0  501 -0.40467058944E+02  0.28623211063E+02  0.24690012027E+02  0.55574794332E+02  0.47000000000E+01 0.  1.
         13    1    6    6    0    0  0.89115896751E+01 -0.24456633155E+02  0.13258939817E+03  0.13512028657E+03  0.00000000000E+00 0. -1.
        -14    1    6    6    0    0 -0.58492053399E+02 -0.82494932636E+02  0.19266339410E+03  0.21759117089E+03  0.00000000000E+00 0.  1.
</event>
<event>
12    1  0.1345781E-002  0.2789888E+03  0.7818608E-02  0.1096243E+00
         -1   -1    0    0    0  501 -0.00000000000E+00  0.00000000000E+00  0.10521120035E+03  0.10521120035E+03  0.00000000000E+00 0.  1.
          1   -1    0    0  502    0  0.00000000000E+00 -0.00000000000E+00 -0.76199733930E+03  0.76199733930E+03  0.00000000000E+00 0. -1.
          6    2    1    2  502    0  0.25046372389E+02  0.21812491031E+03 -0.40363486058E+03  0.49129139890E+03  0.17389750052E+03 0.  0.
         24    2    3    3    0    0 -0.52352416975E+02  0.12691924764E+03 -0.21230915054E+03  0.26559987752E+03  0.81356306158E+02 0.  0.
         -6    2    1    2    0  501 -0.25046372389E+02 -0.21812491031E+03 -0.25315127837E+03  0.37591714075E+03  0.17035941329E+03 0.  0.
        -24    2    5    5    0    0  0.46877889085E+02 -0.13430499639E+03 -0.17949751968E+03  0.24307948220E+03  0.81442658086E+02 0.  0.
          5    1    3    3  502    0  0.77398789364E+02  0.91205662669E+02 -0.19132571004E+03  0.22569152138E+03  0.47000000000E+01 0. -1.
        -13    1    4    4    0    0 -0.33430630958E+02  0.13106390617E+03 -0.15827042363E+03  0.20819433610E+03  0.00000000000E+00 0.  1.
         14    1    4    4    0    0 -0.18921786017E+02 -0.41446585272E+01 -0.54038726909E+02  0.57405541425E+02  0.00000000000E+00 0. -1.
         -5    1    5    5    0  501 -0.71924261473E+02 -0.83819913924E+02 -0.73653758691E+02  0.13283765855E+03  0.47000000000E+01 0.  1.
         13    1    6    6    0    0  0.27618586989E+02 -0.12528833804E+01 -0.18191321721E+02  0.33095018507E+02  0.00000000000E+00 0. -1.
        -14    1    6    6    0    0  0.19259302096E+02 -0.13305211301E+03 -0.16130619796E+03  0.20998446369E+03  0.00000000000E+00 0.  1.
</event>
<event>
12    1  0.1345781E-002  0.2402996E+03  0.7818608E-02  0.1119593E+00
         -2   -1    0    0    0  501 -0.00000000000E+00  0.00000000000E+00  0.73006242067E+02  0.73006242067E+02  0.00000000000E+00 0. -1.
          2   -1    0    0  502    0  0.00000000000E+00 -0.00000000000E+00 -0.86078082964E+03  0.86078082964E+03  0.00000000000E+00 0.  1.
          6    2    1    2  502    0  0.10180384350E+03  0.13970707593E+03 -0.25632508917E+03  0.34923098658E+03  0.16241194855E+03 0.  0.
         24    2    3    3    0    0  0.25942219882E+02  0.12693246032E+03 -0.21757865593E+03  0.26296655109E+03  0.70894902624E+02 0.  0.
         -6    2    1    2    0  501 -0.10180384350E+03 -0.13970707593E+03 -0.53144949840E+03  0.58455608513E+03  0.17142099548E+03 0.  0.
        -24    2    5    5    0    0 -0.11284865220E+03 -0.16319093499E+03 -0.42945132282E+03  0.47920335732E+03  0.76428524930E+02 0.  0.
          5    1    3    3  502    0  0.75861623618E+02  0.12774615613E+02 -0.38746433233E+02  0.86264435489E+02  0.47000000000E+01 0. -1.
        -11    1    4    4    0    0  0.27034278983E+02  0.76712844432E+02 -0.18758939220E+03  0.20446391566E+03  0.00000000000E+00 0.  1.
         12    1    4    4    0    0 -0.10920591015E+01  0.50219615885E+02 -0.29989263736E+02  0.58502635428E+02  0.00000000000E+00 0. -1.
         -5    1    5    5    0  501  0.11044808696E+02  0.23483859063E+02 -0.10199817558E+03  0.10535272781E+03  0.47000000000E+01 0.  1.
         13    1    6    6    0    0 -0.10104508536E+03 -0.96951940279E+02 -0.23639747258E+03  0.27476090159E+03  0.00000000000E+00 0. -1.
        -14    1    6    6    0    0 -0.11803566837E+02 -0.66238994714E+02 -0.19305385025E+03  0.20444245573E+03  0.00000000000E+00 0.  1.
</event>
<event>
12    1  0.1345781E-002  0.3298741E+03  0.7818608E-02  0.1071193E+00
          2   -1    0    0  502    0  0.00000000000E+00  0.00000000000E+00  0.91537096810E+02  0.91537096810E+02  0.00000000000E+00 0. -1.
         -2   -1    0    0    0  501 -0.00000000000E+00 -0.00000000000E+00 -0.14820837029E+04  0.14820837029E+04  0.00000000000E+00 0.  1.
          6    2    1    2  502    0 -0.23771935261E+03  0.15093419361E+03 -0.10457738878E+04  0.10966524233E+04  0.17237137736E+03 0.  0.
         24    2    3    3    0    0 -0.13369135568E+03  0.44549716729E+02 -0.73038427887E+03  0.74789437468E+03  0.77632113216E+02 0.  0.
         -6    2    1    2    0  501  0.23771935261E+03 -0.15093419361E+03 -0.34477271829E+03  0.47696837640E+03  0.17128626158E+03 0.  0.
        -24    2    5    5    0    0  0.21204396819E+03 -0.70467023281E+02 -0.29364655983E+03  0.37812423169E+03  0.82591686478E+02 0.  0.
          5    1    3    3  502    0 -0.10402799693E+03  0.10638447688E+03 -0.31538960894E+03  0.34875804865E+03  0.47000000000E+01 0. -1.
        -11    1    4    4    0    0  0.79764171717E+01 -0.63474107419E+01 -0.55123975245E+02  0.56058589893E+02  0.00000000000E+00 0.  1.
         12    1    4    4    0    0 -0.14166777285E+03  0.50897127470E+02 -0.67526030363E+03  0.69183578478E+03  0.00000000000E+00 0. -1.
         -5    1    5    5    0  501  0.25675384420E+02 -0.80467170325E+02 -0.51126158456E+02  0.98844144711E+02  0.47000000000E+01 0.  1.
         13    1    6    6    0    0  0.17647525595E+02 -0.10380351314E+01  0.17344189518E+01  0.17762907579E+02  0.00000000000E+00 0. -1.
        -14    1    6    6    0    0  0.19439644260E+03 -0.69428988149E+02 -0.29538097878E+03  0.36036132411E+03  0.00000000000E+00 0.  1.
</event>
<event>
12    1  0.1345781E-002  0.2117480E+03  0.7818608E-02  0.1140189E+00
          2   -1    0    0  502    0  0.00000000000E+00  0.00000000000E+00  0.33762057477E+04  0.33762057477E+04  0.00000000000E+00 0.  1.
         -2   -1    0    0    0  501 -0.00000000000E+00 -0.00000000000E+00 -0.14200275516E+02  0.14200275516E+02  0.00000000000E+00 0. -1.
          6    2    1    2  502    0 -0.71545379839E+02 -0.10020414677E+03  0.12547335031E+04  0.12725913585E+04  0.17312709023E+03 0.  0.
         24    2    3    3    0    0 -0.79255784895E+02 -0.59786644513E+01  0.63049185358E+03  0.64121380194E+03  0.85544950126E+02 0.  0.
         -6    2    1    2    0  501  0.71545379839E+02  0.10020414677E+03  0.21072719690E+04  0.21178146647E+04  0.17141817360E+03 0.  0.
        -24    2    5    5    0    0  0.41091056595E+02  0.86482504177E+02  0.75493101221E+03  0.76505308085E+03  0.78852297843E+02 0.  0.
          5    1    3    3  502    0  0.77104050566E+01 -0.94225482323E+02  0.62424164955E+03  0.63137755654E+03  0.47000000000E+01 0. -1.
        -11    1    4    4    0    0 -0.29339212857E+02 -0.18814477460E+02  0.49539034186E+03  0.49661490592E+03  0.00000000000E+00 0.  1.
         12    1    4    4    0    0 -0.49916572039E+02  0.12835813009E+02  0.13510151172E+03  0.14459889602E+03  0.00000000000E+00 0. -1.
         -5    1    5    5    0  501  0.30454323243E+02  0.13721642598E+02  0.13523409568E+04  0.13527615839E+04  0.47000000000E+01 0.  1.
         11    1    6    6    0    0  0.57564210612E+02  0.34799866183E+02  0.49269064827E+03  0.49726124313E+03  0.00000000000E+00 0. -1.
        -12    1    6    6    0    0 -0.16473154017E+02  0.51682637994E+02  0.26224036393E+03  0.26779183772E+03  0.00000000000E+00 0.  1.
</event>
<event>
12    1  0.1345781E-002  0.2697463E+03  0.7818608E-02  0.1101425E+00
          2   -1    0    0  502    0  0.00000000000E+00  0.00000000000E+00  0.54059727577E+03  0.54059727577E+03  0.00000000000E+00 0.  1.
         -2   -1    0    0    0  501 -0.00000000000E+00 -0.00000000000E+00 -0.14167126966E+03  0.14167126966E+03  0.00000000000E+00 0. -1.
          6    2    1    2  502    0 -0.36488895508E+02 -0.20470965051E+03  0.27560978299E+03  0.38556765300E+03  0.17165133862E+03 0.  0.
         24    2    3    3    0    0  0.11766251030E+02 -0.13339349096E+03  0.25204292185E+03  0.29616943868E+03  0.79110263908E+02 0.  0.
         -6    2    1    2    0  501  0.36488895508E+02  0.20470965051E+03  0.12331622312E+03  0.29670089243E+03  0.17200886075E+03 0.  0.
        -24    2    5    5    0    0  0.75383137238E+02  0.60446206165E+02  0.70267438329E+02  0.13807880386E+03  0.69223420647E+02 0.  0.
          5    1    3    3  502    0 -0.48255146538E+02 -0.71316159549E+02  0.23566861140E+02  0.89398214323E+02  0.47000000000E+01 0. -1.
        -13    1    4    4    0    0  0.65590956521E+01 -0.10475136523E+03  0.11345576111E+03  0.15455769144E+03  0.00000000000E+00 0.  1.
         14    1    4    4    0    0  0.52071553782E+01 -0.28642125733E+02  0.13858716074E+03  0.14161174724E+03  0.00000000000E+00 0. -1.
         -5    1    5    5    0  501 -0.38894241730E+02  0.14426344435E+03  0.53048784793E+02  0.15862208857E+03  0.47000000000E+01 0.  1.
         11    1    6    6    0    0  0.16241632484E+02 -0.83467520596E+01 -0.63501903098E+01  0.19333489407E+02  0.00000000000E+00 0. -1.
        -12    1    6    6    0    0  0.59141504754E+02  0.68792958224E+02  0.76617628638E+02  0.11874531445E+03  0.00000000000E+00 0.  1.
</event>
<event>
12    1  0.1345781E-002  0.1976506E+03  0.7818608E-02  0.1151736E+00
          1   -1    0    0  502    0  0.00000000000E+00  0.00000000000E+00  0.10034243866E+04  0.10034243866E+04  0.00000000000E+00 0. -1.
         -1   -1    0    0    0  501 -0.00000000000E+00 -0.00000000000E+00 -0.38934406660E+02  0.38934406660E+02  0.00000000000E+00 0.  1.
          6    2    1    2  502    0  0.90297353098E+02 -0.34075315154E+02  0.48685460168E+03  0.52561641273E+03  0.17300425163E+03 0.  0.
         24    2    3    3    0    0 -0.23212679446E+02 -0.95898207119E+01  0.19987381470E+03  0.21599708353E+03  0.77938470220E+02 0.  0.
         -6    2    1    2    0  501 -0.90297353098E+02  0.34075315154E+02  0.47763537826E+03  0.51674238052E+03  0.17196625885E+03 0.  0.
        -24    2    5    5    0    0 -0.37688614885E+02  0.10706523330E+02  0.43796941651E+03  0.44667628109E+03  0.78532980065E+02 0.  0.
          5    1    3    3  502    0  0.11351003254E+03 -0.24485494442E+02  0.28698078697E+03  0.30961932921E+03  0.47000000000E+01 0. -1.
        -11    1    4    4    0    0  0.94401911722E+01 -0.22097802789E+02  0.16096294588E+02  0.28922669256E+02  0.00000000000E+00 0.  1.
         12    1    4    4    0    0 -0.32652870619E+02  0.12507982077E+02  0.18377752011E+03  0.18707441427E+03  0.00000000000E+00 0. -1.
         -5    1    5    5    0  501 -0.52608738213E+02  0.23368791824E+02  0.39665961747E+02  0.70066099428E+02  0.47000000000E+01 0.  1.
         11    1    6    6    0    0 -0.59688781326E+02  0.18619800050E+02  0.35550628170E+03  0.36096282897E+03  0.00000000000E+00 0. -1.
        -12    1    6    6    0    0  0.22000166441E+02 -0.79132767201E+01  0.82463134812E+02  0.85713452124E+02  0.00000000000E+00 0.  1.
</event>
<event>
12    1  0.1345781E-002  0.2177139E+03  0.7818608E-02  0.1135599E+00
          1   -1    0    0  502    0  0.00000000000E+00  0.00000000000E+00  0.61113496568E+03  0.61113496568E+03  0.00000000000E+00 0. -1.
         -1   -1    0    0    0  501 -0.00000000000E+00 -0.00000000000E+00 -0.80148282623E+02  0.80148282623E+02  0.00000000000E+00 0.  1.
          6    2    1    2  502    0  0.10475107129E+03  0.81630301097E+02  0.32751462835E+03  0.39322912247E+03  0.17241524868E+03 0.  0.
         24    2    3    3    0    0 -0.13953096161E+02  0.17002126965E+02  0.10446901947E+03  0.13238642293E+03  0.78285552511E+02 0.  0.
         -6    2    1    2    0  501 -0.10475107129E+03 -0.81630301097E+02  0.20347205470E+03  0.29805412584E+03  0.17262413473E+03 0.  0.
        -24    2    5    5    0    0 -0.43703110514E+02 -0.57352388459E+01  0.17363755768E+03  0.19607814239E+03  0.79710611901E+02 0.  0.
          5    1    3    3  502    0  0.11870416745E+03  0.64628174132E+02  0.22304560888E+03  0.26084269954E+03  0.47000000000E+01 0. -1.
        -13    1    4    4    0    0 -0.31303808070E+02  0.33395276089E+02  0.97192874503E+02  0.10743196786E+03  0.00000000000E+00 0.  1.
         14    1    4    4    0    0  0.17350711910E+02 -0.16393149124E+02  0.72761449721E+01  0.24954455066E+02  0.00000000000E+00 0. -1.
         -5    1    5    5    0  501 -0.61047960775E+02 -0.75895062251E+02  0.29834497020E+02  0.10197598345E+03  0.47000000000E+01 0.  1.
         11    1    6    6    0    0 -0.49773347054E+02  0.24516867045E+02  0.78997672708E+02  0.96535460531E+02  0.00000000000E+00 0. -1.
        -12    1    6    6    0    0  0.60702365402E+01 -0.30252105891E+02  0.94639884977E+02  0.99542681855E+02  0.00000000000E+00 0.  1.
</event>
<event>
12    1  0.1345781E-002  0.1789276E+03  0.7818608E-02  0.1168845E+00
          1   -1    0    0  502    0  0.00000000000E+00  0.00000000000E+00  0.87906990391E+02  0.87906990391E+02  0.00000000000E+00 0. -1.
         -1   -1    0    0    0  501 -0.00000000000E+00 -0.00000000000E+00 -0.36467126335E+03  0.36467126335E+03  0.00000000000E+00 0.  1.
          6    2    1    2  502    0  0.42699088498E+02  0.23416105715E+02 -0.14656843359E+03  0.23128539941E+03  0.17216011178E+03 0.  0.
         24    2    3    3    0    0  0.55017382626E+02  0.67028426034E+02 -0.13684445496E+03  0.18469762618E+03  0.88696595058E+02 0.  0.
         -6    2    1    2    0  501 -0.42699088498E+02 -0.23416105715E+02 -0.13019583936E+03  0.22129285433E+03  0.17218607559E+03 0.  0.
        -24    2    5    5    0    0 -0.12596607150E+02 -0.11957078999E+02  0.72510075780E+01  0.80044157311E+02  0.77800024157E+02 0.  0.
          5    1    3    3  502    0 -0.12318294127E+02 -0.43612320319E+02 -0.97239786330E+01  0.46587773227E+02  0.47000000000E+01 0. -1.
        -13    1    4    4    0    0  0.18826177178E+02  0.43674161910E+02 -0.13324143965E+03  0.14147486916E+03  0.00000000000E+00 0.  1.
         14    1    4    4    0    0  0.36191205448E+02  0.23354264125E+02 -0.36030153129E+01  0.43222757014E+02  0.00000000000E+00 0. -1.
         -5    1    5    5    0  501 -0.30102481348E+02 -0.11459026716E+02 -0.13744684694E+03  0.14124869702E+03  0.47000000000E+01 0.  1.
         13    1    6    6    0    0  0.80884594846E+01  0.84749738822E+01  0.36781847893E+02  0.38602495950E+02  0.00000000000E+00 0. -1.
        -14    1    6    6    0    0 -0.20685066635E+02 -0.20432052882E+02 -0.29530840315E+02  0.41441661361E+02  0.00000000000E+00 0.  1.
</event>
<event>
12    1  0.1345781E-002  0.1760150E+03  0.7818608E-02  0.1171716E+00
         -2   -1    0    0    0  501 -0.00000000000E+00  0.00000000000E+00  0.68552177112E+02  0.68552177112E+02  0.00000000000E+00 0.  1.
          2   -1    0    0  502    0  0.00000000000E+00 -0.00000000000E+00 -0.83125836429E+03  0.83125836429E+03  0.00000000000E+00 0. -1.
          6    2    1    2  502    0  0.16722269706E+02 -0.24449513099E+02 -0.68353897770E+03  0.70547769243E+03  0.17203437879E+03 0.  0.
         24    2    3    3    0    0  0.33289786066E+02 -0.18300717195E+02 -0.16931557166E+03  0.19092925777E+03  0.79643534329E+02 0.  0.
         -6    2    1    2    0  501 -0.16722269706E+02  0.24449513099E+02 -0.79167209475E+02  0.19433284897E+03  0.17498684561E+03 0.  0.
        -24    2    5    5    0    0  0.45109206556E+02  0.51120455425E+02 -0.22526008443E+02  0.10621482428E+03  0.78268936117E+02 0.  0.
          5    1    3    3  502    0 -0.16567516359E+02 -0.61487959047E+01 -0.51422340605E+03  0.51454843467E+03  0.47000000000E+01 0. -1.
        -13    1    4    4    0    0 -0.19739274684E+02 -0.11922025141E+02 -0.10414710874E+03  0.10666955473E+03  0.00000000000E+00 0.  1.
         14    1    4    4    0    0  0.53029060750E+02 -0.63786920534E+01 -0.65168462916E+02  0.84259703033E+02  0.00000000000E+00 0. -1.
         -5    1    5    5    0  501 -0.61831476262E+02 -0.26670942325E+02 -0.56641201032E+02  0.88118024692E+02  0.47000000000E+01 0.  1.
         11    1    6    6    0    0  0.21197425283E+02  0.37792132288E+02 -0.50860612482E+02  0.66816001105E+02  0.00000000000E+00 0. -1.
        -12    1    6    6    0    0  0.23911781273E+02  0.13328323136E+02  0.28334604040E+02  0.39398823172E+02  0.00000000000E+00 0.  1.
</event>
<event>
12    1  0.1345781E-002  0.1769871E+03  0.7818608E-02  0.1170751E+00
         -1   -1    0    0    0  501 -0.00000000000E+00  0.00000000000E+00  0.93847207217E+02  0.93847207217E+02  0.00000000000E+00 0.  1.
          1   -1    0    0  502    0  0.00000000000E+00 -0.00000000000E+00 -0.34741887172E+03  0.34741887172E+03  0.00000000000E+00 0. -1.
          6    2    1    2  502    0 -0.31965236934E+02 -0.25393244422E+02 -0.17059513626E+03  0.24592007500E+03  0.17235831729E+03 0.  0.
         24    2    3    3    0    0  0.16136870425E+02  0.43361409862E+02 -0.84419074345E+02  0.12554807300E+03  0.80592357382E+02 0.  0.
         -6    2    1    2    0  501  0.31965236934E+02  0.25393244422E+02 -0.82976528243E+02  0.19534600394E+03  0.17207081037E+03 0.  0.
        -24    2    5    5    0    0  0.35840671596E+02  0.50067098601E+01  0.19657457671E+02  0.90529712980E+02  0.80620049653E+02 0.  0.
          5    1    3    3  502    0 -0.48102107358E+02 -0.68754654284E+02 -0.86176061914E+02  0.12037200200E+03  0.47000000000E+01 0. -1.
        -11    1    4    4    0    0  0.40095912322E+02  0.14108472002E+02 -0.75585957119E+02  0.86717749514E+02  0.00000000000E+00 0.  1.
         12    1    4    4    0    0 -0.23959041898E+02  0.29252937860E+02 -0.88331172258E+01  0.38830323486E+02  0.00000000000E+00 0. -1.
         -5    1    5    5    0  501 -0.38754346621E+01  0.20386534562E+02 -0.10263398591E+03  0.10481629096E+03  0.47000000000E+01 0.  1.
         11    1    6    6    0    0  0.28090421719E+02  0.33113227516E+02 -0.14352311544E+02  0.45733428425E+02  0.00000000000E+00 0. -1.
        -12    1    6    6    0    0  0.77502498772E+01 -0.28106517656E+02  0.34009769215E+02  0.44796284555E+02  0.00000000000E+00 0.  1.
</event>
<event>
12    1  0.1345781E-002  0.1862751E+03  0.7818608E-02  0.1161865E+00
         -1   -1    0    0    0  501 -0.00000000000E+00  0.00000000000E+00  0.51916614987E+03  0.51916614987E+03  0.00000000000E+00 0.  1.
          1   -1    0    0  502    0  0.00000000000E+00 -0.00000000000E+00 -0.12178307913E+03  0.12178307913E+03  0.00000000000E+00 0. -1.
          6    2    1    2  502    0  0.51259089234E+02 -0.53613532009E+02  0.41348730804E+03  0.45318202629E+03  0.17000085293E+03 0.  0.
         24    2    3    3    0    0  0.98142360325E+02 -0.45372357903E+02  0.34077701998E+03  0.36614850373E+03  0.79026423979E+02 0.  0.
         -6    2    1    2    0  501 -0.51259089234E+02  0.53613532009E+02 -0.16104237292E+02  0.18776720271E+03  0.17174187291E+03 0.  0.
        -24    2    5    5    0    0 -0.31102524201E+02  0.14082795746E+02  0.56007362584E+02  0.10296661863E+03  0.79370068295E+02 0.  0.
          5    1    3    3  502    0 -0.46883271091E+02 -0.82411741064E+01  0.72710288057E+02  0.87033522554E+02  0.47000000000E+01 0. -1.
        -11    1    4    4    0    0  0.30133348604E+02  0.20966845548E+02  0.12725226286E+03  0.13244155584E+03  0.00000000000E+00 0.  1.
         12    1    4    4    0    0  0.68009011721E+02 -0.66339203451E+02  0.21352475711E+03  0.23370694789E+03  0.00000000000E+00 0. -1.
         -5    1    5    5    0  501 -0.20156565033E+02  0.39530736263E+02 -0.72111599876E+02  0.84800584079E+02  0.47000000000E+01 0.  1.
         13    1    6    6    0    0 -0.46083076309E+02  0.70062790421E+01  0.21980502494E+01  0.46664432848E+02  0.00000000000E+00 0. -1.
        -14    1    6    6    0    0  0.14980552108E+02  0.70765167035E+01  0.53809312334E+02  0.56302185783E+02  0.00000000000E+00 0.  1.
</event>
<event>
12    1  0.1345781E-002  0.1834666E+03  0.7818608E-02  0.1164490E+00
          2   -1    0    0  502    0  0.00000000000E+00  0.00000000000E+00  0.11724651285E+04  0.11724651285E+04  0.00000000000E+00 0.  1.
         -2   -1    0    0    0  501 -0.00000000000E+00 -0.00000000000E+00 -0.33182836649E+02  0.33182836649E+02  0.00000000000E+00 0. -1.
          6    2    1    2  502    0  0.22436189735E+02  0.71290185163E+02  0.77989050343E+03  0.80028513478E+03  0.16322201598E+03 0.  0.
         24    2    3    3    0    0  0.20242790782E+02 -0.82748360920E+01  0.26208555970E+03  0.27637726754E+03  0.84954752186E+02 0.  0.
         -6    2    1    2    0  501 -0.22436189735E+02 -0.71290185163E+02  0.35939178846E+03  0.40536283041E+03  0.17196189564E+03 0.  0.
        -24    2    5    5    0    0  0.19368587486E+02  0.14358983625E+01  0.28439659559E+03  0.29274359770E+03  0.66634723847E+02 0.  0.
          5    1    3    3  502    0  0.21933989532E+01  0.79565021255E+02  0.51780494372E+03  0.52390786724E+03  0.47000000000E+01 0. -1.
        -13    1    4    4    0    0 -0.32406484479E+02  0.51398114018E+01  0.11450715926E+03  0.11911543737E+03  0.00000000000E+00 0.  1.
         14    1    4    4    0    0  0.52649275261E+02 -0.13414647494E+02  0.14757840044E+03  0.15726183017E+03  0.00000000000E+00 0. -1.
         -5    1    5    5    0  501 -0.41804777221E+02 -0.72726083525E+02  0.74995192873E+02  0.11261923272E+03  0.47000000000E+01 0.  1.
         11    1    6    6    0    0  0.91045065053E+01  0.21311325794E+02  0.32835945807E+02  0.40190346886E+02  0.00000000000E+00 0. -1.
        -12    1    6    6    0    0  0.10264080981E+02 -0.19875427432E+02  0.25156064978E+03  0.25255325081E+03  0.00000000000E+00 0.  1.
</event>
<event>
12    1  0.1345781E-002  0.1938867E+03  0.7818608E-02  0.1155002E+00
          1   -1    0    0  502    0  0.00000000000E+00  0.00000000000E+00  0.10873533867E+04  0.10873533867E+04  0.00000000000E+00 0. -1.
         -1   -1    0    0    0  501 -0.00000000000E+00 -0.00000000000E+00 -0.35088788838E+02  0.35088788838E+02  0.00000000000E+00 0.  1.
          6    2    1    2  502    0  0.73680189698E+02 -0.49830294500E+02  0.60056850760E+03  0.63187186706E+03  0.17512194454E+03 0.  0.
         24    2    3    3    0    0  0.12639770580E+02  0.14524252178E+01  0.48179970134E+03  0.48874964849E+03  0.81138112811E+02 0.  0.
         -6    2    1    2    0  501 -0.73680189698E+02  0.49830294500E+02  0.45169609031E+03  0.49057030852E+03  0.16946398142E+03 0.  0.
        -24    2    5    5    0    0  0.31459026775E+01 -0.15633781366E+02  0.27986921105E+03  0.29123551443E+03  0.78974918490E+02 0.  0.
          5    1    3    3  502    0  0.61040419117E+02 -0.51282719718E+02  0.11876880626E+03  0.14312221857E+03  0.47000000000E+01 0. -1.
        -11    1    4    4    0    0 -0.14618446252E+02 -0.16263539739E+02  0.38637242211E+02  0.44396375769E+02  0.00000000000E+00 0.  1.
         12    1    4    4    0    0  0.27258216833E+02  0.17715964957E+02  0.44316245912E+03  0.44435327272E+03  0.00000000000E+00 0. -1.
         -5    1    5    5    0  501 -0.76826092375E+02  0.65464075866E+02  0.17182687926E+03  0.19933479409E+03  0.47000000000E+01 0.  1.
         11    1    6    6    0    0  0.46244692687E+01  0.20174556109E+02  0.22337886303E+03  0.22433571914E+03  0.00000000000E+00 0. -1.
        -12    1    6    6    0    0 -0.14785665912E+01 -0.35808337475E+02  0.56490348016E+02  0.66899795298E+02  0.00000000000E+00 0.  1.
</event>
<event>
12    1  0.1345781E-002  0.1759604E+03  0.7818608E-02  0.1171771E+00
          1   -1    0    0  502    0  0.00000000000E+00  0.00000000000E+00  0.11666346790E+04  0.11666346790E+04  0.00000000000E+00 0.  1.
         -1   -1    0    0    0  501 -0.00000000000E+00 -0.00000000000E+00 -0.26938234871E+02  0.26938234871E+02  0.00000000000E+00 0. -1.
          6    2    1    2  502    0 -0.19364804679E+02 -0.32923800365E+02  0.49589240274E+03  0.52604167226E+03  0.17132306784E+03 0.  0.
         24    2    3    3    0    0 -0.48275895928E+02 -0.75650259681E+02  0.38390666292E+03  0.40265489240E+03  0.81811445529E+02 0.  0.
         -6    2    1    2    0  501  0.19364804679E+02  0.32923800365E+02  0.64380404142E+03  0.66753124164E+03  0.17220726617E+03 0.  0.
        -24    2    5    5    0    0 -0.96395789756E+01  0.29692779607E+01  0.60294902457E+03  0.60896717342E+03  0.84804209721E+02 0.  0.
          5    1    3    3  502    0  0.28911091249E+02  0.42726459316E+02  0.11198573981E+03  0.12338677986E+03  0.47000000000E+01 0. -1.
        -11    1    4    4    0    0 -0.67802318899E+02 -0.61829655995E+02  0.34489016433E+03  0.35688833864E+03  0.00000000000E+00 0.  1.
         12    1    4    4    0    0  0.19526422971E+02 -0.13820603686E+02  0.39016498598E+02  0.45766553761E+02  0.00000000000E+00 0. -1.
         -5    1    5    5    0  501  0.29004383655E+02  0.29954522405E+02  0.40855016855E+02  0.58564068215E+02  0.47000000000E+01 0.  1.
         11    1    6    6    0    0 -0.42307468243E+02  0.18583146910E+02  0.25628926179E+03  0.26042165987E+03  0.00000000000E+00 0. -1.
        -12    1    6    6    0    0  0.32667889267E+02 -0.15613868949E+02  0.34665976277E+03  0.34854551356E+03  0.00000000000E+00 0.  1.
</event>
<event>
12    1  0.1345781E-002  0.1937492E+03  0.7818608E-02  0.1155123E+00
         -2   -1    0    0    0  501 -0.00000000000E+00  0.00000000000E+00  0.10168600539E+03  0.10168600539E+03  0.00000000000E+00 0.  1.
          2   -1    0    0  502    0  0.00000000000E+00 -0.00000000000E+00 -0.38925132389E+03  0.38925132389E+03  0.00000000000E+00 0. -1.
          6    2    1    2  502    0  0.89122377962E+02 -0.13403823523E+02 -0.87814573079E+02  0.21245451744E+03  0.17118137164E+03 0.  0.
         24    2    3    3    0    0  0.12875416158E+03 -0.11707256908E+02 -0.79768174680E+02  0.17170662009E+03  0.80034415745E+02 0.  0.
         -6    2    1    2    0  501 -0.89122377962E+02  0.13403823523E+02 -0.19975074542E+03  0.27848281183E+03  0.17184253097E+03 0.  0.
        -24    2    5    5    0    0 -0.38560626667E+01  0.64004959893E+01 -0.17164921577E+03  0.18830977213E+03  0.77079708327E+02 0.  0.
          5    1    3    3  502    0 -0.39631783617E+02 -0.16965666152E+01 -0.80463983990E+01  0.40747897347E+02  0.47000000000E+01 0. -1.
        -13    1    4    4    0    0  0.58053033562E+02 -0.32944003809E+02 -0.54756050457E+01  0.66973459993E+02  0.00000000000E+00 0.  1.
         14    1    4    4    0    0  0.70701128017E+02  0.21236746901E+02 -0.74292569634E+02  0.10473316010E+03  0.00000000000E+00 0. -1.
         -5    1    5    5    0  501 -0.85266315296E+02  0.70033275341E+01 -0.28101529648E+02  0.90173039703E+02  0.47000000000E+01 0.  1.
         13    1    6    6    0    0  0.36642750240E+02  0.19121711335E+01 -0.81951104122E+02  0.89790483964E+02  0.00000000000E+00 0. -1.
        -14    1    6    6    0    0 -0.40498812907E+02  0.44883248557E+01 -0.89698111650E+02  0.98519288165E+02  0.00000000000E+00 0.  1.
</event>
<event>
12    1  0.1345781E-002  0.3763438E+03  0.7818608E-02  0.1052293E+00
         -1   -1    0    0    0  501 -0.00000000000E+00  0.00000000000E+00  0.33790153022E+03  0.33790153022E+03  0.00000000000E+00 0.  1.
          1   -1    0    0  502    0  0.00000000000E+00 -0.00000000000E+00 -0.59443864287E+03  0.59443864287E+03  0.00000000000E+00 0. -1.
          6    2    1    2  502    0  0.17957186071E+01 -0.33419027440E+03 -0.38146073353E+03  0.53602236523E+03  0.17355495005E+03 0.  0.
         24    2    3    3    0    0  0.57609169492E+02 -0.20180507192E+03 -0.17448293785E+03  0.28402458540E+03  0.78622935879E+02 0.  0.
         -6    2    1    2    0  501 -0.17957186071E+01  0.33419027440E+03  0.12492362089E+03  0.39631780786E+03  0.17255587402E+03 0.  0.
        -24    2    5    5    0    0  0.69549676197E+01  0.60047611435E+02  0.55480102953E+02  0.11334207329E+03  0.78193967421E+02 0.  0.
          5    1    3    3  502    0 -0.55813450885E+02 -0.13238520249E+03 -0.20697779568E+03  0.25199777984E+03  0.47000000000E+01 0. -1.
        -11    1    4    4    0    0  0.36056574698E+01  0.54318125105E+01 -0.16969419563E+02  0.18178739044E+02  0.00000000000E+00 0.  1.
         12    1    4    4    0    0  0.54003512022E+02 -0.20723688443E+03 -0.15751351829E+03  0.26584584635E+03  0.00000000000E+00 0. -1.
         -5    1    5    5    0  501 -0.87506862267E+01  0.27414266297E+03  0.69443517936E+02  0.28297573457E+03  0.47000000000E+01 0.  1.
         11    1    6    6    0    0 -0.12189514065E+02  0.54796406214E+02  0.18616444229E+01  0.56166681467E+02  0.00000000000E+00 0. -1.
        -12    1    6    6    0    0  0.19144481684E+02  0.52512052211E+01  0.53618458531E+02  0.57175391826E+02  0.00000000000E+00 0.  1.
</event>
<event>
12    1  0.1345781E-002  0.3382156E+03  0.7818608E-02  0.1067558E+00
         -2   -1    0    0    0  501 -0.00000000000E+00  0.00000000000E+00  0.15852810084E+03  0.15852810084E+03  0.00000000000E+00 0. -1.
          2   -1    0    0  502    0  0.00000000000E+00 -0.00000000000E+00 -0.72564779785E+03  0.72564779785E+03  0.00000000000E+00 0.  1.
          6    2    1    2  502    0  0.28966880635E+03  0.29987527489E+02 -0.31666947991E+03  0.46331259110E+03  0.17196432300E+03 0.  0.
         24    2    3    3    0    0  0.29080819254E+03  0.57261895130E+02 -0.26434040399E+03  0.40410438628E+03  0.74673799600E+02 0.  0.
         -6    2    1    2    0  501 -0.28966880635E+03 -0.29987527489E+02 -0.25045021710E+03  0.42086330759E+03  0.17202715846E+03 0.  0.
        -24    2    5    5    0    0 -0.17381268067E+03  0.58220060882E+00 -0.22947279616E+03  0.29912879184E+03  0.81296266898E+02 0.  0.
          5    1    3    3  502    0 -0.11393861872E+01 -0.27274367641E+02 -0.52329075919E+02  0.59208204817E+02  0.47000000000E+01 0. -1.
        -11    1    4    4    0    0  0.14112258698E+02 -0.47040822045E+00  0.36683756466E+01  0.14588835092E+02  0.00000000000E+00 0.  1.
         12    1    4    4    0    0  0.27669593384E+03  0.57732303350E+02 -0.26800877964E+03  0.38951555119E+03  0.00000000000E+00 0. -1.
         -5    1    5    5    0  501 -0.11585612568E+03 -0.30569728098E+02 -0.20977420942E+02  0.12173451574E+03  0.47000000000E+01 0.  1.
         11    1    6    6    0    0 -0.16991059567E+03 -0.19864028115E+02 -0.20405300356E+03  0.26627395366E+03  0.00000000000E+00 0. -1.
        -12    1    6    6    0    0 -0.39020850012E+01  0.20446228723E+02 -0.25419792598E+02  0.32854838184E+02  0.00000000000E+00 0.  1.
</event>
<event>
12    1  0.1345781E-002  0.1799050E+03  0.7818608E-02  0.1167895E+00
         -1   -1    0    0    0  501 -0.00000000000E+00  0.00000000000E+00  0.40837415508E+02  0.40837415508E+02  0.00000000000E+00 0.  1.
          1   -1    0    0  502    0  0.00000000000E+00 -0.00000000000E+00 -0.11570982713E+04  0.11570982713E+04  0.00000000000E+00 0. -1.
          6    2    1    2  502    0 -0.27232727370E+02  0.45400240546E+02 -0.89461360561E+03  0.91255013449E+03  0.17207975281E+03 0.  0.
         24    2    3    3    0    0 -0.66428321275E+02  0.60072712537E+02 -0.80097189946E+03  0.80987377330E+03  0.79486428382E+02 0.  0.
         -6    2    1    2    0  501  0.27232727370E+02 -0.45400240546E+02 -0.22164725017E+03  0.28538555231E+03  0.17179815679E+03 0.  0.
        -24    2    5    5    0    0  0.22212324168E+02 -0.91548567999E+02 -0.19765012953E+03  0.23291818746E+03  0.79440422321E+02 0.  0.
          5    1    3    3  502    0  0.39195593905E+02 -0.14672471991E+02 -0.93641706153E+02  0.10267636119E+03  0.47000000000E+01 0. -1.
        -11    1    4    4    0    0 -0.19272300594E+01  0.13612135712E+02 -0.16913979188E+02  0.21796493900E+02  0.00000000000E+00 0.  1.
         12    1    4    4    0    0 -0.64501091215E+02  0.46460576825E+02 -0.78405792027E+03  0.78807727940E+03  0.00000000000E+00 0. -1.
         -5    1    5    5    0  501  0.50204032017E+01  0.46148327453E+02 -0.23997120635E+02  0.52467364845E+02  0.47000000000E+01 0.  1.
         11    1    6    6    0    0  0.20933280365E+02 -0.76285117702E+01 -0.10734606248E+03  0.10963381571E+03  0.00000000000E+00 0. -1.
        -12    1    6    6    0    0  0.12790438033E+01 -0.83920056229E+02 -0.90304067055E+02  0.12328437175E+03  0.00000000000E+00 0.  1.
</event>
<event>
12    1  0.1345781E-002  0.2222136E+03  0.7818608E-02  0.1132243E+00
         -1   -1    0    0    0  501 -0.00000000000E+00  0.00000000000E+00  0.22112123821E+02  0.22112123821E+02  0.00000000000E+00 0. -1.
          1   -1    0    0  502    0  0.00000000000E+00 -0.00000000000E+00 -0.22756049933E+04  0.22756049933E+04  0.00000000000E+00 0.  1.
          6    2    1    2  502    0 -0.55276751382E+02 -0.12851219248E+03 -0.96658556832E+03  0.99165561689E+03  0.17182054232E+03 0.  0.
         24    2    3    3    0    0 -0.24589601669E+02 -0.74908110334E+01 -0.55488632263E+03  0.56141587578E+03  0.81413719859E+02 0.  0.
         -6    2    1    2    0  501  0.55276751382E+02  0.12851219248E+03 -0.12869073011E+04  0.13060615002E+04  0.17348007883E+03 0.  0.
        -24    2    5    5    0    0 -0.30652051746E+02  0.80738067400E+02 -0.54010757409E+03  0.55280321214E+03  0.80106279127E+02 0.  0.
          5    1    3    3  502    0 -0.30687149714E+02 -0.12102138144E+03 -0.41169924570E+03  0.43023974111E+03  0.47000000000E+01 0. -1.
        -13    1    4    4    0    0  0.27981338086E+02  0.94331818682E+01 -0.22670489504E+03  0.22861988023E+03  0.00000000000E+00 0.  1.
         14    1    4    4    0    0 -0.52570939754E+02 -0.16923992902E+02 -0.32818142758E+03  0.33279599555E+03  0.00000000000E+00 0. -1.
         -5    1    5    5    0  501  0.85928803128E+02  0.47774125076E+02 -0.74679972702E+03  0.75325828805E+03  0.47000000000E+01 0.  1.
         13    1    6    6    0    0  0.20389879019E+02 -0.50454505831E+00 -0.13216186935E+03  0.13372644257E+03  0.00000000000E+00 0. -1.
        -14    1    6    6    0    0 -0.51041930765E+02  0.81242612459E+02 -0.40794570475E+03  0.41907676957E+03  0.00000000000E+00 0.  1.
</event>
<event>
12    1  0.1345781E-002  0.1957961E+03  0.7818608E-02  0.1153335E+00
          4   -1    0    0  502    0  0.00000000000E+00  0.00000000000E+00  0.13657801718E+03  0.13657801718E+03  0.00000000000E+00 0.  1.
         -4   -1    0    0    0  501 -0.00000000000E+00 -0.00000000000E+00 -0.59688915433E+03  0.59688915433E+03  0.00000000000E+00 0. -1.
          6    2    1    2  502    0  0.81428728812E+02 -0.40072114279E+02 -0.49758316472E+03  0.53505879715E+03  0.17453509213E+03 0.  0.
         24    2    3    3    0    0  0.79651924912E+02  0.12724874840E+01 -0.47399787179E+03  0.48719556315E+03  0.79620888753E+02 0.  0.
         -6    2    1    2    0  501 -0.81428728812E+02  0.40072114279E+02  0.37272027559E+02  0.19840837436E+03  0.17245366554E+03 0.  0.
        -24    2    5    5    0    0 -0.26108978352E+02 -0.11835915465E+02  0.71886533335E+02  0.11489207443E+03  0.84916120064E+02 0.  0.
          5    1    3    3  502    0  0.17768039006E+01 -0.41344601763E+02 -0.23585292930E+02  0.47863234008E+02  0.47000000000E+01 0. -1.
        -11    1    4    4    0    0  0.28748615685E+02 -0.21518567791E+02 -0.63702444775E+02  0.73126829098E+02  0.00000000000E+00 0.  1.
         12    1    4    4    0    0  0.50903309227E+02  0.22791055275E+02 -0.41029542701E+03  0.41406873405E+03  0.00000000000E+00 0. -1.
         -5    1    5    5    0  501 -0.55319750460E+02  0.51908029744E+02 -0.34614505776E+02  0.83516299924E+02  0.47000000000E+01 0.  1.
         13    1    6    6    0    0  0.84273286051E+01 -0.49327311132E+01 -0.16820345934E+02  0.19449312096E+02  0.00000000000E+00 0. -1.
        -14    1    6    6    0    0 -0.34536306957E+02 -0.69031843519E+01  0.88706879270E+02  0.95442762335E+02  0.00000000000E+00 0.  1.
</event>
<event>
12    1  0.1345781E-002  0.1948141E+03  0.7818608E-02  0.1154190E+00
          2   -1    0    0  502    0  0.00000000000E+00  0.00000000000E+00  0.99902988878E+03  0.99902988878E+03  0.00000000000E+00 0.  1.
         -2   -1    0    0    0  501 -0.00000000000E+00 -0.00000000000E+00 -0.38874672890E+02  0.38874672890E+02  0.00000000000E+00 0. -1.
          6    2    1    2  502    0 -0.92690560170E+02  0.76417084003E+01  0.40004009859E+03  0.44463776086E+03  0.17035469540E+03 0.  0.
         24    2    3    3    0    0 -0.42817973221E+02 -0.70213342515E+01  0.37649228734E+03  0.38737635009E+03  0.80195487476E+02 0.  0.
         -6    2    1    2    0  501  0.92690560170E+02 -0.76417084003E+01  0.56011511729E+03  0.59326680081E+03  0.17200760643E+03 0.  0.
        -24    2    5    5    0    0 -0.10907235268E+02 -0.26438919543E+02  0.19894750503E+03  0.21703552550E+03  0.81892156686E+02 0.  0.
          5    1    3    3  502    0 -0.49872586949E+02  0.14663042652E+02  0.23547811249E+02  0.57261410771E+02  0.47000000000E+01 0. -1.
        -13    1    4    4    0    0  0.20312981816E+02 -0.70643747288E+01  0.44372094299E+02  0.49309282829E+02  0.00000000000E+00 0.  1.
         14    1    4    4    0    0 -0.63130955037E+02  0.43040477280E-01  0.33212019304E+03  0.33806706726E+03  0.00000000000E+00 0. -1.
         -5    1    5    5    0  501  0.10359779544E+03  0.18797211142E+02  0.36116761227E+03  0.37623127530E+03  0.47000000000E+01 0.  1.
         13    1    6    6    0    0 -0.41613347790E+02  0.58924579982E+01  0.10236890563E+03  0.11066067330E+03  0.00000000000E+00 0. -1.
        -14    1    6    6    0    0  0.30706112521E+02 -0.32331377541E+02  0.96578599400E+02  0.10637485221E+03  0.00000000000E+00 0.  1.
</event>
<event>
12    1  0.1345781E-002  0.2368242E+03  0.7818608E-02  0.1121927E+00
         -2   -1    0    0    0  501 -0.00000000000E+00  0.00000000000E+00  0.60788287137E+03  0.60788287137E+03  0.00000000000E+00 0. -1.
          2   -1    0    0  502    0  0.00000000000E+00 -0.00000000000E+00 -0.92266081292E+02  0.92266081292E+02  0.00000000000E+00 0.  1.
          6    2    1    2  502    0  0.54836109911E+02  0.15189079470E+03  0.25629250917E+03  0.34820787982E+03  0.17171215696E+03 0.  0.
         24    2    3    3    0    0 -0.33536823375E+02  0.61520130628E+02  0.86326603686E+02  0.13634204659E+03  0.78914042920E+02 0.  0.
         -6    2    1    2    0  501 -0.54836109911E+02 -0.15189079470E+03  0.25932428091E+03  0.35194107285E+03  0.17474445234E+03 0.  0.
        -24    2    5    5    0    0 -0.31230371570E+01 -0.98542771355E+02  0.61598417117E+02  0.14066433323E+03  0.79193803455E+02 0.  0.
          5    1    3    3  502    0  0.88372933286E+02  0.90370664069E+02  0.16996590548E+03  0.21186583323E+03  0.47000000000E+01 0. -1.
        -11    1    4    4    0    0 -0.16280561448E+02  0.74080708540E+02  0.40951160643E+02  0.86197480340E+02  0.00000000000E+00 0.  1.
         12    1    4    4    0    0 -0.17256261927E+02 -0.12560577912E+02  0.45375443043E+02  0.50144566251E+02  0.00000000000E+00 0. -1.
         -5    1    5    5    0  501 -0.51713072754E+02 -0.53348023342E+02  0.19772586380E+03  0.21127673962E+03  0.47000000000E+01 0.  1.
         11    1    6    6    0    0  0.13893879487E+02 -0.16372849991E+02  0.51931339397E+02  0.56195854968E+02  0.00000000000E+00 0. -1.
        -12    1    6    6    0    0 -0.17016916644E+02 -0.82169921364E+02  0.96670777201E+01  0.84468478266E+02  0.00000000000E+00 0.  1.
</event>
<event>
12    1  0.1345781E-002  0.2815165E+03  0.7818608E-02  0.1094864E+00
         -1   -1    0    0    0  501 -0.00000000000E+00  0.00000000000E+00  0.12830054006E+03  0.12830054006E+03  0.00000000000E+00 0.  1.
          1   -1    0    0  502    0  0.00000000000E+00 -0.00000000000E+00 -0.64666104591E+03  0.64666104591E+03  0.00000000000E+00 0. -1.
          6    2    1    2  502    0  0.24162214193E+02  0.22082646130E+03 -0.17678866288E+03  0.33204280159E+03  0.17219190505E+03 0.  0.
         24    2    3    3    0    0  0.30768748723E+02  0.11952756928E+03 -0.16878783121E+03  0.23010549179E+03  0.96050245555E+02 0.  0.
         -6    2    1    2    0  501 -0.24162214193E+02 -0.22082646130E+03 -0.34157184297E+03  0.44291878438E+03  0.17365939952E+03 0.  0.
        -24    2    5    5    0    0  0.19666686422E+00 -0.22421836372E+03 -0.23731428121E+03  0.33569663521E+03  0.78104094114E+02 0.  0.
          5    1    3    3  502    0 -0.66065345302E+01  0.10129889201E+03 -0.80008316657E+01  0.10193730980E+03  0.47000000000E+01 0. -1.
        -11    1    4    4    0    0 -0.11213522001E+00 -0.99763705914E+01  0.50185964603E+01  0.11168117787E+02  0.00000000000E+00 0.  1.
         12    1    4    4    0    0  0.30880883943E+02  0.12950393987E+03 -0.17380642767E+03  0.21893737401E+03  0.00000000000E+00 0. -1.
         -5    1    5    5    0  501 -0.24358881057E+02  0.33919024225E+01 -0.10425756176E+03  0.10722214917E+03  0.47000000000E+01 0.  1.
         11    1    6    6    0    0  0.24839635038E+02 -0.58537219144E+02 -0.10275331217E+03  0.12083814239E+03  0.00000000000E+00 0. -1.
        -12    1    6    6    0    0 -0.24642968173E+02 -0.16568114458E+03 -0.13456096904E+03  0.21485849282E+03  0.00000000000E+00 0.  1.
</event>
<event>
12    1  0.1345781E-002  0.1823509E+03  0.7818608E-02  0.1165547E+00
         -2   -1    0    0    0  501 -0.00000000000E+00  0.00000000000E+00  0.14890506416E+03  0.14890506416E+03  0.00000000000E+00 0. -1.
          2   -1    0    0  502    0  0.00000000000E+00 -0.00000000000E+00 -0.30674983020E+03  0.30674983020E+03  0.00000000000E+00 0.  1.
          6    2    1    2  502    0  0.56348747747E+02  0.28186568673E+02 -0.19823106270E+03  0.27042851443E+03  0.17281887389E+03 0.  0.
         24    2    3    3    0    0  0.57512073752E+02  0.76976553552E+02 -0.17866855448E+03  0.21764028014E+03  0.78815041414E+02 0.  0.
         -6    2    1    2    0  501 -0.56348747747E+02 -0.28186568673E+02  0.40386296657E+02  0.18522637994E+03  0.16943463294E+03 0.  0.
        -24    2    5    5    0    0 -0.74541837216E+02  0.26284534631E+02  0.57769108313E+02  0.12504048673E+03  0.77784903363E+02 0.  0.
          5    1    3    3  502    0 -0.11633260051E+01 -0.48789984879E+02 -0.19562508213E+02  0.52788234290E+02  0.47000000000E+01 0. -1.
        -11    1    4    4    0    0  0.24731427131E+02  0.33048062937E+02 -0.15041413301E+03  0.15597509212E+03  0.00000000000E+00 0.  1.
         12    1    4    4    0    0  0.32780646621E+02  0.43928490615E+02 -0.28254421471E+02  0.61665188018E+02  0.00000000000E+00 0. -1.
         -5    1    5    5    0  501  0.18193089469E+02 -0.54471103304E+02 -0.17382811656E+02  0.60185893203E+02  0.47000000000E+01 0.  1.
         13    1    6    6    0    0 -0.85209200831E+02  0.30785716259E+01  0.42299751251E+02  0.95180641232E+02  0.00000000000E+00 0. -1.
        -14    1    6    6    0    0  0.10667363615E+02  0.23205963005E+02  0.15469357062E+02  0.29859845502E+02  0.00000000000E+00 0.  1.
</event>
<event>
12    1  0.1345781E-002  0.1870550E+03  0.7818608E-02  0.1161145E+00
         -2   -1    0    0    0  501 -0.00000000000E+00  0.00000000000E+00  0.24384040022E+02  0.24384040022E+02  0.00000000000E+00 0. -1.
          2   -1    0    0  502    0  0.00000000000E+00 -0.00000000000E+00 -0.16475493520E+04  0.16475493520E+04  0.00000000000E+00 0.  1.
          6    2    1    2  502    0 -0.39969397129E+01 -0.72253966830E+02 -0.51359634723E+03  0.54680888839E+03  0.17315351939E+03 0.  0.
         24    2    3    3    0    0 -0.64291094266E+02 -0.26501839264E+02 -0.36043403359E+03  0.37590123329E+03  0.80952778414E+02 0.  0.
         -6    2    1    2    0  501  0.39969397129E+01  0.72253966830E+02 -0.11095689647E+04  0.11251245036E+04  0.17182912997E+03 0.  0.
        -24    2    5    5    0    0 -0.13104893377E+02 -0.22005838074E+02 -0.59553584689E+03  0.60221961767E+03  0.85729387232E+02 0.  0.
          5    1    3    3  502    0  0.60294154553E+02 -0.45752127566E+02 -0.15316231364E+03  0.17090765510E+03  0.47000000000E+01 0. -1.
        -13    1    4    4    0    0 -0.24470823423E+02 -0.38616100507E+02 -0.29380243613E+03  0.29733801623E+03  0.00000000000E+00 0.  1.
         14    1    4    4    0    0 -0.39820270842E+02  0.12114261242E+02 -0.66631597461E+02  0.78563217065E+02  0.00000000000E+00 0. -1.
         -5    1    5    5    0  501  0.17101833090E+02  0.94259804905E+02 -0.51403311783E+03  0.52290488594E+03  0.47000000000E+01 0.  1.
         11    1    6    6    0    0 -0.14926622990E+02  0.16221077976E+02 -0.42641396616E+02  0.48002251509E+02  0.00000000000E+00 0. -1.
        -12    1    6    6    0    0  0.18217296134E+01 -0.38226916051E+02 -0.55289445027E+03  0.55421736616E+03  0.00000000000E+00 0.  1.
</event>
<event>
12    1  0.1345781E-002  0.2055553E+03  0.7818608E-02  0.1145135E+00
         -2   -1    0    0    0  501 -0.00000000000E+00  0.00000000000E+00  0.46047328047E+02  0.46047328047E+02  0.00000000000E+00 0. -1.
          2   -1    0    0  502    0  0.00000000000E+00 -0.00000000000E+00 -0.98115650793E+03  0.98115650793E+03  0.00000000000E+00 0.  1.
          6    2    1    2  502    0 -0.95405091877E+02  0.62306770384E+02 -0.60012036826E+03  0.63463315166E+03  0.17213516663E+03 0.  0.
         24    2    3    3    0    0  0.11183688359E+02  0.58710833769E+02 -0.27628547651E+03  0.29365628155E+03  0.79550677420E+02 0.  0.
         -6    2    1    2    0  501  0.95405091877E+02 -0.62306770384E+02 -0.33498881162E+03  0.39257068432E+03  0.17002933006E+03 0.  0.
        -24    2    5    5    0    0 -0.15397231456E+02 -0.17165685956E+02 -0.99302121068E+02  0.12821263457E+03  0.77754954215E+02 0.  0.
          5    1    3    3  502    0 -0.10658878024E+03  0.35959366146E+01 -0.32383489175E+03  0.34097687010E+03  0.47000000000E+01 0. -1.
        -13    1    4    4    0    0  0.80912471540E+01  0.14095743734E+02 -0.22509811592E+03  0.22568411567E+03  0.00000000000E+00 0.  1.
         14    1    4    4    0    0  0.30924412047E+01  0.44615090035E+02 -0.51187360586E+02  0.67972165886E+02  0.00000000000E+00 0. -1.
         -5    1    5    5    0  501  0.11080232333E+03 -0.45141084428E+02 -0.23568669056E+03  0.26435804974E+03  0.47000000000E+01 0.  1.
         11    1    6    6    0    0  0.54348321350E+01 -0.38732058913E+02 -0.87764169344E+02  0.96084646061E+02  0.00000000000E+00 0. -1.
        -12    1    6    6    0    0 -0.20832063591E+02  0.21566372956E+02 -0.11537951724E+02  0.32127988514E+02  0.00000000000E+00 0.  1.
</event>
<event>
12    1  0.1345781E-002  0.1879803E+03  0.7818608E-02  0.1160296E+00
          2   -1    0    0  502    0  0.00000000000E+00  0.00000000000E+00  0.22949215846E+04  0.22949215846E+04  0.00000000000E+00 0. -1.
         -2   -1    0    0    0  501 -0.00000000000E+00 -0.00000000000E+00 -0.15820031599E+02  0.15820031599E+02  0.00000000000E+00 0.  1.
          6    2    1    2  502    0  0.19874792142E+02  0.77244888438E+02  0.13212870364E+04  0.13344285453E+04  0.16893291556E+03 0.  0.
         24    2    3    3    0    0 -0.14381487275E+02  0.80184148716E+02  0.51361983585E+03  0.52601619465E+03  0.79065645997E+02 0.  0.
         -6    2    1    2    0  501 -0.19874792142E+02 -0.77244888438E+02  0.95781451664E+03  0.97631307088E+03  0.17151321795E+03 0.  0.
        -24    2    5    5    0    0  0.10256238911E+02 -0.51185507127E+02  0.90742533465E+03  0.91190709252E+03  0.73679446598E+02 0.  0.
          5    1    3    3  502    0  0.34256279417E+02 -0.29392602780E+01  0.80766720053E+03  0.80841235068E+03  0.47000000000E+01 0. -1.
        -11    1    4    4    0    0 -0.39999457927E+02  0.16285689216E+02  0.15811312809E+03  0.16390528235E+03  0.00000000000E+00 0.  1.
         12    1    4    4    0    0  0.25617970652E+02  0.63898459500E+02  0.35550670776E+03  0.36211091231E+03  0.00000000000E+00 0. -1.
         -5    1    5    5    0  501 -0.30131031053E+02 -0.26059381311E+02  0.50389181991E+02  0.64405978359E+02  0.47000000000E+01 0.  1.
         13    1    6    6    0    0 -0.69197682890E+01 -0.66698123707E+02  0.65554951215E+03  0.65897017063E+03  0.00000000000E+00 0. -1.
        -14    1    6    6    0    0  0.17176007200E+02  0.15512616580E+02  0.25187582250E+03  0.25293692189E+03  0.00000000000E+00 0.  1.
</event>
<event>
12    1  0.1345781E-002  0.1985236E+03  0.7818608E-02  0.1150991E+00
         -3   -1    0    0    0  501 -0.00000000000E+00  0.00000000000E+00  0.36366459488E+02  0.36366459488E+02  0.00000000000E+00 0. -1.
          3   -1    0    0  502    0  0.00000000000E+00 -0.00000000000E+00 -0.10964528774E+04  0.10964528774E+04  0.00000000000E+00 0.  1.
          6    2    1    2  502    0  0.92887628157E+02  0.25956364815E+02 -0.47082032638E+03  0.51122131226E+03  0.17428025143E+03 0.  0.
         24    2    3    3    0    0  0.10742238434E+03  0.19200584073E+02 -0.47505793582E+03  0.49398916079E+03  0.80231025853E+02 0.  0.
         -6    2    1    2    0  501 -0.92887628157E+02 -0.25956364815E+02 -0.58926609156E+03  0.62159802465E+03  0.17276496535E+03 0.  0.
        -24    2    5    5    0    0 -0.98853551923E+02  0.41257692497E+02 -0.38647603930E+03  0.40782427266E+03  0.74045165253E+02 0.  0.
          5    1    3    3  502    0 -0.14534756179E+02  0.67557807411E+01  0.42376094381E+01  0.17232151472E+02  0.47000000000E+01 0. -1.
        -11    1    4    4    0    0 -0.12053599772E+02  0.22705404703E+00 -0.77533349752E+02  0.78465031350E+02  0.00000000000E+00 0.  1.
         12    1    4    4    0    0  0.11947598411E+03  0.18973530026E+02 -0.39752458607E+03  0.41552412944E+03  0.00000000000E+00 0. -1.
         -5    1    5    5    0  501  0.59659237662E+01 -0.67214057311E+02 -0.20279005226E+03  0.21377375199E+03  0.47000000000E+01 0.  1.
         13    1    6    6    0    0 -0.21718958254E+02  0.28244775725E+02 -0.44452474335E+02  0.56969316109E+02  0.00000000000E+00 0. -1.
        -14    1    6    6    0    0 -0.77134593670E+02  0.13012916772E+02 -0.34202356497E+03  0.35085495655E+03  0.00000000000E+00 0.  1.
</event>
<event>
12    1  0.1345781E-002  0.1818719E+03  0.7818608E-02  0.1166004E+00
          2   -1    0    0  502    0  0.00000000000E+00  0.00000000000E+00  0.28713656249E+04  0.28713656249E+04  0.00000000000E+00 0. -1.
         -2   -1    0    0    0  501 -0.00000000000E+00 -0.00000000000E+00 -0.13134621762E+02  0.13134621762E+02  0.00000000000E+00 0.  1.
          6    2    1    2  502    0 -0.12440789934E+02 -0.53294361919E+02  0.93096011074E+03  0.94876837581E+03  0.17458419421E+03 0.  0.
         24    2    3    3    0    0  0.22771266730E+02  0.28637965176E+02  0.35342209102E+03  0.36436693041E+03  0.80730551318E+02 0.  0.
         -6    2    1    2    0  501  0.12440789934E+02  0.53294361919E+02  0.19272708924E+04  0.19357318708E+04  0.17230705415E+03 0.  0.
        -24    2    5    5    0    0  0.49185807535E+02  0.82237925431E+02  0.10972838458E+04  0.11044145345E+04  0.80729831850E+02 0.  0.
          5    1    3    3  502    0 -0.35212056664E+02 -0.81932327095E+02  0.57753801972E+03  0.58440144540E+03  0.47000000000E+01 0. -1.
        -11    1    4    4    0    0 -0.12395866403E+02  0.10299250448E+02  0.10671101847E+02  0.19328850930E+02  0.00000000000E+00 0.  1.
         12    1    4    4    0    0  0.35167133132E+02  0.18338714729E+02  0.34275098917E+03  0.34503807948E+03  0.00000000000E+00 0. -1.
         -5    1    5    5    0  501 -0.36745017601E+02 -0.28943563512E+02  0.82998704658E+03  0.83131733633E+03  0.47000000000E+01 0.  1.
         11    1    6    6    0    0  0.35354870458E+02  0.31966817538E+02  0.86668950715E+03  0.86799916250E+03  0.00000000000E+00 0. -1.
        -12    1    6    6    0    0  0.13830937077E+02  0.50271107892E+02  0.23059433862E+03  0.23641537199E+03  0.00000000000E+00 0.  1.
</event>
<event>
12    1  0.1345781E-002  0.3184327E+03  0.7818608E-02  0.1076373E+00
         -1   -1    0    0    0  501 -0.00000000000E+00  0.00000000000E+00  0.27349756863E+03  0.27349756863E+03  0.00000000000E+00 0. -1.
          1   -1    0    0  502    0  0.00000000000E+00 -0.00000000000E+00 -0.37763384678E+03  0.37763384678E+03  0.00000000000E+00 0.  1.
          6    2    1    2  502    0 -0.20869796429E+03 -0.16792311709E+03 -0.96103355691E+02  0.33312201051E+03  0.17315139434E+03 0.  0.
         24    2    3    3    0    0 -0.88020891974E+02 -0.80204824289E+02  0.94650027874E+01  0.15029908256E+03  0.91212590559E+02 0.  0.
         -6    2    1    2    0  501  0.20869796429E+03  0.16792311709E+03 -0.80329224645E+01  0.31800940490E+03  0.17120876207E+03 0.  0.
        -24    2    5    5    0    0  0.22828064301E+03  0.17090977293E+03 -0.15453434180E+02  0.29634017757E+03  0.79097975671E+02 0.  0.
          5    1    3    3  502    0 -0.12067707232E+03 -0.87718292798E+02 -0.10556835848E+03  0.18282292795E+03  0.47000000000E+01 0. -1.
        -13    1    4    4    0    0 -0.88810805847E+02 -0.95399841030E+02 -0.33843118547E+01  0.13038382749E+03  0.00000000000E+00 0.  1.
         14    1    4    4    0    0  0.78991387276E+00  0.15195016741E+02  0.12849314642E+02  0.19915255069E+02  0.00000000000E+00 0. -1.
         -5    1    5    5    0  501 -0.19582678720E+02 -0.29866558468E+01  0.74205117151E+01  0.21669227331E+02  0.47000000000E+01 0.  1.
         13    1    6    6    0    0  0.88974301171E+02  0.22142809025E+02 -0.12281324508E+02  0.92507087253E+02  0.00000000000E+00 0. -1.
        -14    1    6    6    0    0  0.13930634184E+03  0.14876696391E+03 -0.31721096719E+01  0.20383309031E+03  0.00000000000E+00 0.  1.
</event>
<event>
12    1  0.1345781E-002  0.2810652E+03  0.7818608E-02  0.1095109E+00
          2   -1    0    0  502    0  0.00000000000E+00  0.00000000000E+00  0.80395854823E+03  0.80395854823E+03  0.00000000000E+00 0. -1.
         -2   -1    0    0    0  501 -0.00000000000E+00 -0.00000000000E+00 -0.21179383177E+03  0.21179383177E+03  0.00000000000E+00 0.  1.
          6    2    1    2  502    0 -0.18513567792E+03 -0.12296608544E+03  0.66791522266E+03  0.72463377907E+03  0.17201014997E+03 0.  0.
         24    2    3    3    0    0 -0.17163561391E+03 -0.60203479839E+02  0.33171845757E+03  0.38233018392E+03  0.55281022937E+02 0.  0.
         -6    2    1    2    0  501  0.18513567792E+03  0.12296608544E+03 -0.75750506203E+02  0.29111860094E+03  0.17209306555E+03 0.  0.
        -24    2    5    5    0    0  0.15388300810E+02  0.52195543095E+02 -0.25720168843E+02  0.10046769914E+03  0.80442880130E+02 0.  0.
          5    1    3    3  502    0 -0.13500064008E+02 -0.62762605604E+02  0.33619676509E+03  0.34230359514E+03  0.47000000000E+01 0. -1.
        -11    1    4    4    0    0 -0.10101794124E+03 -0.71075405096E+01  0.19069720735E+03  0.21591796237E+03  0.00000000000E+00 0.  1.
         12    1    4    4    0    0 -0.70617672678E+02 -0.53095939330E+02  0.14102125022E+03  0.16641222155E+03  0.00000000000E+00 0. -1.
         -5    1    5    5    0  501  0.16974737711E+03  0.70770542348E+02 -0.50030337360E+02  0.19065090180E+03  0.47000000000E+01 0.  1.
         13    1    6    6    0    0 -0.94931956021E+01  0.69767997583E+01  0.25291226530E+02  0.27900584886E+02  0.00000000000E+00 0. -1.
        -14    1    6    6    0    0  0.24881496412E+02  0.45218743337E+02 -0.51011395373E+02  0.72567114250E+02  0.00000000000E+00 0.  1.
</event>
<event>
12    1  0.1345781E-002  0.2642301E+03  0.7818608E-02  0.1104628E+00
          1   -1    0    0  502    0  0.00000000000E+00  0.00000000000E+00  0.19482454825E+04  0.19482454825E+04  0.00000000000E+00 0. -1.
         -1   -1    0    0    0  501 -0.00000000000E+00 -0.00000000000E+00 -0.53683576145E+02  0.53683576145E+02  0.00000000000E+00 0.  1.
          6    2    1    2  502    0 -0.12731350883E+03  0.15247343091E+03  0.15272349492E+04  0.15501258547E+04  0.17603039141E+03 0.  0.
         24    2    3    3    0    0 -0.14435061955E+03  0.82630773310E+02  0.89482074651E+03  0.91362127991E+03  0.79591008706E+02 0.  0.
         -6    2    1    2    0  501  0.12731350883E+03 -0.15247343091E+03  0.36732695717E+03  0.45180320395E+03  0.17245337045E+03 0.  0.
        -24    2    5    5    0    0  0.51343534989E+02 -0.14620686076E+03  0.30476986524E+03  0.35308042757E+03  0.88139167556E+02 0.  0.
          5    1    3    3  502    0  0.17037110726E+02  0.69842657599E+02  0.63241420269E+03  0.63650457479E+03  0.47000000000E+01 0. -1.
        -13    1    4    4    0    0 -0.69641318926E+02  0.33332251955E+01  0.46550955175E+03  0.47070178082E+03  0.00000000000E+00 0.  1.
         14    1    4    4    0    0 -0.74709300625E+02  0.79297548114E+02  0.42931119475E+03  0.44291949909E+03  0.00000000000E+00 0. -1.
         -5    1    5    5    0  501  0.75969973836E+02 -0.62665701526E+01  0.62557091921E+02  0.98722776378E+02  0.47000000000E+01 0.  1.
         11    1    6    6    0    0 -0.57669642349E+01 -0.31399880951E+02  0.14369391256E+03  0.14719765932E+03  0.00000000000E+00 0. -1.
        -12    1    6    6    0    0  0.57110499224E+02 -0.11480697980E+03  0.16107595268E+03  0.20588276826E+03  0.00000000000E+00 0.  1.
</event>
<event>
12    1  0.1345781E-002  0.6018971E+03  0.7818608E-02  0.9901478E-01
         -1   -1    0    0    0  501 -0.00000000000E+00  0.00000000000E+00  0.19921090781E+03  0.19921090781E+03  0.00000000000E+00 0. -1.
          1   -1    0    0  502    0  0.00000000000E+00 -0.00000000000E+00 -0.20804617149E+04  0.20804617149E+04  0.00000000000E+00 0.  1.
          6    2    1    2  502    0 -0.57348011690E+03 -0.59583000504E+02 -0.53584897912E+03  0.80566037325E+03  0.17182819961E+03 0.  0.
         24    2    3    3    0    0 -0.33038153636E+03 -0.87375145222E+02 -0.25673777472E+03  0.43445358777E+03  0.77776984957E+02 0.  0.
         -6    2    1    2    0  501  0.57348011690E+03  0.59583000504E+02 -0.13454018280E+04  0.14740122494E+04  0.17371371393E+03 0.  0.
        -24    2    5    5    0    0  0.39754663303E+03  0.95326356204E+02 -0.83799807279E+03  0.93576431495E+03  0.79269436232E+02 0.  0.
          5    1    3    3  502    0 -0.24309858054E+03  0.27792144718E+02 -0.27911120439E+03  0.37120678548E+03  0.47000000000E+01 0. -1.
        -13    1    4    4    0    0 -0.35587264560E+02 -0.32769928279E+02 -0.54164335207E+02  0.72622977126E+02  0.00000000000E+00 0.  1.
         14    1    4    4    0    0 -0.29479427180E+03 -0.54605216942E+02 -0.20257343951E+03  0.36183061065E+03  0.00000000000E+00 0. -1.
         -5    1    5    5    0  501  0.17593348387E+03 -0.35743355700E+02 -0.50740375516E+03  0.53824793448E+03  0.47000000000E+01 0.  1.
         11    1    6    6    0    0  0.12387911835E+03 -0.43993901375E+01 -0.21861631526E+03  0.25131351714E+03  0.00000000000E+00 0. -1.
        -12    1    6    6    0    0  0.27366751468E+03  0.99725746341E+02 -0.61938175753E+03  0.68445079782E+03  0.00000000000E+00 0.  1.
</event>
<event>
12    1  0.1345781E-002  0.1906686E+03  0.7818608E-02  0.1157860E+00
         -1   -1    0    0    0  501 -0.00000000000E+00  0.00000000000E+00  0.87466810063E+02  0.87466810063E+02  0.00000000000E+00 0. -1.
          1   -1    0    0  502    0  0.00000000000E+00 -0.00000000000E+00 -0.42944711669E+03  0.42944711669E+03  0.00000000000E+00 0.  1.
          6    2    1    2  502    0  0.51801271761E+02  0.60465917912E+02 -0.12550326327E+03  0.22907876717E+03  0.17431727824E+03 0.  0.
         24    2    3    3    0    0  0.28141677595E+02  0.57082756504E+02 -0.15821467947E+03  0.18829459221E+03  0.79828400639E+02 0.  0.
         -6    2    1    2    0  501 -0.51801271761E+02 -0.60465917912E+02 -0.21647704335E+03  0.28783515958E+03  0.17218382562E+03 0.  0.
        -24    2    5    5    0    0  0.74003154386E+01 -0.93301332437E+02 -0.13545915271E+03  0.18215175985E+03  0.77911348727E+02 0.  0.
          5    1    3    3  502    0  0.23659594166E+02  0.33831614080E+01  0.32711416200E+02  0.40784174959E+02  0.47000000000E+01 0. -1.
        -13    1    4    4    0    0  0.38651547903E+02  0.66626890836E+02 -0.89289086167E+02  0.11792211687E+03  0.00000000000E+00 0.  1.
         14    1    4    4    0    0 -0.10509870309E+02 -0.95441343316E+01 -0.68925593306E+02  0.70372475348E+02  0.00000000000E+00 0. -1.
         -5    1    5    5    0  501 -0.59201587200E+02  0.32835414525E+02 -0.81017890642E+02  0.10568339973E+03  0.47000000000E+01 0.  1.
         11    1    6    6    0    0 -0.26017198109E+02 -0.49142938306E+02 -0.30354543360E+02  0.63350779675E+02  0.00000000000E+00 0. -1.
        -12    1    6    6    0    0  0.33417513548E+02 -0.44158394131E+02 -0.10510460935E+03  0.11880098018E+03  0.00000000000E+00 0.  1.
</event>
<event>
12    1  0.1345781E-002  0.2131799E+03  0.7818608E-02  0.1139072E+00
         -2   -1    0    0    0  501 -0.00000000000E+00  0.00000000000E+00  0.95544594579E+02  0.95544594579E+02  0.00000000000E+00 0.  1.
          2   -1    0    0  502    0  0.00000000000E+00 -0.00000000000E+00 -0.59261394116E+03  0.59261394116E+03  0.00000000000E+00 0. -1.
          6    2    1    2  502    0  0.20010157045E+01 -0.12722765290E+03 -0.40088979163E+03  0.45379384978E+03  0.17036828737E+03 0.  0.
         24    2    3    3    0    0 -0.60662773533E+02 -0.10589141662E+03 -0.26423916394E+03  0.30188114621E+03  0.80105720566E+02 0.  0.
         -6    2    1    2    0  501 -0.20010157045E+01  0.12722765290E+03 -0.96179554948E+02  0.23436468595E+03  0.17171318966E+03 0.  0.
        -24    2    5    5    0    0 -0.19628529319E+02  0.12812358760E+03 -0.12741741835E+03  0.19817869356E+03  0.78985208855E+02 0.  0.
          5    1    3    3  502    0  0.62663789238E+02 -0.21336236280E+02 -0.13665062769E+03  0.15191270357E+03  0.47000000000E+01 0. -1.
        -11    1    4    4    0    0 -0.71907082733E+01 -0.41431546847E+02 -0.26216794852E+02  0.49554007829E+02  0.00000000000E+00 0.  1.
         12    1    4    4    0    0 -0.53472065260E+02 -0.64459869775E+02 -0.23802236909E+03  0.25232713838E+03  0.00000000000E+00 0. -1.
         -5    1    5    5    0  501  0.17627513614E+02 -0.89593469881E+00  0.31237863407E+02  0.36185992393E+02  0.47000000000E+01 0.  1.
         13    1    6    6    0    0  0.29733524234E+02  0.62121501100E+02 -0.66032105404E+02  0.95411751407E+02  0.00000000000E+00 0. -1.
        -14    1    6    6    0    0 -0.49362053553E+02  0.66002086501E+02 -0.61385312951E+02  0.10276694215E+03  0.00000000000E+00 0.  1.
</event>
<event>
12    1  0.1345781E-002  0.2449972E+03  0.7818608E-02  0.1116508E+00
          3   -1    0    0  502    0  0.00000000000E+00  0.00000000000E+00  0.12904898979E+03  0.12904898979E+03  0.00000000000E+00 0.  1.
         -3   -1    0    0    0  501 -0.00000000000E+00 -0.00000000000E+00 -0.62995753083E+03  0.62995753083E+03  0.00000000000E+00 0. -1.
          6    2    1    2  502    0 -0.14687736502E+03  0.92583542620E+02 -0.44403538627E+03  0.50679399560E+03  0.17183729804E+03 0.  0.
         24    2    3    3    0    0 -0.82996778297E+02  0.12270767427E+03 -0.35530138591E+03  0.39328626244E+03  0.80556631378E+02 0.  0.
         -6    2    1    2    0  501  0.14687736502E+03 -0.92583542620E+02 -0.56873154774E+02  0.25221252503E+03  0.17387331401E+03 0.  0.
        -24    2    5    5    0    0  0.16155710367E+03 -0.59113436501E+02 -0.82656266096E+02  0.20723918226E+03  0.80752239702E+02 0.  0.
          5    1    3    3  502    0 -0.63880586724E+02 -0.30124131654E+02 -0.88734000357E+02  0.11350773316E+03  0.47000000000E+01 0. -1.
        -13    1    4    4    0    0  0.13119524584E+02  0.32430973268E+02 -0.99975055861E+02  0.10591931716E+03  0.00000000000E+00 0.  1.
         14    1    4    4    0    0 -0.96116302881E+02  0.90276701006E+02 -0.25532633005E+03  0.28736694528E+03  0.00000000000E+00 0. -1.
         -5    1    5    5    0  501 -0.14679738647E+02 -0.33470106119E+02  0.25783111322E+02  0.44973342769E+02  0.47000000000E+01 0.  1.
         11    1    6    6    0    0  0.12920371141E+03 -0.55605961378E+02 -0.97825624022E+02  0.17133439438E+03  0.00000000000E+00 0. -1.
        -12    1    6    6    0    0  0.32353392264E+02 -0.35074751227E+01  0.15169357927E+02  0.35904787879E+02  0.00000000000E+00 0.  1.
</event>
<event>
12    1  0.1345781E-002  0.1966595E+03  0.7818608E-02  0.1152588E+00
         -1   -1    0    0    0  501 -0.00000000000E+00  0.00000000000E+00  0.48326266861E+02  0.48326266861E+02  0.00000000000E+00 0. -1.
          1   -1    0    0  502    0  0.00000000000E+00 -0.00000000000E+00 -0.81124433014E+03  0.81124433014E+03  0.00000000000E+00 0.  1.
          6    2    1    2  502    0  0.66648127560E+02 -0.66798021715E+02 -0.33165258846E+03  0.38561251542E+03  0.17262567598E+03 0.  0.
         24    2    3    3    0    0 -0.11451692775E+02 -0.18223666859E+02 -0.73498939267E+02  0.11152412370E+03  0.81069678630E+02 0.  0.
         -6    2    1    2    0  501 -0.66648127560E+02  0.66798021715E+02 -0.43126547482E+03  0.47395808158E+03  0.17245986405E+03 0.  0.
        -24    2    5    5    0    0 -0.92008260633E+02  0.97656182068E+02 -0.34124477009E+03  0.37536203860E+03  0.80289582070E+02 0.  0.
          5    1    3    3  502    0  0.78099820336E+02 -0.48574354856E+02 -0.25815364919E+03  0.27408839172E+03  0.47000000000E+01 0. -1.
        -13    1    4    4    0    0  0.34285055408E+02 -0.25096510945E+01 -0.39741386244E+02  0.52546561767E+02  0.00000000000E+00 0.  1.
         14    1    4    4    0    0 -0.45736748183E+02 -0.15714015765E+02 -0.33757553023E+02  0.58977561936E+02  0.00000000000E+00 0. -1.
         -5    1    5    5    0  501  0.25360133073E+02 -0.30858160353E+02 -0.90020704729E+02  0.98596042972E+02  0.47000000000E+01 0.  1.
         11    1    6    6    0    0 -0.70081313774E+02  0.75130882885E+02 -0.15163712187E+03  0.18316620002E+03  0.00000000000E+00 0. -1.
        -12    1    6    6    0    0 -0.21926946859E+02  0.22525299184E+02 -0.18960764823E+03  0.19219583858E+03  0.00000000000E+00 0.  1.
</event>
<event>
12    1  0.1345781E-002  0.2809759E+03  0.7818608E-02  0.1095157E+00
         -2   -1    0    0    0  501 -0.00000000000E+00  0.00000000000E+00  0.23896953754E+03  0.23896953754E+03  0.00000000000E+00 0.  1.
          2   -1    0    0  502    0  0.00000000000E+00 -0.00000000000E+00 -0.61107477833E+03  0.61107477833E+03  0.00000000000E+00 0. -1.
          6    2    1    2  502    0 -0.21867200032E+03  0.45338782119E+02 -0.47431360971E+03  0.55156940505E+03  0.17141283306E+03 0.  0.
         24    2    3    3    0    0 -0.19207635931E+03 -0.55515585884E+01 -0.43587696550E+03  0.48231176636E+03  0.75576208615E+02 0.  0.
         -6    2    1    2    0  501  0.21867200032E+03 -0.45338782119E+02  0.10220836892E+03  0.29847491082E+03  0.16961035589E+03 0.  0.
        -24    2    5    5    0    0  0.20671533312E+03 -0.84774223849E+02  0.76807111691E+02  0.24983922615E+03  0.81255206238E+02 0.  0.
          5    1    3    3  502    0 -0.26595641011E+02  0.50890340708E+02 -0.38436644214E+02  0.69257638687E+02  0.47000000000E+01 0. -1.
        -13    1    4    4    0    0  0.14966082189E+01  0.10585122598E+02 -0.12149387233E+02  0.16183085821E+02  0.00000000000E+00 0.  1.
         14    1    4    4    0    0 -0.19357296753E+03 -0.16136681186E+02 -0.42372757827E+03  0.46612868054E+03  0.00000000000E+00 0. -1.
         -5    1    5    5    0  501  0.11956667202E+02  0.39435441730E+02  0.25401257228E+02  0.48635684675E+02  0.47000000000E+01 0.  1.
         13    1    6    6    0    0  0.19102808655E+03 -0.47784350161E+02  0.56726622855E+02  0.20492189662E+03  0.00000000000E+00 0. -1.
        -14    1    6    6    0    0  0.15687246563E+02 -0.36989873689E+02  0.20080488836E+02  0.44917329531E+02  0.00000000000E+00 0.  1.
</event>
<event>
12    1  0.1345781E-002  0.2107778E+03  0.7818608E-02  0.1140951E+00
          2   -1    0    0  502    0  0.00000000000E+00  0.00000000000E+00  0.11051933165E+04  0.11051933165E+04  0.00000000000E+00 0. -1.
         -2   -1    0    0    0  501 -0.00000000000E+00 -0.00000000000E+00 -0.46204786896E+02  0.46204786896E+02  0.00000000000E+00 0.  1.
          6    2    1    2  502    0  0.10621874462E+03 -0.58532973222E+02  0.73702810675E+03  0.76657171789E+03  0.17237528207E+03 0.  0.
         24    2    3    3    0    0  0.34798178227E+02 -0.39613386174E+02  0.17793286764E+03  0.20259616481E+03  0.81270948295E+02 0.  0.
         -6    2    1    2    0  501 -0.10621874462E+03  0.58532973222E+02  0.32196042289E+03  0.38482638554E+03  0.17240737350E+03 0.  0.
        -24    2    5    5    0    0 -0.84133455420E+02 -0.19890797208E+02  0.24872086943E+03  0.27517160927E+03  0.79895316041E+02 0.  0.
          5    1    3    3  502    0  0.71420566396E+02 -0.18919587047E+02  0.55909523911E+03  0.56397555308E+03  0.47000000000E+01 0. -1.
        -11    1    4    4    0    0  0.39394092435E+02 -0.46763737119E+02  0.64614314365E+02  0.88959267358E+02  0.00000000000E+00 0.  1.
         12    1    4    4    0    0 -0.45959142078E+01  0.71503509445E+01  0.11331855327E+03  0.11363689745E+03  0.00000000000E+00 0. -1.
         -5    1    5    5    0  501 -0.22085289203E+02  0.78423770430E+02  0.73239553465E+02  0.10965477627E+03  0.47000000000E+01 0.  1.
         13    1    6    6    0    0 -0.11398908546E+02 -0.24996503718E+02  0.14971124483E+03  0.15221109402E+03  0.00000000000E+00 0. -1.
        -14    1    6    6    0    0 -0.72734546874E+02  0.51057065102E+01  0.99009624602E+02  0.12296051525E+03  0.00000000000E+00 0.  1.
</event>
<event>
12    1  0.1345781E-002  0.1824405E+03  0.7818608E-02  0.1165462E+00
          2   -1    0    0  502    0  0.00000000000E+00  0.00000000000E+00  0.19156743472E+03  0.19156743472E+03  0.00000000000E+00 0. -1.
         -2   -1    0    0    0  501 -0.00000000000E+00 -0.00000000000E+00 -0.17892753942E+03  0.17892753942E+03  0.00000000000E+00 0.  1.
          6    2    1    2  502    0 -0.68485776190E+02 -0.13629593867E+02 -0.25195308882E+02  0.18210856571E+03  0.16629088594E+03 0.  0.
         24    2    3    3    0    0 -0.61020205293E+02  0.47058681613E+02 -0.30363715122E+02  0.12056505304E+03  0.87612737936E+02 0.  0.
         -6    2    1    2    0  501  0.68485776190E+02  0.13629593867E+02  0.37835204175E+02  0.18838640843E+03  0.17082701436E+03 0.  0.
        -24    2    5    5    0    0  0.90931661206E+02 -0.26713300248E+02  0.59057529910E+02  0.13735853399E+03  0.79983795869E+02 0.  0.
          5    1    3    3  502    0 -0.74655708969E+01 -0.60688275479E+02  0.51684062399E+01  0.61543512676E+02  0.47000000000E+01 0. -1.
        -13    1    4    4    0    0 -0.36569301428E+01 -0.18882135340E+02 -0.26936412073E+02  0.33098013059E+02  0.00000000000E+00 0.  1.
         14    1    4    4    0    0 -0.57363275150E+02  0.65940816953E+02 -0.34273030483E+01  0.87467039978E+02  0.00000000000E+00 0. -1.
         -5    1    5    5    0  501 -0.22445885016E+02  0.40342894114E+02 -0.21222325735E+02  0.51027874434E+02  0.47000000000E+01 0.  1.
         11    1    6    6    0    0  0.33116476886E+02  0.27754590379E+02  0.30750068426E+02  0.53033810316E+02  0.00000000000E+00 0. -1.
        -12    1    6    6    0    0  0.57815184320E+02 -0.54467890627E+02  0.28307461483E+02  0.84324723676E+02  0.00000000000E+00 0.  1.
</event>
<event>
12    1  0.1345781E-002  0.2402658E+03  0.7818608E-02  0.1119616E+00
          1   -1    0    0  502    0  0.00000000000E+00  0.00000000000E+00  0.17005510728E+03  0.17005510728E+03  0.00000000000E+00 0.  1.
         -1   -1    0    0    0  501 -0.00000000000E+00 -0.00000000000E+00 -0.34900651915E+03  0.34900651915E+03  0.00000000000E+00 0. -1.
          6    2    1    2  502    0 -0.86918032561E+02 -0.14067776561E+03 -0.13294309417E+03  0.27602347715E+03  0.17655060331E+03 0.  0.
         24    2    3    3    0    0 -0.14921905939E+02  0.61069087862E+01 -0.46834011491E+02  0.91182878237E+02  0.76556743919E+02 0.  0.
         -6    2    1    2    0  501  0.86918032561E+02  0.14067776561E+03 -0.46008317702E+02  0.24303814928E+03  0.17206335632E+03 0.  0.
        -24    2    5    5    0    0  0.28387913887E+02  0.24057188536E+02 -0.59489517057E+02  0.11177518221E+03  0.87006130489E+02 0.  0.
          5    1    3    3  502    0 -0.71996126622E+02 -0.14678467439E+03 -0.86109082678E+02  0.18484059891E+03  0.47000000000E+01 0. -1.
        -11    1    4    4    0    0 -0.42055673139E+02  0.32831258863E+01 -0.67857861341E+01  0.42725934188E+02  0.00000000000E+00 0.  1.
         12    1    4    4    0    0  0.27133767200E+02  0.28237828999E+01 -0.40048225357E+02  0.48456944049E+02  0.00000000000E+00 0. -1.
         -5    1    5    5    0  501  0.58530118675E+02  0.11662057707E+03  0.13481199355E+02  0.13126296707E+03  0.47000000000E+01 0.  1.
         11    1    6    6    0    0  0.54603478963E+02  0.35858903043E+02 -0.46745192788E+02  0.80327541299E+02  0.00000000000E+00 0. -1.
        -12    1    6    6    0    0 -0.26215565077E+02 -0.11801714507E+02 -0.12744324269E+02  0.31447640908E+02  0.00000000000E+00 0.  1.
</event>
<event>
12    1  0.1345781E-002  0.1768439E+03  0.7818608E-02  0.1170893E+00
          2   -1    0    0  502    0  0.00000000000E+00  0.00000000000E+00  0.31378199499E+03  0.31378199499E+03  0.00000000000E+00 0. -1.
         -2   -1    0    0    0  501 -0.00000000000E+00 -0.00000000000E+00 -0.16813324848E+03  0.16813324848E+03  0.00000000000E+00 0.  1.
          6    2    1    2  502    0  0.17905165972E+02 -0.39145167552E+02 -0.81148832501E+02  0.19377851484E+03  0.17062250932E+03 0.  0.
         24    2    3    3    0    0 -0.41531804445E+02  0.59726130852E+01 -0.10053252084E+02  0.90603715899E+02  0.79670587859E+02 0.  0.
         -6    2    1    2    0  501 -0.17905165972E+02  0.39145167552E+02  0.22679757901E+03  0.28813672863E+03  0.17243170657E+03 0.  0.
        -24    2    5    5    0    0  0.62553049753E+01 -0.11610793815E+01  0.22677391462E+03  0.24090948588E+03  0.81058590467E+02 0.  0.
          5    1    3    3  502    0  0.59436970417E+02 -0.45117780637E+02 -0.71095580417E+02  0.10317479894E+03  0.47000000000E+01 0. -1.
        -11    1    4    4    0    0 -0.60985704143E+02 -0.35064393920E+01  0.90309852273E+01  0.61750383976E+02  0.00000000000E+00 0.  1.
         12    1    4    4    0    0  0.19453899698E+02  0.94790524772E+01 -0.19084237311E+02  0.28853331923E+02  0.00000000000E+00 0. -1.
         -5    1    5    5    0  501 -0.24160470947E+02  0.40306246933E+02  0.23664395014E-01  0.47227242755E+02  0.47000000000E+01 0.  1.
         11    1    6    6    0    0  0.13327014436E+02 -0.19555474245E+02  0.14565788408E+02  0.27788272322E+02  0.00000000000E+00 0. -1.
        -12    1    6    6    0    0 -0.70717094607E+01  0.18394394864E+02  0.21220812621E+03  0.21312121356E+03  0.00000000000E+00 0.  1.
</event>
<event>
12    1  0.1345781E-002  0.1842637E+03  0.7818608E-02  0.1163739E+00
          2   -1    0    0  502    0  0.00000000000E+00  0.00000000000E+00  0.48053669471E+03  0.48053669471E+03  0.00000000000E+00 0. -1.
         -2   -1    0    0    0  501 -0.00000000000E+00 -0.00000000000E+00 -0.10441662364E+03  0.10441662364E+03  0.00000000000E+00 0.  1.
          6    2    1    2  502    0 -0.63512994388E+02 -0.25862031726E+02  0.35543015422E+03  0.40108024254E+03  0.17271948726E+03 0.  0.
         24    2    3    3    0    0 -0.97509859585E+02  0.10393966183E+02  0.18666750146E+03  0.22508817682E+03  0.78763722565E+02 0.  0.
         -6    2    1    2    0  501  0.63512994388E+02  0.25862031726E+02  0.20689916844E+02  0.18387307582E+03  0.16934724743E+03 0.  0.
        -24    2    5    5    0    0  0.90680199988E+02 -0.40194767669E+01  0.54402429387E+02  0.13105655272E+03  0.77311970776E+02 0.  0.
          5    1    3    3  502    0  0.33996865197E+02 -0.36255997910E+02  0.16876265277E+03  0.17599206572E+03  0.47000000000E+01 0. -1.
        -13    1    4    4    0    0 -0.15360477382E+02 -0.23694676183E+02  0.87185870379E+02  0.91644737649E+02  0.00000000000E+00 0.  1.
         14    1    4    4    0    0 -0.82149382203E+02  0.34088642367E+02  0.99481631079E+02  0.13344343917E+03  0.00000000000E+00 0. -1.
         -5    1    5    5    0  501 -0.27167205600E+02  0.29881508493E+02 -0.33712512542E+02  0.52816523095E+02  0.47000000000E+01 0.  1.
         11    1    6    6    0    0  0.35394865158E+02 -0.38297410283E+02  0.12328578218E+02  0.53586210492E+02  0.00000000000E+00 0. -1.
        -12    1    6    6    0    0  0.55285334830E+02  0.34277933516E+02  0.42073851169E+02  0.77470342232E+02  0.00000000000E+00 0.  1.
</event>
<event>
12    1  0.1345781E-002  0.1814631E+03  0.7818608E-02  0.1166394E+00
          1   -1    0    0  502    0  0.00000000000E+00  0.00000000000E+00  0.16682163838E+03  0.16682163838E+03  0.00000000000E+00 0.  1.
         -1   -1    0    0    0  501 -0.00000000000E+00 -0.00000000000E+00 -0.19848323406E+03  0.19848323406E+03  0.00000000000E+00 0. -1.
          6    2    1    2  502    0  0.31087244939E+02  0.50794211840E+02 -0.22328262040E+01  0.18083542060E+03  0.17073369637E+03 0.  0.
         24    2    3    3    0    0 -0.22352550847E+02  0.81698559476E+02  0.16746126085E+01  0.11880116752E+03  0.83286385007E+02 0.  0.
         -6    2    1    2    0  501 -0.31087244939E+02 -0.50794211840E+02 -0.29428769480E+02  0.18446945184E+03  0.17209432714E+03 0.  0.
        -24    2    5    5    0    0 -0.72155077596E+02  0.18486261003E+02 -0.32508791887E+02  0.10373577030E+03  0.64468530479E+02 0.  0.
          5    1    3    3  502    0  0.53439795786E+02 -0.30904347635E+02 -0.39074388125E+01  0.62034253074E+02  0.47000000000E+01 0. -1.
        -11    1    4    4    0    0  0.27615788346E+02  0.46108947936E+02  0.15457405576E+02  0.55924933911E+02  0.00000000000E+00 0.  1.
         12    1    4    4    0    0 -0.49968339193E+02  0.35589611539E+02 -0.13782792968E+02  0.62876233612E+02  0.00000000000E+00 0. -1.
         -5    1    5    5    0  501  0.41067832657E+02 -0.69280472843E+02  0.30800224066E+01  0.80733681537E+02  0.47000000000E+01 0.  1.
         11    1    6    6    0    0 -0.55903144596E+02 -0.12567824696E+02 -0.37286065763E+02  0.68361995973E+02  0.00000000000E+00 0. -1.
        -12    1    6    6    0    0 -0.16251932999E+02  0.31054085698E+02  0.47772738761E+01  0.35373774332E+02  0.00000000000E+00 0.  1.
</event>
<event>
12    1  0.1345781E-002  0.1992210E+03  0.7818608E-02  0.1150398E+00
         -3   -1    0    0    0  501 -0.00000000000E+00  0.00000000000E+00  0.35808551394E+03  0.35808551394E+03  0.00000000000E+00 0. -1.
          3   -1    0    0  502    0  0.00000000000E+00 -0.00000000000E+00 -0.12042270574E+03  0.12042270574E+03  0.00000000000E+00 0.  1.
          6    2    1    2  502    0  0.58460430740E+02  0.80186566230E+02  0.51146289147E+02  0.20535911770E+03  0.17236274819E+03 0.  0.
         24    2    3    3    0    0 -0.85789473728E+01 -0.11194063374E+02  0.42571556738E+02  0.91603617961E+02  0.79874776918E+02 0.  0.
         -6    2    1    2    0  501 -0.58460430740E+02 -0.80186566230E+02  0.18651651905E+03  0.27314910198E+03  0.17313148953E+03 0.  0.
        -24    2    5    5    0    0 -0.67134368187E+02 -0.43649232966E+02  0.37602020470E+02  0.11950069880E+03  0.80338198510E+02 0.  0.
          5    1    3    3  502    0  0.67039378113E+02  0.91380629604E+02  0.85747324092E+01  0.11375549974E+03  0.47000000000E+01 0. -1.
        -11    1    4    4    0    0 -0.25764997865E+02 -0.17624456980E+02 -0.12446576934E+02  0.33606158308E+02  0.00000000000E+00 0.  1.
         12    1    4    4    0    0  0.17186050493E+02  0.64303936059E+01  0.55018133672E+02  0.57997459653E+02  0.00000000000E+00 0. -1.
         -5    1    5    5    0  501  0.86739374468E+01 -0.36537333264E+02  0.14891449858E+03  0.15364840318E+03  0.47000000000E+01 0.  1.
         11    1    6    6    0    0 -0.24843213824E+02 -0.48255651184E+02  0.51426535161E+02  0.74769523624E+02  0.00000000000E+00 0. -1.
        -12    1    6    6    0    0 -0.42291154363E+02  0.46064182179E+01 -0.13824514691E+02  0.44731175176E+02  0.00000000000E+00 0.  1.
</event>
<event>
12    1  0.1345781E-002  0.1862092E+03  0.7818608E-02  0.1161926E+00
         -1   -1    0    0    0  501 -0.00000000000E+00  0.00000000000E+00  0.69584322813E+02  0.69584322813E+02  0.00000000000E+00 0. -1.
          1   -1    0    0  502    0  0.00000000000E+00 -0.00000000000E+00 -0.54997463544E+03  0.54997463544E+03  0.00000000000E+00 0.  1.
          6    2    1    2  502    0  0.22573894375E+02  0.70971939569E+02 -0.33644960882E+03  0.38509025448E+03  0.17189987757E+03 0.  0.
         24    2    3    3    0    0 -0.18793342722E+02 -0.22656760460E+02 -0.16167171541E+03  0.18248970216E+03  0.79361384236E+02 0.  0.
         -6    2    1    2    0  501 -0.22573894375E+02 -0.70971939569E+02 -0.14394070382E+03  0.23446870378E+03  0.16944040227E+03 0.  0.
        -24    2    5    5    0    0 -0.27204383428E+02 -0.11103626497E+03 -0.13370958600E+03  0.19259559343E+03  0.78394378645E+02 0.  0.
          5    1    3    3  502    0  0.41367237097E+02  0.93628700030E+02 -0.17477789341E+03  0.20260055231E+03  0.47000000000E+01 0. -1.
        -11    1    4    4    0    0  0.49426756729E+00  0.24974782210E+02 -0.95469182392E+02  0.98683072680E+02  0.00000000000E+00 0.  1.
         12    1    4    4    0    0 -0.19287610289E+02 -0.47631542671E+02 -0.66202533015E+02  0.83806629484E+02  0.00000000000E+00 0. -1.
         -5    1    5    5    0  501  0.46304890530E+01  0.40064325399E+02 -0.10231117813E+02  0.41873110349E+02  0.47000000000E+01 0.  1.
         11    1    6    6    0    0 -0.29392045751E+02 -0.45165950818E+02 -0.13576522209E+02  0.55571372324E+02  0.00000000000E+00 0. -1.
        -12    1    6    6    0    0  0.21876623222E+01 -0.65870314151E+02 -0.12013306379E+03  0.13702422110E+03  0.00000000000E+00 0.  1.
</event>
<event>
12    1  0.1345781E-002  0.3182322E+03  0.7818608E-02  0.1076466E+00
         -2   -1    0    0    0  501 -0.00000000000E+00  0.00000000000E+00  0.10630597414E+03  0.10630597414E+03  0.00000000000E+00 0. -1.
          2   -1    0    0  502    0  0.00000000000E+00 -0.00000000000E+00 -0.19640562656E+04  0.19640562656E+04  0.00000000000E+00 0.  1.
          6    2    1    2  502    0 -0.26614590822E+03 -0.30743696912E+02 -0.18560047266E+03  0.36814419923E+03  0.17118351735E+03 0.  0.
         24    2    3    3    0    0 -0.15915254820E+03 -0.81297673932E+02 -0.14317496437E+03  0.24234556079E+03  0.79331299152E+02 0.  0.
         -6    2    1    2    0  501  0.26614590822E+03  0.30743696912E+02 -0.16721498188E+04  0.17022180405E+04  0.17228587153E+03 0.  0.
        -24    2    5    5    0    0  0.28120375382E+03  0.44185652298E+02 -0.15993126336E+04  0.16264897735E+04  0.81487178080E+02 0.  0.
          5    1    3    3  502    0 -0.10699336002E+03  0.50553977021E+02 -0.42425508289E+02  0.12579863844E+03  0.47000000000E+01 0. -1.
        -13    1    4    4    0    0 -0.17386586253E+00 -0.12233787352E+02 -0.37254451538E+02  0.39212114732E+02  0.00000000000E+00 0.  1.
         14    1    4    4    0    0 -0.15897868234E+03 -0.69063886580E+02 -0.10592051283E+03  0.20313344605E+03  0.00000000000E+00 0. -1.
         -5    1    5    5    0  501 -0.15057845604E+02 -0.13441955386E+02 -0.72837185184E+02  0.75728267010E+02  0.47000000000E+01 0.  1.
         11    1    6    6    0    0  0.16621575279E+03  0.33916040509E+02 -0.72467023636E+03  0.74426132893E+03  0.00000000000E+00 0. -1.
        -12    1    6    6    0    0  0.11498800103E+03  0.10269611789E+02 -0.87464239724E+03  0.88222844454E+03  0.00000000000E+00 0.  1.
</event>
<event>
12    1  0.1345781E-002  0.2277661E+03  0.7818608E-02  0.1128222E+00
          2   -1    0    0  502    0  0.00000000000E+00  0.00000000000E+00  0.63963527026E+03  0.63963527026E+03  0.00000000000E+00 0. -1.
         -2   -1    0    0    0  501 -0.00000000000E+00 -0.00000000000E+00 -0.87869004211E+02  0.87869004211E+02  0.00000000000E+00 0.  1.
          6    2    1    2  502    0  0.82853875930E+02 -0.12372187560E+03  0.17491084704E+03  0.28714482785E+03  0.17229765086E+03 0.  0.
         24    2    3    3    0    0  0.74427272351E+02 -0.11509503639E+03  0.56046904887E+02  0.16757829095E+03  0.78453437005E+02 0.  0.
         -6    2    1    2    0  501 -0.82853875930E+02  0.12372187560E+03  0.37685541901E+03  0.44035944662E+03  0.17240814404E+03 0.  0.
        -24    2    5    5    0    0 -0.87719247184E+02  0.44339740554E+02  0.12071962339E+03  0.17211919796E+03  0.73424191635E+02 0.  0.
          5    1    3    3  502    0  0.84266035783E+01 -0.86268392056E+01  0.11886394215E+03  0.11956653690E+03  0.47000000000E+01 0. -1.
        -11    1    4    4    0    0 -0.58118858496E+01 -0.33195997632E+02 -0.10136602768E+02  0.35192371213E+02  0.00000000000E+00 0.  1.
         12    1    4    4    0    0  0.80239158201E+02 -0.81899038762E+02  0.66183507655E+02  0.13238591974E+03  0.00000000000E+00 0. -1.
         -5    1    5    5    0  501  0.48653712544E+01  0.79382135045E+02  0.25613579562E+03  0.26824024866E+03  0.47000000000E+01 0.  1.
         13    1    6    6    0    0 -0.37005792572E+02  0.11346143211E+01  0.92745445715E+02  0.99862073554E+02  0.00000000000E+00 0. -1.
        -14    1    6    6    0    0 -0.50713454612E+02  0.43205126233E+02  0.27974177677E+02  0.72257124411E+02  0.00000000000E+00 0.  1.
</event>
<event>
12    1  0.1345781E-002  0.1856975E+03  0.7818608E-02  0.1162400E+00
          3   -1    0    0  502    0  0.00000000000E+00  0.00000000000E+00  0.15947514814E+03  0.15947514814E+03  0.00000000000E+00 0. -1.
         -3   -1    0    0    0  501 -0.00000000000E+00 -0.00000000000E+00 -0.22485907637E+03  0.22485907637E+03  0.00000000000E+00 0.  1.
          6    2    1    2  502    0 -0.25639727876E+02  0.64214875557E+02  0.50067588882E+01  0.18541609686E+03  0.17196835596E+03 0.  0.
         24    2    3    3    0    0 -0.32879646083E+02 -0.25443565843E+02 -0.32855030896E+02  0.87709097850E+02  0.69892679310E+02 0.  0.
         -6    2    1    2    0  501  0.25639727876E+02 -0.64214875557E+02 -0.70390687119E+02  0.19891812765E+03  0.17272124011E+03 0.  0.
        -24    2    5    5    0    0  0.84944686528E+01 -0.26521871363E+02 -0.11109751648E+03  0.14066129598E+03  0.81654003958E+02 0.  0.
          5    1    3    3  502    0  0.72399182069E+01  0.89658441400E+02  0.37861789784E+02  0.97706999010E+02  0.47000000000E+01 0. -1.
        -13    1    4    4    0    0 -0.15103355147E+02 -0.11836963921E+02  0.21563864261E+02  0.28865642093E+02  0.00000000000E+00 0.  1.
         14    1    4    4    0    0 -0.17776290936E+02 -0.13606601922E+02 -0.54418895157E+02  0.58843455757E+02  0.00000000000E+00 0. -1.
         -5    1    5    5    0  501  0.17145259223E+02 -0.37693004194E+02  0.40706829357E+02  0.58256831662E+02  0.47000000000E+01 0.  1.
         13    1    6    6    0    0 -0.26623921386E+02  0.61162307791E+01 -0.10578287273E+02  0.29294054525E+02  0.00000000000E+00 0. -1.
        -14    1    6    6    0    0  0.35118390039E+02 -0.32638102142E+02 -0.10051922920E+03  0.11136724146E+03  0.00000000000E+00 0.  1.
</event>
<event>
12    1  0.1345781E-002  0.1816265E+03  0.7818608E-02  0.1166238E+00
          2   -1    0    0  502    0  0.00000000000E+00  0.00000000000E+00  0.21065370036E+04  0.21065370036E+04  0.00000000000E+00 0. -1.
         -2   -1    0    0    0  501 -0.00000000000E+00 -0.00000000000E+00 -0.24047244807E+02  0.24047244807E+02  0.00000000000E+00 0.  1.
          6    2    1    2  502    0 -0.32885885935E+01  0.57546120805E+02  0.40932317362E+03  0.44750741864E+03  0.17144987151E+03 0.  0.
         24    2    3    3    0    0  0.65062683980E+01  0.98489561281E+02  0.22292582752E+03  0.25635730702E+03  0.79250356939E+02 0.  0.
         -6    2    1    2    0  501  0.32885885935E+01 -0.57546120805E+02  0.16731665852E+04  0.16830768298E+04  0.17302838588E+03 0.  0.
        -24    2    5    5    0    0 -0.32505609896E+02  0.23428725891E-01  0.13510670343E+04  0.13538873884E+04  0.81069808740E+02 0.  0.
          5    1    3    3  502    0 -0.97948569915E+01 -0.40943440476E+02  0.18639734610E+03  0.19115011163E+03  0.47000000000E+01 0. -1.
        -13    1    4    4    0    0 -0.89344784849E+01  0.95531147400E+01 -0.26902043404E+01  0.13353804942E+02  0.00000000000E+00 0.  1.
         14    1    4    4    0    0  0.15440746883E+02  0.88936446541E+02  0.22561603186E+03  0.24300350207E+03  0.00000000000E+00 0. -1.
         -5    1    5    5    0  501  0.35794198489E+02 -0.57569549531E+02  0.32209955087E+03  0.32918944143E+03  0.47000000000E+01 0.  1.
         11    1    6    6    0    0  0.25011065647E+02 -0.13247310221E+02  0.42691319548E+03  0.42785034897E+03  0.00000000000E+00 0. -1.
        -12    1    6    6    0    0 -0.57516675543E+02  0.13270738947E+02  0.92415383885E+03  0.92603703940E+03  0.00000000000E+00 0.  1.
</event>
<event>
12    1  0.1345781E-002  0.1970187E+03  0.7818608E-02  0.1152279E+00
         -1   -1    0    0    0  501 -0.00000000000E+00  0.00000000000E+00  0.25648155947E+02  0.25648155947E+02  0.00000000000E+00 0.  1.
          1   -1    0    0  502    0  0.00000000000E+00 -0.00000000000E+00 -0.15370880906E+04  0.15370880906E+04  0.00000000000E+00 0. -1.
          6    2    1    2  502    0  0.52262215434E+02 -0.79857265546E+02 -0.85289148961E+03  0.87536380244E+03  0.17242207384E+03 0.  0.
         24    2    3    3    0    0  0.59821373633E+02 -0.10957053480E+03 -0.50825771994E+03  0.52933700516E+03  0.79293482111E+02 0.  0.
         -6    2    1    2    0  501 -0.52262215434E+02  0.79857265546E+02 -0.65854844506E+03  0.68737244412E+03  0.17229712832E+03 0.  0.
        -24    2    5    5    0    0 -0.73616623992E+02  0.10988207255E+03 -0.59289522700E+03  0.61194078736E+03  0.73846461255E+02 0.  0.
          5    1    3    3  502    0 -0.75591581993E+01  0.29713269258E+02 -0.34463376966E+03  0.34602679728E+03  0.47000000000E+01 0. -1.
        -13    1    4    4    0    0  0.14971708832E+02  0.25995463007E+01 -0.16003895004E+03  0.16075874856E+03  0.00000000000E+00 0.  1.
         14    1    4    4    0    0  0.44849664801E+02 -0.11217008111E+03 -0.34821876990E+03  0.36857825660E+03  0.00000000000E+00 0. -1.
         -5    1    5    5    0  501  0.21354408558E+02 -0.30024807005E+02 -0.65653218062E+02  0.75431656766E+02  0.47000000000E+01 0.  1.
         11    1    6    6    0    0 -0.13684689951E+00  0.58316736396E+02 -0.29931068631E+03  0.30493892407E+03  0.00000000000E+00 0. -1.
        -12    1    6    6    0    0 -0.73479777092E+02  0.51565336156E+02 -0.29358454069E+03  0.30700186329E+03  0.00000000000E+00 0.  1.
</event>
<event>
12    1  0.1345781E-002  0.3830887E+03  0.7818608E-02  0.1049798E+00
          1   -1    0    0  502    0  0.00000000000E+00  0.00000000000E+00  0.11352730838E+04  0.11352730838E+04  0.00000000000E+00 0.  1.
         -1   -1    0    0    0  501 -0.00000000000E+00 -0.00000000000E+00 -0.12976520132E+03  0.12976520132E+03  0.00000000000E+00 0. -1.
          6    2    1    2  502    0 -0.19198520518E+03  0.28286158859E+03  0.54109816949E+03  0.66266712415E+03  0.17167262769E+03 0.  0.
         24    2    3    3    0    0 -0.75045840916E+02  0.12707187958E+03  0.35716171323E+03  0.39471198184E+03  0.80336283179E+02 0.  0.
         -6    2    1    2    0  501  0.19198520518E+03 -0.28286158859E+03  0.46440971295E+03  0.60237116093E+03  0.17408514218E+03 0.  0.
        -24    2    5    5    0    0  0.89431149258E+02 -0.53715689730E+02  0.14785887696E+03  0.19832698127E+03  0.81166731008E+02 0.  0.
          5    1    3    3  502    0 -0.11693936427E+03  0.15578970901E+03  0.18393645626E+03  0.26795514231E+03  0.47000000000E+01 0. -1.
        -13    1    4    4    0    0 -0.36050942709E+02  0.29289939232E+02  0.20157767850E+03  0.20686017374E+03  0.00000000000E+00 0.  1.
         14    1    4    4    0    0 -0.38994898207E+02  0.97781940352E+02  0.15558403472E+03  0.18785180810E+03  0.00000000000E+00 0. -1.
         -5    1    5    5    0  501  0.10255405593E+03 -0.22914589886E+03  0.31655083599E+03  0.40404417966E+03  0.47000000000E+01 0.  1.
         11    1    6    6    0    0 -0.87426900428E+01 -0.66645387030E+01  0.52386433155E+02  0.53527461027E+02  0.00000000000E+00 0. -1.
        -12    1    6    6    0    0  0.98173839301E+02 -0.47051151027E+02  0.95472443801E+02  0.14479952024E+03  0.00000000000E+00 0.  1.
</event>
<event>
12    1  0.1345781E-002  0.1847466E+03  0.7818608E-02  0.1163287E+00
         -1   -1    0    0    0  501 -0.00000000000E+00  0.00000000000E+00  0.37726285015E+02  0.37726285015E+02  0.00000000000E+00 0.  1.
          1   -1    0    0  502    0  0.00000000000E+00 -0.00000000000E+00 -0.92892056768E+03  0.92892056768E+03  0.00000000000E+00 0. -1.
          6    2    1    2  502    0 -0.13233642869E+02 -0.69516589805E+02 -0.52206034813E+03  0.55356627083E+03  0.16994388352E+03 0.  0.
         24    2    3    3    0    0 -0.37066715316E+02 -0.95380104092E+02 -0.48760613201E+03  0.50410800840E+03  0.76771339207E+02 0.  0.
         -6    2    1    2    0  501  0.13233642869E+02  0.69516589805E+02 -0.36913393453E+03  0.41308058187E+03  0.17137100084E+03 0.  0.
        -24    2    5    5    0    0  0.51645467025E+02  0.20886015949E+02 -0.31735008944E+03  0.33218523242E+03  0.80823693596E+02 0.  0.
          5    1    3    3  502    0  0.23833072447E+02  0.25863514286E+02 -0.34454216122E+02  0.49458262425E+02  0.47000000000E+01 0. -1.
        -13    1    4    4    0    0  0.85251596450E+01  0.96416845395E+01 -0.65364549972E+02  0.66619552841E+02  0.00000000000E+00 0.  1.
         14    1    4    4    0    0 -0.45591874961E+02 -0.10502178863E+03 -0.42224158203E+03  0.43748845556E+03  0.00000000000E+00 0. -1.
         -5    1    5    5    0  501 -0.38411824156E+02  0.48630573857E+02 -0.51783845094E+02  0.80895349442E+02  0.47000000000E+01 0.  1.
         13    1    6    6    0    0  0.24527931796E+02  0.48473419030E+02 -0.13020249722E+03  0.14108147318E+03  0.00000000000E+00 0. -1.
        -14    1    6    6    0    0  0.27117535229E+02 -0.27587403082E+02 -0.18714759222E+03  0.19110375925E+03  0.00000000000E+00 0.  1.
</event>
<event>
12    1  0.1345781E-002  0.1889563E+03  0.7818608E-02  0.1159406E+00
          2   -1    0    0  502    0  0.00000000000E+00  0.00000000000E+00  0.42066828301E+03  0.42066828301E+03  0.00000000000E+00 0. -1.
         -2   -1    0    0    0  501 -0.00000000000E+00 -0.00000000000E+00 -0.15485553905E+03  0.15485553905E+03  0.00000000000E+00 0.  1.
          6    2    1    2  502    0 -0.78152974968E+02  0.34289900278E+01  0.32667193952E+03  0.37780732643E+03  0.17292823473E+03 0.  0.
         24    2    3    3    0    0 -0.73727393717E+02 -0.26305278990E+02  0.10031704525E+03  0.14941656330E+03  0.78320517958E+02 0.  0.
         -6    2    1    2    0  501  0.78152974968E+02 -0.34289900278E+01 -0.60859195561E+02  0.19771649563E+03  0.17107988044E+03 0.  0.
        -24    2    5    5    0    0  0.10897093777E+03  0.30535769424E+02 -0.29017348814E+02  0.14168663823E+03  0.80162325493E+02 0.  0.
          5    1    3    3  502    0 -0.44255812510E+01  0.29734269018E+02  0.22635489427E+03  0.22839076313E+03  0.47000000000E+01 0. -1.
        -13    1    4    4    0    0 -0.51738893999E+02 -0.53889208213E+02  0.76017966908E+02  0.10658185215E+03  0.00000000000E+00 0.  1.
         14    1    4    4    0    0 -0.21988499717E+02  0.27583929223E+02  0.24299078341E+02  0.42834711151E+02  0.00000000000E+00 0. -1.
         -5    1    5    5    0  501 -0.30817962805E+02 -0.33964759451E+02 -0.31841846747E+02  0.56029857400E+02  0.47000000000E+01 0.  1.
         13    1    6    6    0    0  0.63905749623E+02 -0.21990982354E+02 -0.25997530437E+02  0.72411461307E+02  0.00000000000E+00 0. -1.
        -14    1    6    6    0    0  0.45065188149E+02  0.52526751778E+02 -0.30198183774E+01  0.69275176927E+02  0.00000000000E+00 0.  1.
</event>
<event>
12    1  0.1345781E-002  0.2291370E+03  0.7818608E-02  0.1127249E+00
          1   -1    0    0  502    0  0.00000000000E+00  0.00000000000E+00  0.46472913090E+03  0.46472913090E+03  0.00000000000E+00 0.  1.
         -1   -1    0    0    0  501 -0.00000000000E+00 -0.00000000000E+00 -0.11520852366E+03  0.11520852366E+03  0.00000000000E+00 0. -1.
          6    2    1    2  502    0 -0.14361970105E+03 -0.50261139128E+02  0.13443654261E+03  0.26569870075E+03  0.17137623802E+03 0.  0.
         24    2    3    3    0    0 -0.22084987008E+01 -0.26894041023E+01  0.29691266690E+02  0.83342288881E+02  0.77796243080E+02 0.  0.
         -6    2    1    2    0  501  0.14361970105E+03  0.50261139128E+02  0.21508406463E+03  0.31423895382E+03  0.17126635572E+03 0.  0.
        -24    2    5    5    0    0  0.17353082377E+03  0.52309639923E+02  0.19399140293E+03  0.27728138361E+03  0.80019098088E+02 0.  0.
          5    1    3    3  502    0 -0.14141120235E+03 -0.47571735026E+02  0.10474527592E+03  0.18235641187E+03  0.47000000000E+01 0. -1.
        -11    1    4    4    0    0 -0.17877156482E+02 -0.32255448898E+02  0.33298677381E+02  0.49687107209E+02  0.00000000000E+00 0.  1.
         12    1    4    4    0    0  0.15668657781E+02  0.29566044796E+02 -0.36074106906E+01  0.33655181673E+02  0.00000000000E+00 0. -1.
         -5    1    5    5    0  501 -0.29911122721E+02 -0.20485007953E+01  0.21092661701E+02  0.36957570206E+02  0.47000000000E+01 0.  1.
         13    1    6    6    0    0  0.34856678274E+02  0.12245278556E+02  0.18907653290E+01  0.36993375903E+02  0.00000000000E+00 0. -1.
        -14    1    6    6    0    0  0.13867414549E+03  0.40064361367E+02  0.19210063760E+03  0.24028800771E+03  0.00000000000E+00 0.  1.
</event>
<event>
12    1  0.1345781E-002  0.4075612E+03  0.7818608E-02  0.1041193E+00
         -2   -1    0    0    0  501 -0.00000000000E+00  0.00000000000E+00  0.65822488681E+02  0.65822488681E+02  0.00000000000E+00 0. -1.
          2   -1    0    0  502    0  0.00000000000E+00 -0.00000000000E+00 -0.26873043474E+04  0.26873043474E+04  0.00000000000E+00 0.  1.
          6    2    1    2  502    0 -0.19496507107E+03  0.31314090682E+03 -0.97281011182E+03  0.10549750831E+04  0.17476929306E+03 0.  0.
         24    2    3    3    0    0 -0.31726633934E+02  0.72361392146E+02 -0.26160329220E+03  0.28656191796E+03  0.86247898317E+02 0.  0.
         -6    2    1    2    0  501  0.19496507107E+03 -0.31314090682E+03 -0.16486717469E+04  0.16981517530E+04  0.17184947118E+03 0.  0.
        -24    2    5    5    0    0  0.14498524523E+03 -0.22406887330E+03 -0.89250216177E+03  0.93510107210E+03  0.81402241788E+02 0.  0.
          5    1    3    3  502    0 -0.16323843714E+03  0.24077951467E+03 -0.71120681962E+03  0.76841316511E+03  0.47000000000E+01 0. -1.
        -11    1    4    4    0    0  0.18548125591E+02  0.55111248087E+02 -0.18013667770E+03  0.18928947483E+03  0.00000000000E+00 0.  1.
         12    1    4    4    0    0 -0.50274759525E+02  0.17250144058E+02 -0.81466614492E+02  0.97272443128E+02  0.00000000000E+00 0. -1.
         -5    1    5    5    0  501  0.49979825838E+02 -0.89072033514E+02 -0.75616958514E+03  0.76305068091E+03  0.47000000000E+01 0.  1.
         13    1    6    6    0    0  0.23830450409E+02 -0.17277230739E+02 -0.40731124828E+02  0.50253533194E+02  0.00000000000E+00 0. -1.
        -14    1    6    6    0    0  0.12115479483E+03 -0.20679164256E+03 -0.85177103694E+03  0.88484753891E+03  0.00000000000E+00 0.  1.
</event>
<event>
12    1  0.1345781E-002  0.1942048E+03  0.7818608E-02  0.1154723E+00
          2   -1    0    0  502    0  0.00000000000E+00  0.00000000000E+00  0.14910910502E+04  0.14910910502E+04  0.00000000000E+00 0. -1.
         -2   -1    0    0    0  501 -0.00000000000E+00 -0.00000000000E+00 -0.33707734189E+02  0.33707734189E+02  0.00000000000E+00 0.  1.
          6    2    1    2  502    0 -0.40606726157E+01  0.89322968887E+02  0.11101689433E+04  0.11270625375E+04  0.17262618276E+03 0.  0.
         24    2    3    3    0    0 -0.56804848104E+02  0.92021028181E+02  0.83581942636E+03  0.84763638445E+03  0.90546487337E+02 0.  0.
         -6    2    1    2    0  501  0.40606726157E+01 -0.89322968887E+02  0.34721437270E+03  0.39773624686E+03  0.17216625577E+03 0.  0.
        -24    2    5    5    0    0  0.26424810746E+02  0.13446417276E+02  0.10756787911E+03  0.13598401039E+03  0.77728538551E+02 0.  0.
          5    1    3    3  502    0  0.52744175488E+02 -0.26980592935E+01  0.27434951690E+03  0.27942615302E+03  0.47000000000E+01 0. -1.
        -13    1    4    4    0    0  0.24870190080E+02  0.23407618530E+02  0.18308647993E+03  0.18624473709E+03  0.00000000000E+00 0.  1.
         14    1    4    4    0    0 -0.81675038184E+02  0.68613409650E+02  0.65273294643E+03  0.66139164736E+03  0.00000000000E+00 0. -1.
         -5    1    5    5    0  501 -0.22364138130E+02 -0.10276938616E+03  0.23964649360E+03  0.26175223647E+03  0.47000000000E+01 0.  1.
         11    1    6    6    0    0  0.47734102184E+02  0.29486091300E+02  0.66388792807E+02  0.86922067980E+02  0.00000000000E+00 0. -1.
        -12    1    6    6    0    0 -0.21309291439E+02 -0.16039674024E+02  0.41179086300E+02  0.49061942409E+02  0.00000000000E+00 0.  1.
</event>
<event>
12    1  0.1345781E-002  0.2217151E+03  0.7818608E-02  0.1132611E+00
          1   -1    0    0  502    0  0.00000000000E+00  0.00000000000E+00  0.30864489730E+04  0.30864489730E+04  0.00000000000E+00 0.  1.
         -1   -1    0    0    0  501 -0.00000000000E+00 -0.00000000000E+00 -0.20500262656E+02  0.20500262656E+02  0.00000000000E+00 0. -1.
          6    2    1    2  502    0 -0.53927106163E+01  0.14046215408E+03  0.80297209476E+03  0.83320465194E+03  0.17235750347E+03 0.  0.
         24    2    3    3    0    0  0.56267079515E+02  0.64804546168E+02  0.56258084807E+03  0.57371275450E+03  0.72687692349E+02 0.  0.
         -6    2    1    2    0  501  0.53927106163E+01 -0.14046215408E+03  0.22629766156E+04  0.22737445837E+04  0.17056544557E+03 0.  0.
        -24    2    5    5    0    0 -0.13483383978E+02 -0.92381491680E+01  0.62274315927E+03  0.62815534954E+03  0.80640905836E+02 0.  0.
          5    1    3    3  502    0 -0.61659790132E+02  0.75657607913E+02  0.24039124668E+03  0.25949189744E+03  0.47000000000E+01 0. -1.
        -13    1    4    4    0    0 -0.24481804161E+01 -0.13824494648E+02  0.85334603768E+02  0.86481817972E+02  0.00000000000E+00 0.  1.
         14    1    4    4    0    0  0.58715259932E+02  0.78629040815E+02  0.47724624431E+03  0.48723093653E+03  0.00000000000E+00 0. -1.
         -5    1    5    5    0  501  0.18876094595E+02 -0.13122400491E+03  0.16402334563E+04  0.16455892342E+04  0.47000000000E+01 0.  1.
         11    1    6    6    0    0  0.20759165190E+02  0.10424681099E+02  0.65180024309E+02  0.69195754814E+02  0.00000000000E+00 0. -1.
        -12    1    6    6    0    0 -0.34242549169E+02 -0.19662830267E+02  0.55756313496E+03  0.55895959473E+03  0.00000000000E+00 0.  1.
</event>
<event>
12    1  0.1345781E-002  0.2119192E+03  0.7818608E-02  0.1140055E+00
         -2   -1    0    0    0  501 -0.00000000000E+00  0.00000000000E+00  0.42807078698E+03  0.42807078698E+03  0.00000000000E+00 0.  1.
          2   -1    0    0  502    0  0.00000000000E+00 -0.00000000000E+00 -0.10514168974E+03  0.10514168974E+03  0.00000000000E+00 0. -1.
          6    2    1    2  502    0 -0.12645107489E+03  0.10878385113E+01  0.17580589696E+03  0.27813347957E+03  0.17452639146E+03 0.  0.
         24    2    3    3    0    0 -0.37136238089E+02  0.14174248467E+02  0.16395131615E+03  0.18696870959E+03  0.80605550675E+02 0.  0.
         -6    2    1    2    0  501  0.12645107489E+03 -0.10878385113E+01  0.14712320028E+03  0.25507899715E+03  0.16561703111E+03 0.  0.
        -24    2    5    5    0    0  0.64471677084E+01 -0.35769998660E+02  0.23187381865E+02  0.79050683925E+02  0.66259317652E+02 0.  0.
          5    1    3    3  502    0 -0.89314836800E+02 -0.13086409956E+02  0.11854580809E+02  0.91164769974E+02  0.47000000000E+01 0. -1.
        -13    1    4    4    0    0 -0.59467662344E+02  0.21179629889E+02  0.94202828153E+02  0.11339820289E+03  0.00000000000E+00 0.  1.
         14    1    4    4    0    0  0.22331424255E+02 -0.70053814216E+01  0.69748488002E+02  0.73570506704E+02  0.00000000000E+00 0. -1.
         -5    1    5    5    0  501  0.12000390718E+03  0.34682160149E+02  0.12393581841E+03  0.17602831322E+03  0.47000000000E+01 0.  1.
         13    1    6    6    0    0 -0.36427380032E+01 -0.51153801041E+02  0.30021926816E+02  0.59424717003E+02  0.00000000000E+00 0. -1.
        -14    1    6    6    0    0  0.10089905712E+02  0.15383802380E+02 -0.68345449515E+01  0.19625966923E+02  0.00000000000E+00 0.  1.
</event>
<event>
12    1  0.1345781E-002  0.2310538E+03  0.7818608E-02  0.1125900E+00
          1   -1    0    0  502    0  0.00000000000E+00  0.00000000000E+00  0.24254724616E+03  0.24254724616E+03  0.00000000000E+00 0. -1.
         -1   -1    0    0    0  501 -0.00000000000E+00 -0.00000000000E+00 -0.22206524077E+03  0.22206524077E+03  0.00000000000E+00 0.  1.
          6    2    1    2  502    0 -0.14345839958E+03 -0.56145652678E+02  0.32050404904E+02  0.23295113058E+03  0.17177413676E+03 0.  0.
         24    2    3    3    0    0 -0.14604249464E+03 -0.28161548712E+02 -0.23672671135E+02  0.17036567840E+03  0.79640353776E+02 0.  0.
         -6    2    1    2    0  501  0.14345839958E+03  0.56145652678E+02 -0.11568399512E+02  0.23166135635E+03  0.17262824055E+03 0.  0.
        -24    2    5    5    0    0  0.15743823448E+03  0.51661981792E+02 -0.50272273624E+02  0.19000059592E+03  0.78212319477E+02 0.  0.
          5    1    3    3  502    0  0.25840950616E+01 -0.27984103966E+02  0.55723076039E+02  0.62585452185E+02  0.47000000000E+01 0. -1.
        -13    1    4    4    0    0 -0.11913744080E+03 -0.43334282461E+01  0.11886873230E+02  0.11980737104E+03  0.00000000000E+00 0.  1.
         14    1    4    4    0    0 -0.26905053843E+02 -0.23828120466E+02 -0.35559544364E+02  0.50558307355E+02  0.00000000000E+00 0. -1.
         -5    1    5    5    0  501 -0.13979834897E+02  0.44836708857E+01  0.38703874112E+02  0.41660760431E+02  0.47000000000E+01 0.  1.
         13    1    6    6    0    0  0.93836095839E+01 -0.11695837847E+02  0.10028904665E+02  0.18039503334E+02  0.00000000000E+00 0. -1.
        -14    1    6    6    0    0  0.14805462489E+03  0.63357819639E+02 -0.60301178289E+02  0.17196109259E+03  0.00000000000E+00 0.  1.
</event>
<event>
12    1  0.1345781E-002  0.4331868E+03  0.7818608E-02  0.1032858E+00
          2   -1    0    0  502    0  0.00000000000E+00  0.00000000000E+00  0.19108440740E+04  0.19108440740E+04  0.00000000000E+00 0.  1.
         -2   -1    0    0    0  501 -0.00000000000E+00 -0.00000000000E+00 -0.99030614715E+02  0.99030614715E+02  0.00000000000E+00 0. -1.
          6    2    1    2  502    0  0.29777697831E+03  0.26286211957E+03  0.81334478456E+03  0.92135089184E+03  0.17201774500E+03 0.  0.
         24    2    3    3    0    0  0.17536650773E+03  0.78598636077E+02  0.45034142496E+03  0.49622634099E+03  0.80635133915E+02 0.  0.
         -6    2    1    2    0  501 -0.29777697831E+03 -0.26286211957E+03  0.99846867468E+03  0.10885237968E+04  0.17371453379E+03 0.  0.
        -24    2    5    5    0    0 -0.13307406386E+03 -0.12993030468E+03  0.32808465103E+03  0.38550548512E+03  0.79902129344E+02 0.  0.
          5    1    3    3  502    0  0.12241047058E+03  0.18426348349E+03  0.36300335960E+03  0.42512455085E+03  0.47000000000E+01 0. -1.
        -13    1    4    4    0    0  0.16419686375E+03  0.78744651915E+02  0.34333984210E+03  0.38864325215E+03  0.00000000000E+00 0.  1.
         14    1    4    4    0    0  0.11169643982E+02 -0.14601583734E+00  0.10700158286E+03  0.10758308883E+03  0.00000000000E+00 0. -1.
         -5    1    5    5    0  501 -0.16470291445E+03 -0.13293181489E+03  0.67038402366E+03  0.70301831172E+03  0.47000000000E+01 0.  1.
         11    1    6    6    0    0 -0.11375699160E+03 -0.81120385789E+02  0.17661585353E+03  0.22519842328E+03  0.00000000000E+00 0. -1.
        -12    1    6    6    0    0 -0.19317072263E+02 -0.48809918887E+02  0.15146879749E+03  0.16030706184E+03  0.00000000000E+00 0.  1.
</event>
<event>
12    1  0.1345781E-002  0.1901774E+03  0.7818608E-02  0.1158301E+00
          1   -1    0    0  502    0  0.00000000000E+00  0.00000000000E+00  0.89124835723E+03  0.89124835723E+03  0.00000000000E+00 0. -1.
         -1   -1    0    0    0  501 -0.00000000000E+00 -0.00000000000E+00 -0.93838877425E+02  0.93838877425E+02  0.00000000000E+00 0.  1.
          6    2    1    2  502    0 -0.80361736654E+02 -0.65622152197E+01  0.28087815912E+02  0.19272521844E+03  0.17278024492E+03 0.  0.
         24    2    3    3    0    0 -0.63478693708E+02 -0.70466106791E+02  0.33319382577E+02  0.12625564806E+03  0.76389074161E+02 0.  0.
         -6    2    1    2    0  501  0.80361736654E+02  0.65622152197E+01  0.76932166390E+03  0.79236201622E+03  0.17169936171E+03 0.  0.
        -24    2    5    5    0    0  0.48429703151E+02 -0.24374998479E+02  0.71818836148E+03  0.72443948261E+03  0.77964509263E+02 0.  0.
          5    1    3    3  502    0 -0.16883042945E+02  0.63903891571E+02 -0.52315666645E+01  0.66469570382E+02  0.47000000000E+01 0. -1.
        -11    1    4    4    0    0 -0.26285138374E+02  0.74675235753E+01 -0.10680118698E+02  0.29338325499E+02  0.00000000000E+00 0.  1.
         12    1    4    4    0    0 -0.37193555334E+02 -0.77933630366E+02  0.43999501274E+02  0.96917322563E+02  0.00000000000E+00 0. -1.
         -5    1    5    5    0  501  0.31932033502E+02  0.30937213699E+02  0.51133302422E+02  0.67922533607E+02  0.47000000000E+01 0.  1.
         11    1    6    6    0    0  0.26190829743E+02 -0.25991671382E+01  0.60038625922E+02  0.65554190065E+02  0.00000000000E+00 0. -1.
        -12    1    6    6    0    0  0.22238873408E+02 -0.21775831341E+02  0.65814973555E+03  0.65888529254E+03  0.00000000000E+00 0.  1.
</event>
<event>
12    1  0.1345781E-002  0.1843078E+03  0.7818608E-02  0.1163698E+00
          2   -1    0    0  502    0  0.00000000000E+00  0.00000000000E+00  0.12786758245E+04  0.12786758245E+04  0.00000000000E+00 0.  1.
         -2   -1    0    0    0  501 -0.00000000000E+00 -0.00000000000E+00 -0.39941503473E+02  0.39941503473E+02  0.00000000000E+00 0. -1.
          6    2    1    2  502    0  0.43242725115E+02 -0.43788978009E+02  0.23373464516E+03  0.29651884925E+03  0.17176767955E+03 0.  0.
         24    2    3    3    0    0 -0.12749145607E+02 -0.14167929631E+02  0.21520710724E+03  0.23035348251E+03  0.79908428548E+02 0.  0.
         -6    2    1    2    0  501 -0.43242725115E+02  0.43788978009E+02  0.10049996759E+04  0.10220984787E+04  0.17570869033E+03 0.  0.
        -24    2    5    5    0    0  0.62287855664E+01 -0.40178004440E+02  0.43964630808E+03  0.44838739727E+03  0.78162088120E+02 0.  0.
          5    1    3    3  502    0  0.55991870722E+02 -0.29621048378E+02  0.18527537919E+02  0.66165366735E+02  0.47000000000E+01 0. -1.
        -11    1    4    4    0    0 -0.39348421772E+02 -0.55691449487E+01  0.55749268617E+02  0.68463819808E+02  0.00000000000E+00 0.  1.
         12    1    4    4    0    0  0.26599276165E+02 -0.85987846825E+01  0.15945783863E+03  0.16188966270E+03  0.00000000000E+00 0. -1.
         -5    1    5    5    0  501 -0.49471510681E+02  0.83966982449E+02  0.56535336777E+03  0.57371108144E+03  0.47000000000E+01 0.  1.
         11    1    6    6    0    0  0.14927956483E+01  0.61542903176E+01  0.52166062609E-01  0.63329652974E+01  0.00000000000E+00 0. -1.
        -12    1    6    6    0    0  0.47359899181E+01 -0.46332294758E+02  0.43959414201E+03  0.44205443198E+03  0.00000000000E+00 0.  1.
</event>
<event>
12    1  0.1345781E-002  0.2931634E+03  0.7818608E-02  0.1088709E+00
          1   -1    0    0  502    0  0.00000000000E+00  0.00000000000E+00  0.19757939968E+04  0.19757939968E+04  0.00000000000E+00 0. -1.
         -1   -1    0    0    0  501 -0.00000000000E+00 -0.00000000000E+00 -0.45820474512E+02  0.45820474512E+02  0.00000000000E+00 0.  1.
          6    2    1    2  502    0  0.85372631804E+02  0.22166081430E+03  0.73680083284E+03  0.79290387035E+03  0.17146159187E+03 0.  0.
         24    2    3    3    0    0  0.62841381420E+02  0.20962457528E+03  0.46728481342E+03  0.52213920682E+03  0.79892131423E+02 0.  0.
         -6    2    1    2    0  501 -0.85372631804E+02 -0.22166081430E+03  0.11931726895E+04  0.12287106010E+04  0.17218208737E+03 0.  0.
        -24    2    5    5    0    0  0.17486838383E+02 -0.93154886433E+02  0.61906294347E+03  0.63145191787E+03  0.80678214016E+02 0.  0.
          5    1    3    3  502    0  0.22531250384E+02  0.12036239017E+02  0.26951601943E+03  0.27076466354E+03  0.47000000000E+01 0. -1.
        -13    1    4    4    0    0  0.70350091973E+02  0.11217333269E+03  0.30803572124E+03  0.33528793233E+03  0.00000000000E+00 0.  1.
         14    1    4    4    0    0 -0.75087105530E+01  0.97451242599E+02  0.15924909218E+03  0.18685127449E+03  0.00000000000E+00 0. -1.
         -5    1    5    5    0  501 -0.10285947019E+03 -0.12850592787E+03  0.57410974602E+03  0.59725868313E+03  0.47000000000E+01 0.  1.
         13    1    6    6    0    0  0.22865932737E+02 -0.10315907206E+03  0.45980590324E+03  0.47179032809E+03  0.00000000000E+00 0. -1.
        -14    1    6    6    0    0 -0.53790943542E+01  0.10004185626E+02  0.15925704023E+03  0.15966158978E+03  0.00000000000E+00 0.  1.
</event>
<event>
12    1  0.1345781E-002  0.2343495E+03  0.7818608E-02  0.1123615E+00
         -2   -1    0    0    0  501 -0.00000000000E+00  0.00000000000E+00  0.23295927153E+02  0.23295927153E+02  0.00000000000E+00 0.  1.
          2   -1    0    0  502    0  0.00000000000E+00 -0.00000000000E+00 -0.23684430979E+04  0.23684430979E+04  0.00000000000E+00 0. -1.
          6    2    1    2  502    0  0.15623046367E+03 -0.24544564289E+02 -0.10918628636E+04  0.11167565528E+04  0.17311929911E+03 0.  0.
         24    2    3    3    0    0  0.20691441836E+02 -0.53526677834E+00 -0.23562745282E+03  0.24951469402E+03  0.79428355988E+02 0.  0.
         -6    2    1    2    0  501 -0.15623046367E+03  0.24544564289E+02 -0.12532843071E+04  0.12749824722E+04  0.17276676992E+03 0.  0.
        -24    2    5    5    0    0 -0.12560271146E+03 -0.40377856043E+02 -0.99572130120E+03  0.10075618824E+04  0.79458321665E+02 0.  0.
          5    1    3    3  502    0  0.13553902184E+03 -0.24009297510E+02 -0.85623541083E+03  0.86724185875E+03  0.47000000000E+01 0. -1.
        -11    1    4    4    0    0  0.49499728642E+02  0.66664588755E+01 -0.11676132205E+03  0.12699555558E+03  0.00000000000E+00 0.  1.
         12    1    4    4    0    0 -0.28808286807E+02 -0.72017256538E+01 -0.11886613077E+03  0.12251913844E+03  0.00000000000E+00 0. -1.
         -5    1    5    5    0  501 -0.30627752211E+02  0.64922420332E+02 -0.25756300586E+03  0.26742058981E+03  0.47000000000E+01 0.  1.
         11    1    6    6    0    0  0.50729514274E+01  0.85854484927E+01 -0.15651325152E+03  0.15683061775E+03  0.00000000000E+00 0. -1.
        -12    1    6    6    0    0 -0.13067566289E+03 -0.48963304536E+02 -0.83920804968E+03  0.85073126468E+03  0.00000000000E+00 0.  1.
</event>
<event>
12    1  0.1345781E-002  0.2108649E+03  0.7818608E-02  0.1140883E+00
          1   -1    0    0  502    0  0.00000000000E+00  0.00000000000E+00  0.20089284917E+03  0.20089284917E+03  0.00000000000E+00 0.  1.
         -1   -1    0    0    0  501 -0.00000000000E+00 -0.00000000000E+00 -0.22313810913E+03  0.22313810913E+03  0.00000000000E+00 0. -1.
          6    2    1    2  502    0 -0.52651902788E+02  0.10895131699E+03 -0.30108726767E+02  0.21604571074E+03  0.17642732601E+03 0.  0.
         24    2    3    3    0    0 -0.26594669802E+02 -0.15249853798E+02  0.20111408302E+02  0.79484141542E+02  0.70522517751E+02 0.  0.
         -6    2    1    2    0  501  0.52651902788E+02 -0.10895131699E+03  0.78634668090E+01  0.20798524756E+03  0.16897756286E+03 0.  0.
        -24    2    5    5    0    0  0.21732272640E+02 -0.13798309385E+02 -0.44134050721E+02  0.95131580294E+02  0.80246608155E+02 0.  0.
          5    1    3    3  502    0 -0.26057232986E+02  0.12420117079E+03 -0.50220135069E+02  0.13656156920E+03  0.47000000000E+01 0. -1.
        -13    1    4    4    0    0  0.64450343673E+01 -0.97965952486E+01  0.39215491825E+02  0.40931241681E+02  0.00000000000E+00 0.  1.
         14    1    4    4    0    0 -0.33039704170E+02 -0.54532585490E+01 -0.19104083523E+02  0.38552899861E+02  0.00000000000E+00 0. -1.
         -5    1    5    5    0  501  0.30919630148E+02 -0.95153007609E+02  0.51997517530E+02  0.11285366726E+03  0.47000000000E+01 0.  1.
         13    1    6    6    0    0 -0.25836124069E+02 -0.24349461290E+02 -0.20190585070E+02  0.40841906144E+02  0.00000000000E+00 0. -1.
        -14    1    6    6    0    0  0.47568396709E+02  0.10551151906E+02 -0.23943465650E+02  0.54289674150E+02  0.00000000000E+00 0.  1.
</event>
<event>
12    1  0.1345781E-002  0.1887226E+03  0.7818608E-02  0.1159619E+00
          1   -1    0    0  502    0  0.00000000000E+00  0.00000000000E+00  0.22576574025E+04  0.22576574025E+04  0.00000000000E+00 0.  1.
         -1   -1    0    0    0  501 -0.00000000000E+00 -0.00000000000E+00 -0.15801438159E+02  0.15801438159E+02  0.00000000000E+00 0. -1.
          6    2    1    2  502    0 -0.40577044915E+02  0.65749430286E+02  0.10916009161E+04  0.11082074258E+04  0.17481891892E+03 0.  0.
         24    2    3    3    0    0 -0.71442556896E+02  0.83189003764E+02  0.10107732042E+04  0.10198217507E+04  0.79683646870E+02 0.  0.
         -6    2    1    2    0  501  0.40577044915E+02 -0.65749430286E+02  0.11502550482E+04  0.11652514148E+04  0.16957210758E+03 0.  0.
        -24    2    5    5    0    0 -0.65161882089E+01 -0.40189994663E+02  0.28510449799E+03  0.29843042876E+03  0.78220519379E+02 0.  0.
          5    1    3    3  502    0  0.30865511981E+02 -0.17439573478E+02  0.80827711910E+02  0.88385675115E+02  0.47000000000E+01 0. -1.
        -13    1    4    4    0    0 -0.61233302909E+02  0.85155445303E+02  0.61268788610E+03  0.62160068615E+03  0.00000000000E+00 0.  1.
         14    1    4    4    0    0 -0.10209253986E+02 -0.19664415396E+01  0.39808531812E+03  0.39822106457E+03  0.00000000000E+00 0. -1.
         -5    1    5    5    0  501  0.47093233124E+02 -0.25559435623E+02  0.86515055017E+03  0.86682098603E+03  0.47000000000E+01 0.  1.
         11    1    6    6    0    0 -0.33507121521E+02  0.58154106888E+01  0.13159644892E+03  0.13591972470E+03  0.00000000000E+00 0. -1.
        -12    1    6    6    0    0  0.26990933312E+02 -0.46005405352E+02  0.15350804907E+03  0.16251070405E+03  0.00000000000E+00 0.  1.
</event>
<event>
12    1  0.1345781E-002  0.1733566E+03  0.7818608E-02  0.1174392E+00
         -2   -1    0    0    0  501 -0.00000000000E+00  0.00000000000E+00  0.80720929956E+03  0.80720929956E+03  0.00000000000E+00 0.  1.
          2   -1    0    0  502    0  0.00000000000E+00 -0.00000000000E+00 -0.45304951405E+02  0.45304951405E+02  0.00000000000E+00 0. -1.
          6    2    1    2  502    0  0.21521679966E+02 -0.13731919763E+02  0.55896135305E+03  0.58491238802E+03  0.17039060753E+03 0.  0.
         24    2    3    3    0    0  0.92988613785E+01 -0.25650045227E+02  0.56074618935E+03  0.56711590945E+03  0.80248191503E+02 0.  0.
         -6    2    1    2    0  501 -0.21521679966E+02  0.13731919763E+02  0.20294299511E+03  0.26760186295E+03  0.17254897698E+03 0.  0.
        -24    2    5    5    0    0 -0.42741845831E+02 -0.10389162046E+02  0.37551389180E+02  0.99053367431E+02  0.80415562530E+02 0.  0.
          5    1    3    3  502    0  0.12222818587E+02  0.11918125464E+02 -0.17848363081E+01  0.17796478569E+02  0.47000000000E+01 0. -1.
        -13    1    4    4    0    0  0.26929436788E+02  0.21133194100E+02  0.19736983272E+03  0.20031639306E+03  0.00000000000E+00 0.  1.
         14    1    4    4    0    0 -0.17630575409E+02 -0.46783239327E+02  0.36337635663E+03  0.36679951640E+03  0.00000000000E+00 0. -1.
         -5    1    5    5    0  501  0.21220165866E+02  0.24121081809E+02  0.16539160593E+03  0.16854849551E+03  0.47000000000E+01 0.  1.
         13    1    6    6    0    0 -0.45481404730E+02  0.11308576115E+02 -0.89066918035E+01  0.47705044061E+02  0.00000000000E+00 0. -1.
        -14    1    6    6    0    0  0.27395588986E+01 -0.21697738162E+02  0.46458080983E+02  0.51348323370E+02  0.00000000000E+00 0.  1.
</event>
<event>
12    1  0.1345781E-002  0.1859631E+03  0.7818608E-02  0.1162154E+00
         -1   -1    0    0    0  501 -0.00000000000E+00  0.00000000000E+00  0.58652331600E+02  0.58652331600E+02  0.00000000000E+00 0.  1.
          1   -1    0    0  502    0  0.00000000000E+00 -0.00000000000E+00 -0.64177501051E+03  0.64177501051E+03  0.00000000000E+00 0. -1.
          6    2    1    2  502    0  0.63635924281E+02  0.24624431682E+02 -0.19016795373E+03  0.26522147758E+03  0.17182167513E+03 0.  0.
         24    2    3    3    0    0  0.10651065830E+02 -0.49604586026E+02 -0.85018400422E+02  0.12595245426E+03  0.77857768815E+02 0.  0.
         -6    2    1    2    0  501 -0.63635924281E+02 -0.24624431682E+02 -0.39295472518E+03  0.43520586453E+03  0.17416898401E+03 0.  0.
        -24    2    5    5    0    0 -0.71147378145E+02  0.43294651197E+02 -0.28385890836E+03  0.30639045006E+03  0.79767485828E+02 0.  0.
          5    1    3    3  502    0  0.52984858451E+02  0.74229017708E+02 -0.10514955331E+03  0.13926902332E+03  0.47000000000E+01 0. -1.
        -11    1    4    4    0    0 -0.20153187264E+02 -0.10322755742E+02  0.48440455414E+01  0.23155453358E+02  0.00000000000E+00 0.  1.
         12    1    4    4    0    0  0.30804253095E+02 -0.39281830284E+02 -0.89862445963E+02  0.10279700090E+03  0.00000000000E+00 0. -1.
         -5    1    5    5    0  501  0.75114538633E+01 -0.67919082879E+02 -0.10909581682E+03  0.12881541447E+03  0.47000000000E+01 0.  1.
         13    1    6    6    0    0 -0.83980541425E+02  0.38943360389E+02 -0.27509500674E+03  0.29025261306E+03  0.00000000000E+00 0. -1.
        -14    1    6    6    0    0  0.12833163281E+02  0.43512908079E+01 -0.87639016233E+01  0.16137837003E+02  0.00000000000E+00 0.  1.
</event>
<event>
12    1  0.1345781E-002  0.1793305E+03  0.7818608E-02  0.1168453E+00
         -2   -1    0    0    0  501 -0.00000000000E+00  0.00000000000E+00  0.30948914718E+02  0.30948914718E+02  0.00000000000E+00 0. -1.
          2   -1    0    0  502    0  0.00000000000E+00 -0.00000000000E+00 -0.10960237864E+04  0.10960237864E+04  0.00000000000E+00 0.  1.
          6    2    1    2  502    0  0.41822422346E+02  0.27961372174E+02 -0.65970876185E+03  0.68353471917E+03  0.17167733834E+03 0.  0.
         24    2    3    3    0    0  0.57434421308E+02 -0.42109899173E+01 -0.62786269081E+03  0.63541967334E+03  0.78931347212E+02 0.  0.
         -6    2    1    2    0  501 -0.41822422346E+02 -0.27961372174E+02 -0.40536610979E+03  0.44343798191E+03  0.17258217604E+03 0.  0.
        -24    2    5    5    0    0  0.40686487095E+02 -0.17304835242E+02 -0.15815772504E+03  0.18256376431E+03  0.79754714562E+02 0.  0.
          5    1    3    3  502    0 -0.15611998962E+02  0.32172362091E+02 -0.31846071047E+02  0.48115045830E+02  0.47000000000E+01 0. -1.
        -11    1    4    4    0    0  0.65958864974E+02 -0.13584489720E+02 -0.30666478892E+03  0.31397197803E+03  0.00000000000E+00 0.  1.
         12    1    4    4    0    0 -0.85244436655E+01  0.93734998026E+01 -0.32119790189E+03  0.32144769531E+03  0.00000000000E+00 0. -1.
         -5    1    5    5    0  501 -0.82508909441E+02 -0.10656536932E+02 -0.24720838474E+03  0.26087421759E+03  0.47000000000E+01 0.  1.
         13    1    6    6    0    0 -0.71445467321E+01 -0.25560271083E+02 -0.13092701022E+02  0.29593763294E+02  0.00000000000E+00 0. -1.
        -14    1    6    6    0    0  0.47831033828E+02  0.82554358408E+01 -0.14506502402E+03  0.15297000102E+03  0.00000000000E+00 0.  1.
</event>
<event>
12    1  0.1345781E-002  0.1789234E+03  0.7818608E-02  0.1168849E+00
         -2   -1    0    0    0  501 -0.00000000000E+00  0.00000000000E+00  0.29551439937E+02  0.29551439937E+02  0.00000000000E+00 0. -1.
          2   -1    0    0  502    0  0.00000000000E+00 -0.00000000000E+00 -0.11198390431E+04  0.11198390431E+04  0.00000000000E+00 0.  1.
          6    2    1    2  502    0  0.45176807419E+01  0.53280549010E+02 -0.43953693576E+03  0.47432439642E+03  0.17009317681E+03 0.  0.
         24    2    3    3    0    0 -0.22661655320E+02  0.94710765278E+02 -0.27587359744E+03  0.30326020543E+03  0.79855060901E+02 0.  0.
         -6    2    1    2    0  501 -0.45176807419E+01 -0.53280549010E+02 -0.65075066742E+03  0.67506608663E+03  0.17140176147E+03 0.  0.
        -24    2    5    5    0    0  0.52416786017E+02 -0.20593359921E+02 -0.52013182617E+03  0.52880140352E+03  0.76955843485E+02 0.  0.
          5    1    3    3  502    0  0.27179336062E+02 -0.41430216268E+02 -0.16366333831E+03  0.17106419098E+03  0.47000000000E+01 0. -1.
        -11    1    4    4    0    0  0.26779326114E+01 -0.12837527608E+02 -0.51670845832E+02  0.53309002496E+02  0.00000000000E+00 0.  1.
         12    1    4    4    0    0 -0.25339587931E+02  0.10754829289E+03 -0.22420275161E+03  0.24995120294E+03  0.00000000000E+00 0. -1.
         -5    1    5    5    0  501 -0.56934466759E+02 -0.32687189089E+02 -0.13061884125E+03  0.14626468311E+03  0.47000000000E+01 0.  1.
         11    1    6    6    0    0  0.29309156437E+02  0.28183387431E+02 -0.19177453207E+03  0.19603775435E+03  0.00000000000E+00 0. -1.
        -12    1    6    6    0    0  0.23107629580E+02 -0.48776747351E+02 -0.32835729409E+03  0.33276364917E+03  0.00000000000E+00 0.  1.
</event>
<event>
12    1  0.1345781E-002  0.2416069E+03  0.7818608E-02  0.1118727E+00
         -2   -1    0    0    0  501 -0.00000000000E+00  0.00000000000E+00  0.37195618236E+03  0.37195618236E+03  0.00000000000E+00 0. -1.
          2   -1    0    0  502    0  0.00000000000E+00 -0.00000000000E+00 -0.16341827106E+03  0.16341827106E+03  0.00000000000E+00 0.  1.
          6    2    1    2  502    0  0.16062234199E+03  0.57436105474E+02  0.51232904909E+02  0.24760981017E+03  0.17200978050E+03 0.  0.
         24    2    3    3    0    0  0.18720931657E+03  0.60411905201E+02  0.49025201615E+02  0.22035753402E+03  0.86354188715E+02 0.  0.
         -6    2    1    2    0  501 -0.16062234199E+03 -0.57436105474E+02  0.15730500640E+03  0.28776464325E+03  0.17019160352E+03 0.  0.
        -24    2    5    5    0    0 -0.98544987526E+02 -0.51793973105E+02  0.22873613237E+02  0.13951039858E+03  0.80908707279E+02 0.  0.
          5    1    3    3  502    0 -0.26586974579E+02 -0.29757997269E+01  0.22077032936E+01  0.27252276145E+02  0.47000000000E+01 0. -1.
        -11    1    4    4    0    0  0.66562474155E+02  0.15109180781E+02 -0.23855985163E+02  0.72304621827E+02  0.00000000000E+00 0.  1.
         12    1    4    4    0    0  0.12064684241E+03  0.45302724419E+02  0.72881186778E+02  0.14805291220E+03  0.00000000000E+00 0. -1.
         -5    1    5    5    0  501 -0.62077354461E+02 -0.56421323688E+01  0.13443139316E+03  0.14825424467E+03  0.47000000000E+01 0.  1.
         13    1    6    6    0    0 -0.85982457576E+02 -0.88737081517E+01  0.34871305585E+02  0.93208012855E+02  0.00000000000E+00 0. -1.
        -14    1    6    6    0    0 -0.12562529950E+02 -0.42920264954E+02 -0.11997692348E+02  0.46302385728E+02  0.00000000000E+00 0.  1.
</event>
<event>
12    1  0.1345781E-002  0.2463734E+03  0.7818608E-02  0.1115618E+00
          1   -1    0    0  502    0  0.00000000000E+00  0.00000000000E+00  0.47256936547E+03  0.47256936547E+03  0.00000000000E+00 0.  1.
         -1   -1    0    0    0  501 -0.00000000000E+00 -0.00000000000E+00 -0.14998690367E+03  0.14998690367E+03  0.00000000000E+00 0. -1.
          6    2    1    2  502    0  0.16228559045E+03  0.70505402685E+02  0.43640832601E+02  0.25075639556E+03  0.17224001558E+03 0.  0.
         24    2    3    3    0    0  0.15290155180E+03  0.74320072569E+02 -0.11222471405E+02  0.19476814666E+03  0.94373350906E+02 0.  0.
         -6    2    1    2    0  501 -0.16228559045E+03 -0.70505402685E+02  0.27894162920E+03  0.37179987358E+03  0.17064316223E+03 0.  0.
        -24    2    5    5    0    0 -0.14856437242E+02 -0.13605681841E+02  0.13489435699E+03  0.15791990705E+03  0.79601389380E+02 0.  0.
          5    1    3    3  502    0  0.93840386508E+01 -0.38146698838E+01  0.54863304006E+02  0.55988248894E+02  0.47000000000E+01 0. -1.
        -13    1    4    4    0    0  0.57691432001E+02  0.13435485816E+02  0.39185120671E+02  0.71023146139E+02  0.00000000000E+00 0.  1.
         14    1    4    4    0    0  0.95210119798E+02  0.60884586752E+02 -0.50407592077E+02  0.12374500053E+03  0.00000000000E+00 0. -1.
         -5    1    5    5    0  501 -0.14742915321E+03 -0.56899720844E+02  0.14404727222E+03  0.21387996653E+03  0.47000000000E+01 0.  1.
         11    1    6    6    0    0 -0.19861352748E+02  0.30614452326E+02  0.48046419705E+02  0.60333874985E+02  0.00000000000E+00 0. -1.
        -12    1    6    6    0    0  0.50049155062E+01 -0.44220134167E+02  0.86847937281E+02  0.97586032069E+02  0.00000000000E+00 0.  1.
</event>
<event>
12    1  0.1345781E-002  0.2407257E+03  0.7818608E-02  0.1119310E+00
         -1   -1    0    0    0  501 -0.00000000000E+00  0.00000000000E+00  0.56470874573E+02  0.56470874573E+02  0.00000000000E+00 0.  1.
          1   -1    0    0  502    0  0.00000000000E+00 -0.00000000000E+00 -0.10618997422E+04  0.10618997422E+04  0.00000000000E+00 0. -1.
          6    2    1    2  502    0 -0.96164888210E+02  0.13612548204E+03 -0.60655088349E+03  0.65280843051E+03  0.17457674556E+03 0.  0.
         24    2    3    3    0    0 -0.66175670761E+02  0.11469009747E+03 -0.59380788566E+03  0.61352353686E+03  0.79185146080E+02 0.  0.
         -6    2    1    2    0  501  0.96164888210E+02 -0.13612548204E+03 -0.39887798414E+03  0.46556218627E+03  0.17281976296E+03 0.  0.
        -24    2    5    5    0    0  0.10907125254E+03 -0.37849705317E+02 -0.23741075224E+03  0.27604052654E+03  0.80655865816E+02 0.  0.
          5    1    3    3  502    0 -0.29989217449E+02  0.21435384569E+02 -0.12742997838E+02  0.39284893645E+02  0.47000000000E+01 0. -1.
        -11    1    4    4    0    0 -0.51867678347E+02  0.54222955202E+02 -0.17905489443E+03  0.19414180423E+03  0.00000000000E+00 0.  1.
         12    1    4    4    0    0 -0.14307992414E+02  0.60467142267E+02 -0.41475299122E+03  0.41938173264E+03  0.00000000000E+00 0. -1.
         -5    1    5    5    0  501 -0.12906364327E+02 -0.98275776720E+02 -0.16146723190E+03  0.18952165973E+03  0.47000000000E+01 0.  1.
         11    1    6    6    0    0  0.72888381737E+02 -0.93244625237E+01 -0.66763457401E+02  0.99282531383E+02  0.00000000000E+00 0. -1.
        -12    1    6    6    0    0  0.36182870799E+02 -0.28525242794E+02 -0.17064729484E+03  0.17675799516E+03  0.00000000000E+00 0.  1.
</event>
<event>
12    1  0.1345781E-002  0.1718858E+03  0.7818608E-02  0.1175895E+00
         -1   -1    0    0    0  501 -0.00000000000E+00  0.00000000000E+00  0.10476141279E+03  0.10476141279E+03  0.00000000000E+00 0. -1.
          1   -1    0    0  502    0  0.00000000000E+00 -0.00000000000E+00 -0.30968405943E+03  0.30968405943E+03  0.00000000000E+00 0.  1.
          6    2    1    2  502    0  0.24133692899E+01 -0.64498977720E+01 -0.16457569050E+03  0.23820959909E+03  0.17207913780E+03 0.  0.
         24    2    3    3    0    0  0.60909632644E+02 -0.19304366186E+01 -0.59071313139E+02  0.11739775366E+03  0.81111667431E+02 0.  0.
         -6    2    1    2    0  501 -0.24133692899E+01  0.64498977720E+01 -0.40346956136E+02  0.17623587312E+03  0.17141697866E+03 0.  0.
        -24    2    5    5    0    0 -0.61725100780E+02 -0.89492070155E+01  0.14540561649E+02  0.93835973064E+02  0.68583420265E+02 0.  0.
          5    1    3    3  502    0 -0.58496263354E+02 -0.45194611535E+01 -0.10550437736E+03  0.12081184544E+03  0.47000000000E+01 0. -1.
        -13    1    4    4    0    0 -0.31353333101E+00 -0.23516126931E+02 -0.45292629702E+02  0.51034584689E+02  0.00000000000E+00 0.  1.
         14    1    4    4    0    0  0.61223165975E+02  0.21585690313E+02 -0.13778683437E+02  0.66363168969E+02  0.00000000000E+00 0. -1.
         -5    1    5    5    0  501  0.59311731490E+02  0.15399104788E+02 -0.54887517786E+02  0.82399900056E+02  0.47000000000E+01 0.  1.
         11    1    6    6    0    0 -0.72845469040E+01 -0.30268219349E+02 -0.63058671187E+01  0.31764660966E+02  0.00000000000E+00 0. -1.
        -12    1    6    6    0    0 -0.54440553876E+02  0.21319012333E+02  0.20846428768E+02  0.62071312098E+02  0.00000000000E+00 0.  1.
</event>
<event>
12    1  0.1345781E-002  0.1916742E+03  0.7818608E-02  0.1156960E+00
          2   -1    0    0  502    0  0.00000000000E+00  0.00000000000E+00  0.10296201432E+04  0.10296201432E+04  0.00000000000E+00 0. -1.
         -2   -1    0    0    0  501 -0.00000000000E+00 -0.00000000000E+00 -0.35731155067E+02  0.35731155067E+02  0.00000000000E+00 0.  1.
          6    2    1    2  502    0 -0.27236572002E+02 -0.73350040740E+02  0.47139068008E+03  0.50778526539E+03  0.17179826296E+03 0.  0.
         24    2    3    3    0    0 -0.23548619070E+02 -0.95209246034E+02  0.20945407291E+03  0.24487025626E+03  0.80443121220E+02 0.  0.
         -6    2    1    2    0  501  0.27236572002E+02  0.73350040740E+02  0.52249830801E+03  0.55756603283E+03  0.17819466816E+03 0.  0.
        -24    2    5    5    0    0 -0.25566042742E+02 -0.18347711913E+02  0.14863804308E+03  0.16899148186E+03  0.73990485995E+02 0.  0.
          5    1    3    3  502    0 -0.36879529320E+01  0.21859205294E+02  0.26193660717E+03  0.26291500913E+03  0.47000000000E+01 0. -1.
        -13    1    4    4    0    0 -0.35734838500E+02 -0.38750136848E+02  0.40972322282E+02  0.66762886258E+02  0.00000000000E+00 0.  1.
         14    1    4    4    0    0  0.12186219430E+02 -0.56459109186E+02  0.16848175063E+03  0.17810737000E+03  0.00000000000E+00 0. -1.
         -5    1    5    5    0  501  0.52802614744E+02  0.91697752653E+02  0.37386026493E+03  0.38857455097E+03  0.47000000000E+01 0.  1.
         11    1    6    6    0    0 -0.39761405983E+02  0.10336554986E+02  0.11693877323E+03  0.12394551407E+03  0.00000000000E+00 0. -1.
        -12    1    6    6    0    0  0.14195363241E+02 -0.28684266898E+02  0.31699269851E+02  0.45045967790E+02  0.00000000000E+00 0.  1.
</event>
<event>
12    1  0.1345781E-002  0.1787467E+03  0.7818608E-02  0.1169022E+00
         -2   -1    0    0    0  501 -0.00000000000E+00  0.00000000000E+00  0.67549600956E+02  0.67549600956E+02  0.00000000000E+00 0. -1.
          2   -1    0    0  502    0  0.00000000000E+00 -0.00000000000E+00 -0.48434689569E+03  0.48434689569E+03  0.00000000000E+00 0.  1.
          6    2    1    2  502    0  0.59396979448E+02 -0.19982534572E+02 -0.16277980688E+03  0.23941552044E+03  0.16399763121E+03 0.  0.
         24    2    3    3    0    0  0.56613014334E+02  0.34231299690E+02 -0.52018215332E+02  0.11597682938E+03  0.79799216518E+02 0.  0.
         -6    2    1    2    0  501 -0.59396979448E+02  0.19982534572E+02 -0.25401748786E+03  0.31248097621E+03  0.17085717281E+03 0.  0.
        -24    2    5    5    0    0 -0.16543868466E+02  0.75645796576E+02 -0.14463169009E+03  0.18239588632E+03  0.79711651887E+02 0.  0.
          5    1    3    3  502    0  0.27839651137E+01 -0.54213834262E+02 -0.11076159155E+03  0.12343869105E+03  0.47000000000E+01 0. -1.
        -11    1    4    4    0    0  0.55755932979E+02 -0.83078229145E+01 -0.46494999845E+02  0.73072080814E+02  0.00000000000E+00 0.  1.
         12    1    4    4    0    0  0.85708135537E+00  0.42539122605E+02 -0.55232154871E+01  0.42904748569E+02  0.00000000000E+00 0. -1.
         -5    1    5    5    0  501 -0.42853110982E+02 -0.55663262004E+02 -0.10938579777E+03  0.13008508989E+03  0.47000000000E+01 0.  1.
         13    1    6    6    0    0 -0.11068885871E+02 -0.13314175909E+02 -0.75549000995E+01  0.18890845139E+02  0.00000000000E+00 0. -1.
        -14    1    6    6    0    0 -0.54749825952E+01  0.88959972485E+02 -0.13707678999E+03  0.16350504119E+03  0.00000000000E+00 0.  1.
</event>
<event>
12    1  0.1345781E-002  0.2543933E+03  0.7818608E-02  0.1110559E+00
          1   -1    0    0  502    0  0.00000000000E+00  0.00000000000E+00  0.15557176002E+04  0.15557176002E+04  0.00000000000E+00 0. -1.
         -1   -1    0    0    0  501 -0.00000000000E+00 -0.00000000000E+00 -0.41994290825E+02  0.41994290825E+02  0.00000000000E+00 0.  1.
          6    2    1    2  502    0  0.92018207593E+02 -0.16253404753E+03  0.67729479449E+03  0.72324780279E+03  0.17168132821E+03 0.  0.
         24    2    3    3    0    0 -0.51627375921E+01 -0.11775039287E+03  0.44946347763E+03  0.47149611804E+03  0.79996016905E+02 0.  0.
         -6    2    1    2    0  501 -0.92018207593E+02  0.16253404753E+03  0.83642851485E+03  0.87446408820E+03  0.17375302578E+03 0.  0.
        -24    2    5    5    0    0 -0.12502438344E+03  0.14470635079E+03  0.77594803885E+03  0.80313939127E+03  0.79790340294E+02 0.  0.
          5    1    3    3  502    0  0.97180945185E+02 -0.44783654661E+02  0.22783131687E+03  0.25175168475E+03  0.47000000000E+01 0. -1.
        -13    1    4    4    0    0  0.98395270480E+01  0.67385891853E+01  0.14261761115E+02  0.18590930768E+02  0.00000000000E+00 0.  1.
         14    1    4    4    0    0 -0.15002264640E+02 -0.12448898206E+03  0.43520171651E+03  0.45290518727E+03  0.00000000000E+00 0. -1.
         -5    1    5    5    0  501  0.33006175846E+02  0.17827696741E+02  0.60480476004E+02  0.71324696934E+02  0.47000000000E+01 0.  1.
         13    1    6    6    0    0 -0.91174390850E+02  0.71502957627E+02  0.57599931545E+03  0.58753778934E+03  0.00000000000E+00 0. -1.
        -14    1    6    6    0    0 -0.33849992589E+02  0.73203393165E+02  0.19994872340E+03  0.21560160193E+03  0.00000000000E+00 0.  1.
</event>
<event>
12    1  0.1345781E-002  0.1791563E+03  0.7818608E-02  0.1168622E+00
         -2   -1    0    0    0  501 -0.00000000000E+00  0.00000000000E+00  0.17127514134E+03  0.17127514134E+03  0.00000000000E+00 0. -1.
          2   -1    0    0  502    0  0.00000000000E+00 -0.00000000000E+00 -0.19090139706E+03  0.19090139706E+03  0.00000000000E+00 0.  1.
          6    2    1    2  502    0  0.13168606679E+02 -0.39815166223E+02 -0.34368855937E+02  0.18409302539E+03  0.17592715560E+03 0.  0.
         24    2    3    3    0    0 -0.44040608774E+02 -0.36806810702E+02 -0.65139082581E+02  0.11889454855E+03  0.81231133558E+02 0.  0.
         -6    2    1    2    0  501 -0.13168606679E+02  0.39815166223E+02  0.14742600210E+02  0.17808351301E+03  0.17244632116E+03 0.  0.
        -24    2    5    5    0    0 -0.56297591334E+02 -0.77703358014E+01  0.44105628345E+02  0.10731087181E+03  0.79627381275E+02 0.  0.
          5    1    3    3  502    0  0.57209215453E+02 -0.30083555214E+01  0.30770226644E+02  0.65198476848E+02  0.47000000000E+01 0. -1.
        -13    1    4    4    0    0  0.10001128912E+02 -0.43481382655E+02 -0.24104518688E+02  0.50711744579E+02  0.00000000000E+00 0.  1.
         14    1    4    4    0    0 -0.54041737685E+02  0.66745719530E+01 -0.41034563893E+02  0.68182803966E+02  0.00000000000E+00 0. -1.
         -5    1    5    5    0  501  0.43128984655E+02  0.47585502025E+02 -0.29363028135E+02  0.70772641194E+02  0.47000000000E+01 0.  1.
         11    1    6    6    0    0  0.12374542882E+02  0.37860469935E+01  0.34707901605E+02  0.37041893812E+02  0.00000000000E+00 0. -1.
        -12    1    6    6    0    0 -0.68672134216E+02 -0.11556382795E+02  0.93977267395E+01  0.70268977999E+02  0.00000000000E+00 0.  1.
</event>
<event>
12    1  0.1345781E-002  0.2762433E+03  0.7818608E-02  0.1097759E+00
          2   -1    0    0  502    0  0.00000000000E+00  0.00000000000E+00  0.40157047862E+02  0.40157047862E+02  0.00000000000E+00 0. -1.
         -2   -1    0    0    0  501 -0.00000000000E+00 -0.00000000000E+00 -0.19607992126E+04  0.19607992126E+04  0.00000000000E+00 0.  1.
          6    2    1    2  502    0 -0.21163668597E+03  0.45974208045E+02 -0.78466401466E+03  0.83187846314E+03  0.17152389593E+03 0.  0.
         24    2    3    3    0    0 -0.55615905419E+02 -0.13347561236E+02 -0.22420978221E+03  0.24707713539E+03  0.86636009043E+02 0.  0.
         -6    2    1    2    0  501  0.21163668597E+03 -0.45974208045E+02 -0.11359781501E+04  0.11690777974E+04  0.17144335535E+03 0.  0.
        -24    2    5    5    0    0  0.11202634443E+03 -0.15181319290E+02 -0.35465360741E+03  0.38081353129E+03  0.80370330718E+02 0.  0.
          5    1    3    3  502    0 -0.15602078055E+03  0.59321769281E+02 -0.56045423245E+03  0.58480132775E+03  0.47000000000E+01 0. -1.
        -13    1    4    4    0    0 -0.12536316527E+02 -0.47280458904E+02 -0.10989403950E+03  0.12028840735E+03  0.00000000000E+00 0.  1.
         14    1    4    4    0    0 -0.43079588892E+02  0.33932897668E+02 -0.11431574272E+03  0.12678872803E+03  0.00000000000E+00 0. -1.
         -5    1    5    5    0  501  0.99610341544E+02 -0.30792888755E+02 -0.78132454271E+03  0.78826426608E+03  0.47000000000E+01 0.  1.
         11    1    6    6    0    0  0.45631911361E+02  0.22138298582E+02 -0.22319235576E+03  0.22888250974E+03  0.00000000000E+00 0. -1.
        -12    1    6    6    0    0  0.66394433068E+02 -0.37319617871E+02 -0.13146125166E+03  0.15193102155E+03  0.00000000000E+00 0.  1.
</event>
<event>
12    1  0.1345781E-002  0.1793725E+03  0.7818608E-02  0.1168412E+00
          2   -1    0    0  502    0  0.00000000000E+00  0.00000000000E+00  0.10164283540E+04  0.10164283540E+04  0.00000000000E+00 0.  1.
         -2   -1    0    0    0  501 -0.00000000000E+00 -0.00000000000E+00 -0.56392188835E+02  0.56392188835E+02  0.00000000000E+00 0. -1.
          6    2    1    2  502    0  0.44082129671E+02  0.36523446027E+02  0.83596927453E+03  0.85509119592E+03  0.17046738433E+03 0.  0.
         24    2    3    3    0    0  0.11115200090E+02  0.19427063856E+02  0.79597932479E+03  0.80031537270E+03  0.80128969845E+02 0.  0.
         -6    2    1    2    0  501 -0.44082129671E+02 -0.36523446027E+02  0.12406689067E+03  0.21772934695E+03  0.16951778342E+03 0.  0.
        -24    2    5    5    0    0 -0.12091553883E+02 -0.65611691429E+02  0.22008966938E+02  0.10679047749E+03  0.80428301794E+02 0.  0.
          5    1    3    3  502    0  0.32966929581E+02  0.17096382171E+02  0.39989949741E+02  0.54775823222E+02  0.47000000000E+01 0. -1.
        -13    1    4    4    0    0 -0.73800568784E+00 -0.30136692299E+02  0.38718946302E+03  0.38836123023E+03  0.00000000000E+00 0.  1.
         14    1    4    4    0    0  0.11853205778E+02  0.49563756155E+02  0.40878986177E+03  0.41195414247E+03  0.00000000000E+00 0. -1.
         -5    1    5    5    0  501 -0.31990575788E+02  0.29088245402E+02  0.10205792373E+03  0.11093886946E+03  0.47000000000E+01 0.  1.
         11    1    6    6    0    0 -0.35326980276E+02 -0.45560679895E+02 -0.14149414309E+02  0.59363094707E+02  0.00000000000E+00 0. -1.
        -12    1    6    6    0    0  0.23235426393E+02 -0.20051011534E+02  0.36158381247E+02  0.47427382783E+02  0.00000000000E+00 0.  1.
</event>
<event>
12    1  0.1345781E-002  0.2536843E+03  0.7818608E-02  0.1110998E+00
          2   -1    0    0  502    0  0.00000000000E+00  0.00000000000E+00  0.22168188847E+03  0.22168188847E+03  0.00000000000E+00 0.  1.
         -2   -1    0    0    0  501 -0.00000000000E+00 -0.00000000000E+00 -0.29035275507E+03  0.29035275507E+03  0.00000000000E+00 0. -1.
          6    2    1    2  502    0  0.56366251849E+02 -0.17785581509E+03 -0.31157968016E+02  0.25587466202E+03  0.17231128340E+03 0.  0.
         24    2    3    3    0    0  0.23556108111E+02 -0.87577866696E+02 -0.83625670317E+02  0.14632301538E+03  0.78691798361E+02 0.  0.
         -6    2    1    2    0  501 -0.56366251849E+02  0.17785581509E+03 -0.37512898583E+02  0.25615998151E+03  0.17146682845E+03 0.  0.
        -24    2    5    5    0    0  0.27631309231E+02  0.64210479297E+02  0.11161263587E+02  0.10662029889E+03  0.79729790105E+02 0.  0.
          5    1    3    3  502    0  0.32810143738E+02 -0.90277948393E+02  0.52467702300E+02  0.10955164665E+03  0.47000000000E+01 0. -1.
        -13    1    4    4    0    0  0.24011356963E+02 -0.19100053864E+02  0.82151286025E+01  0.31762330815E+02  0.00000000000E+00 0.  1.
         14    1    4    4    0    0 -0.45524885189E+00 -0.68477812831E+02 -0.91840798919E+02  0.11456068456E+03  0.00000000000E+00 0. -1.
         -5    1    5    5    0  501 -0.83997561080E+02  0.11364533579E+03 -0.48674162170E+02  0.14953968262E+03  0.47000000000E+01 0.  1.
         11    1    6    6    0    0 -0.18068843019E+02  0.33404045447E+02 -0.20399209572E+02  0.43109640354E+02  0.00000000000E+00 0. -1.
        -12    1    6    6    0    0  0.45700152250E+02  0.30806433849E+02  0.31560473160E+02  0.63510658540E+02  0.00000000000E+00 0.  1.
</event>
<event>
12    1  0.1345781E-002  0.1870259E+03  0.7818608E-02  0.1161171E+00
         -1   -1    0    0    0  501 -0.00000000000E+00  0.00000000000E+00  0.27220928500E+03  0.27220928500E+03  0.00000000000E+00 0.  1.
          1   -1    0    0  502    0  0.00000000000E+00 -0.00000000000E+00 -0.13874827968E+03  0.13874827968E+03  0.00000000000E+00 0. -1.
          6    2    1    2  502    0  0.57050789369E+02  0.31927486157E+02  0.12567664086E+02  0.19193940471E+03  0.18002397607E+03 0.  0.
         24    2    3    3    0    0 -0.20647111489E+02  0.62259957534E+02  0.27773429099E+02  0.10702575500E+03  0.79878303345E+02 0.  0.
         -6    2    1    2    0  501 -0.57050789369E+02 -0.31927486157E+02  0.12089334123E+03  0.21901815997E+03  0.17052740982E+03 0.  0.
        -24    2    5    5    0    0  0.63186314118E+01  0.26428250744E+02  0.24660792988E+01  0.72497916012E+02  0.67167616742E+02 0.  0.
          5    1    3    3  502    0  0.77697900857E+02 -0.30332471377E+02 -0.15205765013E+02  0.84913649710E+02  0.47000000000E+01 0. -1.
        -13    1    4    4    0    0 -0.47371743263E+02  0.19182968044E+02  0.23196118300E+02  0.56126003127E+02  0.00000000000E+00 0.  1.
         14    1    4    4    0    0  0.26724631775E+02  0.43076989490E+02  0.45773107989E+01  0.50899751878E+02  0.00000000000E+00 0. -1.
         -5    1    5    5    0  501 -0.63369420780E+02 -0.58355736900E+02  0.11842726194E+03  0.14652024396E+03  0.47000000000E+01 0.  1.
         13    1    6    6    0    0 -0.92723228872E+00 -0.22708231680E+02  0.21548379712E+01  0.22829079536E+02  0.00000000000E+00 0. -1.
        -14    1    6    6    0    0  0.72458637005E+01  0.49136482424E+02  0.31124132760E+00  0.49668836477E+02  0.00000000000E+00 0.  1.
</event>
<event>
12    1  0.1345781E-002  0.2883816E+03  0.7818608E-02  0.1091197E+00
          2   -1    0    0  502    0  0.00000000000E+00  0.00000000000E+00  0.50736637952E+03  0.50736637952E+03  0.00000000000E+00 0.  1.
         -2   -1    0    0    0  501 -0.00000000000E+00 -0.00000000000E+00 -0.26713398871E+03  0.26713398871E+03  0.00000000000E+00 0. -1.
          6    2    1    2  502    0  0.42410621701E+02  0.22853208034E+03 -0.12091683120E+03  0.31155874127E+03  0.16858943210E+03 0.  0.
         24    2    3    3    0    0  0.23719820760E+02  0.81774059298E+02  0.58629281914E+01  0.11666784827E+03  0.79544869245E+02 0.  0.
         -6    2    1    2    0  501 -0.42410621701E+02 -0.22853208034E+03  0.36114922201E+03  0.46294162696E+03  0.17280224777E+03 0.  0.
        -24    2    5    5    0    0  0.22991830429E+02 -0.16294336410E+03  0.24086234632E+03  0.31105224976E+03  0.10797994274E+03 0.  0.
          5    1    3    3  502    0  0.18690800941E+02  0.14675802104E+03 -0.12677975939E+03  0.19489089299E+03  0.47000000000E+01 0. -1.
        -11    1    4    4    0    0 -0.16624743749E+02 -0.12677899675E+01  0.16835737500E+02  0.23694544800E+02  0.00000000000E+00 0.  1.
         12    1    4    4    0    0  0.40344564509E+02  0.83041849265E+02 -0.10972809309E+02  0.92973303474E+02  0.00000000000E+00 0. -1.
         -5    1    5    5    0  501 -0.65402452130E+02 -0.65588716239E+02  0.12028687569E+03  0.15188937720E+03  0.47000000000E+01 0.  1.
         11    1    6    6    0    0  0.20657532425E+01 -0.15981759996E+03  0.15508701158E+03  0.22270589071E+03  0.00000000000E+00 0. -1.
        -12    1    6    6    0    0  0.20926077187E+02 -0.31257641369E+01  0.85775334738E+02  0.88346359049E+02  0.00000000000E+00 0.  1.
</event>
<event>
12    1  0.1345781E-002  0.1795461E+03  0.7818608E-02  0.1168243E+00
          2   -1    0    0  502    0  0.00000000000E+00  0.00000000000E+00  0.14133315547E+03  0.14133315547E+03  0.00000000000E+00 0.  1.
         -2   -1    0    0    0  501 -0.00000000000E+00 -0.00000000000E+00 -0.39885312125E+03  0.39885312125E+03  0.00000000000E+00 0. -1.
          6    2    1    2  502    0  0.29279399689E+02  0.35658180452E+02  0.48323340173E+02  0.18508920637E+03  0.17260961743E+03 0.  0.
         24    2    3    3    0    0 -0.38206662960E+02  0.59039877504E+02  0.38746241331E+02  0.11287505795E+03  0.79335056947E+02 0.  0.
         -6    2    1    2    0  501 -0.29279399689E+02 -0.35658180452E+02 -0.30584330595E+03  0.35509707036E+03  0.17442767126E+03 0.  0.
        -24    2    5    5    0    0  0.15355682782E+02 -0.84103880376E+02 -0.19890350165E+03  0.22940901137E+03  0.75872470903E+02 0.  0.
          5    1    3    3  502    0  0.67486062649E+02 -0.23381697052E+02  0.95770988420E+01  0.72214148414E+02  0.47000000000E+01 0. -1.
        -13    1    4    4    0    0 -0.39490127054E+02  0.17894452565E+02  0.53754027423E+02  0.69059228431E+02  0.00000000000E+00 0.  1.
         14    1    4    4    0    0  0.12834640939E+01  0.41145424939E+02 -0.15007786092E+02  0.43815829524E+02  0.00000000000E+00 0. -1.
         -5    1    5    5    0  501 -0.44635082471E+02  0.48445699924E+02 -0.10693980429E+03  0.12568805898E+03  0.47000000000E+01 0.  1.
         11    1    6    6    0    0 -0.27497864176E+02 -0.55132918317E+02 -0.93130976616E+02  0.11166534835E+03  0.00000000000E+00 0. -1.
        -12    1    6    6    0    0  0.42853546958E+02 -0.28970962059E+02 -0.10577252504E+03  0.11774366302E+03  0.00000000000E+00 0.  1.
</event>
<event>
12    1  0.1345781E-002  0.2053161E+03  0.7818608E-02  0.1145330E+00
         -2   -1    0    0    0  501 -0.00000000000E+00  0.00000000000E+00  0.65292527688E+02  0.65292527688E+02  0.00000000000E+00 0.  1.
          2   -1    0    0  502    0  0.00000000000E+00 -0.00000000000E+00 -0.65273618723E+03  0.65273618723E+03  0.00000000000E+00 0. -1.
          6    2    1    2  502    0  0.91590762336E+02 -0.55316184533E+02 -0.25396562793E+03  0.32551411891E+03  0.17324016112E+03 0.  0.
         24    2    3    3    0    0  0.11477489749E+03 -0.57633923086E+02 -0.13756900051E+03  0.20671537772E+03  0.85504802782E+02 0.  0.
         -6    2    1    2    0  501 -0.91590762336E+02  0.55316184533E+02 -0.33347803161E+03  0.39251459601E+03  0.17723250969E+03 0.  0.
        -24    2    5    5    0    0  0.13907551878E+02  0.46523663618E+02 -0.20991409933E+03  0.22973456625E+03  0.79725595369E+02 0.  0.
          5    1    3    3  502    0 -0.23184135157E+02  0.23177385521E+01 -0.11639662742E+03  0.11879874119E+03  0.47000000000E+01 0. -1.
        -11    1    4    4    0    0  0.11200612752E+03 -0.60778195477E+02 -0.14810151452E+03  0.19538019411E+03  0.00000000000E+00 0.  1.
         12    1    4    4    0    0  0.27687699726E+01  0.31442723911E+01  0.10532514010E+02  0.11335183607E+02  0.00000000000E+00 0. -1.
         -5    1    5    5    0  501 -0.10549831421E+03  0.87925209150E+01 -0.12356393228E+03  0.16278002976E+03  0.47000000000E+01 0.  1.
         11    1    6    6    0    0  0.14698470439E+02 -0.13943106493E+02 -0.11789997863E+03  0.11962800764E+03  0.00000000000E+00 0. -1.
        -12    1    6    6    0    0 -0.79091856131E+00  0.60466770111E+02 -0.92014120699E+02  0.11010655861E+03  0.00000000000E+00 0.  1.
</event>
<event>
12    1  0.1345781E-002  0.1888631E+03  0.7818608E-02  0.1159491E+00
         -1   -1    0    0    0  501 -0.00000000000E+00  0.00000000000E+00  0.18069225353E+03  0.18069225353E+03  0.00000000000E+00 0.  1.
          1   -1    0    0  502    0  0.00000000000E+00 -0.00000000000E+00 -0.19748407341E+03  0.19748407341E+03  0.00000000000E+00 0. -1.
          6    2    1    2  502    0  0.12522794285E+02  0.75102118701E+02 -0.12004111731E+02  0.19066664445E+03  0.17439186333E+03 0.  0.
         24    2    3    3    0    0  0.27603632732E+02 -0.25498737814E+02 -0.24252398580E+01  0.88383660495E+02  0.79960261906E+02 0.  0.
         -6    2    1    2    0  501 -0.12522794285E+02 -0.75102118701E+02 -0.47877081505E+01  0.18750968250E+03  0.17128867526E+03 0.  0.
        -24    2    5    5    0    0  0.30108151090E+02 -0.10487327723E+03 -0.20877666917E+00  0.13509998876E+03  0.79668427473E+02 0.  0.
          5    1    3    3  502    0 -0.15080838447E+02  0.10060085651E+03 -0.95788718726E+01  0.10228298395E+03  0.47000000000E+01 0. -1.
        -13    1    4    4    0    0  0.33410833791E+02  0.19132864891E+02  0.13260393418E+02  0.40720859116E+02  0.00000000000E+00 0.  1.
         14    1    4    4    0    0 -0.58072010588E+01 -0.44631602704E+02 -0.15685633276E+02  0.47662801380E+02  0.00000000000E+00 0. -1.
         -5    1    5    5    0  501 -0.42630945375E+02  0.29771158534E+02 -0.45789314813E+01  0.52409693736E+02  0.47000000000E+01 0.  1.
         13    1    6    6    0    0  0.70687581872E+01 -0.29132269832E+02 -0.37150958694E+02  0.47737304278E+02  0.00000000000E+00 0. -1.
        -14    1    6    6    0    0  0.23039392903E+02 -0.75741007403E+02  0.36942182024E+02  0.87362684485E+02  0.00000000000E+00 0.  1.
</event>
<event>
12    1  0.1345781E-002  0.2130738E+03  0.7818608E-02  0.1139155E+00
         -2   -1    0    0    0  501 -0.00000000000E+00  0.00000000000E+00  0.28896051456E+02  0.28896051456E+02  0.00000000000E+00 0. -1.
          2   -1    0    0  502    0  0.00000000000E+00 -0.00000000000E+00 -0.15819354825E+04  0.15819354825E+04  0.00000000000E+00 0.  1.
          6    2    1    2  502    0  0.69843470108E+02 -0.10437767410E+03 -0.71188640065E+03  0.74323280118E+03  0.17274240982E+03 0.  0.
         24    2    3    3    0    0  0.42331180484E+02 -0.88467679840E+02 -0.69621059641E+03  0.70748542595E+03  0.78790698382E+02 0.  0.
         -6    2    1    2    0  501 -0.69843470108E+02  0.10437767410E+03 -0.84115303038E+03  0.86759873276E+03  0.17151189874E+03 0.  0.
        -24    2    5    5    0    0 -0.86241717606E+02  0.30661055020E+02 -0.68299368964E+03  0.69227186799E+03  0.66198375862E+02 0.  0.
          5    1    3    3  502    0  0.27512289624E+02 -0.15909994255E+02 -0.15675804237E+02  0.35747375232E+02  0.47000000000E+01 0. -1.
        -11    1    4    4    0    0  0.65881838870E+01 -0.62322972280E+01 -0.34138173616E+03  0.34150217492E+03  0.00000000000E+00 0.  1.
         12    1    4    4    0    0  0.35742996597E+02 -0.82235382612E+02 -0.35482886026E+03  0.36598325102E+03  0.00000000000E+00 0. -1.
         -5    1    5    5    0  501  0.16398247499E+02  0.73716619075E+02 -0.15815934073E+03  0.17532686477E+03  0.47000000000E+01 0.  1.
         11    1    6    6    0    0 -0.20392118594E+02  0.19680614110E+01 -0.39232488205E+03  0.39285942122E+03  0.00000000000E+00 0. -1.
        -12    1    6    6    0    0 -0.65849599013E+02  0.28692993609E+02 -0.29066880759E+03  0.29941244677E+03  0.00000000000E+00 0.  1.
</event>
<event>
12    1  0.1345781E-002  0.2238173E+03  0.7818608E-02  0.1131069E+00
         -2   -1    0    0    0  501 -0.00000000000E+00  0.00000000000E+00  0.43166610189E+03  0.43166610189E+03  0.00000000000E+00 0. -1.
          2   -1    0    0  502    0  0.00000000000E+00 -0.00000000000E+00 -0.11604908395E+03  0.11604908395E+03  0.00000000000E+00 0.  1.
          6    2    1    2  502    0  0.20139343403E+02 -0.14155824083E+03  0.15821843388E+03  0.27390003317E+03  0.17188317733E+03 0.  0.
         24    2    3    3    0    0 -0.53415454057E+02 -0.76527571761E+02  0.64417904685E+02  0.13803272501E+03  0.78699979396E+02 0.  0.
         -6    2    1    2    0  501 -0.20139343403E+02  0.14155824083E+03  0.15739858406E+03  0.27381515267E+03  0.17249955034E+03 0.  0.
        -24    2    5    5    0    0  0.29208591154E+00  0.16511010965E+03  0.15849731683E+03  0.24226470033E+03  0.79431429303E+02 0.  0.
          5    1    3    3  502    0  0.73554797460E+02 -0.65030669068E+02  0.93800529198E+02  0.13586730816E+03  0.47000000000E+01 0. -1.
        -11    1    4    4    0    0  0.20666287906E+02 -0.21280013051E+02  0.15370966329E+02  0.33409594687E+02  0.00000000000E+00 0.  1.
         12    1    4    4    0    0 -0.74081741963E+02 -0.55247558709E+02  0.49046938356E+02  0.10462313032E+03  0.00000000000E+00 0. -1.
         -5    1    5    5    0  501 -0.20431429314E+02 -0.23551868825E+02 -0.10987327706E+01  0.31550452337E+02  0.47000000000E+01 0.  1.
         13    1    6    6    0    0  0.31558060457E+02  0.34515058848E+02  0.25512445249E+02  0.53273683275E+02  0.00000000000E+00 0. -1.
        -14    1    6    6    0    0 -0.31265974546E+02  0.13059505081E+03  0.13298487158E+03  0.18899101706E+03  0.00000000000E+00 0.  1.
</event>
<event>
12    1  0.1345781E-002  0.1893630E+03  0.7818608E-02  0.1159037E+00
          2   -1    0    0  502    0  0.00000000000E+00  0.00000000000E+00  0.11405681582E+03  0.11405681582E+03  0.00000000000E+00 0.  1.
         -2   -1    0    0    0  501 -0.00000000000E+00 -0.00000000000E+00 -0.31478506715E+03  0.31478506715E+03  0.00000000000E+00 0. -1.
          6    2    1    2  502    0 -0.29621370061E+02 -0.74007956532E+02 -0.10792078550E+03  0.21789554771E+03  0.17168858603E+03 0.  0.
         24    2    3    3    0    0 -0.77961990016E+00 -0.97290023253E+02 -0.26681851127E+02  0.12847655844E+03  0.79550917393E+02 0.  0.
         -6    2    1    2    0  501  0.29621370061E+02  0.74007956532E+02 -0.92807465830E+02  0.21094633525E+03  0.17184448623E+03 0.  0.
        -24    2    5    5    0    0 -0.29381674247E+01 -0.81148098035E+01 -0.92854925692E+02  0.12247959300E+03  0.79402333159E+02 0.  0.
          5    1    3    3  502    0 -0.28841750161E+02  0.23282066722E+02 -0.81238934374E+02  0.89418989266E+02  0.47000000000E+01 0. -1.
        -13    1    4    4    0    0 -0.13183464372E+02 -0.10467971984E+03 -0.35782709845E+02  0.11140937933E+03  0.00000000000E+00 0.  1.
         14    1    4    4    0    0  0.12403844471E+02  0.73896965905E+01  0.91008587187E+01  0.17067179110E+02  0.00000000000E+00 0. -1.
         -5    1    5    5    0  501  0.32559537486E+02  0.82122766335E+02  0.47459861625E-01  0.88466742250E+02  0.47000000000E+01 0.  1.
         13    1    6    6    0    0  0.27330209585E+02 -0.76682975125E+01 -0.87174552951E+02  0.91679582378E+02  0.00000000000E+00 0. -1.
        -14    1    6    6    0    0 -0.30268377010E+02 -0.44651229103E+00 -0.56803727404E+01  0.30800010625E+02  0.00000000000E+00 0.  1.
</event>
<event>
12    1  0.1345781E-002  0.2023612E+03  0.7818608E-02  0.1147762E+00
          1   -1    0    0  502    0  0.00000000000E+00  0.00000000000E+00  0.13651119792E+04  0.13651119792E+04  0.00000000000E+00 0.  1.
         -1   -1    0    0    0  501 -0.00000000000E+00 -0.00000000000E+00 -0.30549131654E+02  0.30549131654E+02  0.00000000000E+00 0. -1.
          6    2    1    2  502    0 -0.75075517236E+02  0.78952849267E+02  0.76317453855E+03  0.78971873016E+03  0.17131961588E+03 0.  0.
         24    2    3    3    0    0 -0.98665645443E+02  0.10132851241E+03  0.53255476997E+03  0.55677081300E+03  0.79854731719E+02 0.  0.
         -6    2    1    2    0  501  0.75075517236E+02 -0.78952849267E+02  0.57138830900E+03  0.60594238070E+03  0.16974004644E+03 0.  0.
        -24    2    5    5    0    0  0.77547178601E+02 -0.43015832610E+02  0.55284286531E+03  0.56515510624E+03  0.76818836351E+02 0.  0.
          5    1    3    3  502    0  0.23590128207E+02 -0.22375663138E+02  0.23061976858E+03  0.23294791716E+03  0.47000000000E+01 0. -1.
        -11    1    4    4    0    0 -0.72121395259E+02  0.78283063353E+02  0.49070432085E+03  0.50211598676E+03  0.00000000000E+00 0.  1.
         12    1    4    4    0    0 -0.26544250184E+02  0.23045449052E+02  0.41850449120E+02  0.54654826241E+02  0.00000000000E+00 0. -1.
         -5    1    5    5    0  501 -0.24716613650E+01 -0.35937016657E+02  0.18545443694E+02  0.40787274460E+02  0.47000000000E+01 0.  1.
         11    1    6    6    0    0  0.57507683765E+02 -0.59009343662E+00  0.17036962212E+03  0.17981459909E+03  0.00000000000E+00 0. -1.
        -12    1    6    6    0    0  0.20039494836E+02 -0.42425739174E+02  0.38247324318E+03  0.38534050715E+03  0.00000000000E+00 0.  1.
</event>
<event>
12    1  0.1345781E-002  0.2521589E+03  0.7818608E-02  0.1111948E+00
         -2   -1    0    0    0  501 -0.00000000000E+00  0.00000000000E+00  0.10281722198E+03  0.10281722198E+03  0.00000000000E+00 0.  1.
          2   -1    0    0  502    0  0.00000000000E+00 -0.00000000000E+00 -0.62473668661E+03  0.62473668661E+03  0.00000000000E+00 0. -1.
          6    2    1    2  502    0 -0.83359786471E+02 -0.16515285524E+03 -0.22415443808E+03  0.33722207453E+03  0.17102396277E+03 0.  0.
         24    2    3    3    0    0 -0.10144166846E+03 -0.68122524697E+02 -0.93746158094E+02  0.17360591093E+03  0.80122279560E+02 0.  0.
         -6    2    1    2    0  501  0.83359786471E+02  0.16515285524E+03 -0.29776502654E+03  0.39033183407E+03  0.17167006163E+03 0.  0.
        -24    2    5    5    0    0  0.24239525113E+02  0.16780230524E+03 -0.18705010604E+03  0.26470497185E+03  0.79597812358E+02 0.  0.
          5    1    3    3  502    0  0.18081881985E+02 -0.97030330543E+02 -0.13040827999E+03  0.16361616360E+03  0.47000000000E+01 0. -1.
        -11    1    4    4    0    0 -0.42414370815E+02 -0.20217635545E+01 -0.69978518724E+02  0.81853890942E+02  0.00000000000E+00 0.  1.
         12    1    4    4    0    0 -0.59027297642E+02 -0.66100761143E+02 -0.23767639369E+02  0.91752019987E+02  0.00000000000E+00 0. -1.
         -5    1    5    5    0  501  0.59120261358E+02 -0.26494499971E+01 -0.11071492050E+03  0.12562686222E+03  0.47000000000E+01 0.  1.
         13    1    6    6    0    0  0.49238955084E+02  0.71771272236E+02 -0.73640607006E+02  0.11401109251E+03  0.00000000000E+00 0. -1.
        -14    1    6    6    0    0 -0.24999429971E+02  0.96031033001E+02 -0.11340949903E+03  0.15069387934E+03  0.00000000000E+00 0.  1.
</event>
<event>
12    1  0.1345781E-002  0.1936484E+03  0.7818608E-02  0.1155211E+00
         -1   -1    0    0    0  501 -0.00000000000E+00  0.00000000000E+00  0.64619020605E+02  0.64619020605E+02  0.00000000000E+00 0. -1.
          1   -1    0    0  502    0  0.00000000000E+00 -0.00000000000E+00 -0.88297227784E+03  0.88297227784E+03  0.00000000000E+00 0.  1.
          6    2    1    2  502    0 -0.82664558628E+02  0.37568336651E+02 -0.68582523223E+03  0.71249611803E+03  0.17043960770E+03 0.  0.
         24    2    3    3    0    0 -0.34934052444E+02  0.72525668427E+02 -0.58405448899E+03  0.59468444439E+03  0.77779056913E+02 0.  0.
         -6    2    1    2    0  501  0.82664558628E+02 -0.37568336651E+02 -0.13252802501E+03  0.23509518042E+03  0.17164281887E+03 0.  0.
        -24    2    5    5    0    0  0.12162451677E+02  0.25615967134E+02 -0.13312215730E+02  0.82788573497E+02  0.76633085616E+02 0.  0.
          5    1    3    3  502    0 -0.47730506184E+02 -0.34957331776E+02 -0.10177074324E+03  0.11781167364E+03  0.47000000000E+01 0. -1.
        -11    1    4    4    0    0 -0.35453665049E+02  0.77909043871E+00 -0.28223407804E+03  0.28445323720E+03  0.00000000000E+00 0.  1.
         12    1    4    4    0    0  0.51961260475E+00  0.71746577988E+02 -0.30182041095E+03  0.31023120719E+03  0.00000000000E+00 0. -1.
         -5    1    5    5    0  501  0.70502106951E+02 -0.63184303785E+02 -0.11921580928E+03  0.15230660692E+03  0.47000000000E+01 0.  1.
         13    1    6    6    0    0  0.31349845332E+02  0.39834581049E+01  0.20980247561E+02  0.37932196463E+02  0.00000000000E+00 0. -1.
        -14    1    6    6    0    0 -0.19187393654E+02  0.21632509029E+02 -0.34292463291E+02  0.44856377034E+02  0.00000000000E+00 0.  1.
</event>
<event>
12    1  0.1345781E-002  0.2202554E+03  0.7818608E-02  0.1133693E+00
          1   -1    0    0  502    0  0.00000000000E+00  0.00000000000E+00  0.66552395456E+03  0.66552395456E+03  0.00000000000E+00 0.  1.
         -1   -1    0    0    0  501 -0.00000000000E+00 -0.00000000000E+00 -0.11476140680E+03  0.11476140680E+03  0.00000000000E+00 0. -1.
          6    2    1    2  502    0  0.88602003902E+01 -0.13779053608E+03  0.51064254540E+03  0.55592662008E+03  0.17097912959E+03 0.  0.
         24    2    3    3    0    0 -0.53321191203E+02 -0.60927562134E+02  0.20389710339E+03  0.23360799136E+03  0.80270465291E+02 0.  0.
         -6    2    1    2    0  501 -0.88602003902E+01  0.13779053608E+03  0.40120002361E+02  0.22435874128E+03  0.17222803260E+03 0.  0.
        -24    2    5    5    0    0 -0.21017980612E+01  0.84635215239E+02 -0.44333310809E+02  0.12423074199E+03  0.79374413980E+02 0.  0.
          5    1    3    3  502    0  0.62181391593E+02 -0.76862973946E+02  0.30674544201E+03  0.32231862872E+03  0.47000000000E+01 0. -1.
        -13    1    4    4    0    0 -0.46913989462E+02  0.44853355856E+01  0.10186886765E+03  0.11224217941E+03  0.00000000000E+00 0.  1.
         14    1    4    4    0    0 -0.64072017410E+01 -0.65412897720E+02  0.10202823575E+03  0.12136581196E+03  0.00000000000E+00 0. -1.
         -5    1    5    5    0  501 -0.67584023290E+01  0.53155320841E+02  0.84453313170E+02  0.10012799929E+03  0.47000000000E+01 0.  1.
         11    1    6    6    0    0  0.35674030244E+02  0.61632865315E+02 -0.33481167089E+02  0.78690755940E+02  0.00000000000E+00 0. -1.
        -12    1    6    6    0    0 -0.37775828305E+02  0.23002349924E+02 -0.10852143720E+02  0.45539986050E+02  0.00000000000E+00 0.  1.
</event>
<event>
12    1  0.1345781E-002  0.1850430E+03  0.7818608E-02  0.1163010E+00
         -2   -1    0    0    0  501 -0.00000000000E+00  0.00000000000E+00  0.47981303722E+02  0.47981303722E+02  0.00000000000E+00 0. -1.
          2   -1    0    0  502    0  0.00000000000E+00 -0.00000000000E+00 -0.79189592440E+03  0.79189592440E+03  0.00000000000E+00 0.  1.
          6    2    1    2  502    0 -0.38238145238E+02  0.50775790906E+02 -0.23754613093E+03  0.30029463727E+03  0.17236115619E+03 0.  0.
         24    2    3    3    0    0 -0.20266704671E+02  0.77733378060E+02 -0.24016916650E+03  0.26745176138E+03  0.85999992698E+02 0.  0.
         -6    2    1    2    0  501  0.38238145238E+02 -0.50775790906E+02 -0.50636848975E+03  0.53958259085E+03  0.17521412112E+03 0.  0.
        -24    2    5    5    0    0  0.37352215298E+02 -0.60674459134E+02 -0.15642598931E+03  0.18946744962E+03  0.79700980887E+02 0.  0.
          5    1    3    3  502    0 -0.17971440567E+02 -0.26957587154E+02  0.26230355750E+01  0.32842875892E+02  0.47000000000E+01 0. -1.
        -11    1    4    4    0    0 -0.21604569055E+02  0.16455340465E+02 -0.17832110793E+03  0.18037725236E+03  0.00000000000E+00 0.  1.
         12    1    4    4    0    0  0.13378643837E+01  0.61278037595E+02 -0.61848058569E+02  0.87074509022E+02  0.00000000000E+00 0. -1.
         -5    1    5    5    0  501  0.88592994009E+00  0.98986682283E+01 -0.34994250044E+03  0.35011514123E+03  0.47000000000E+01 0.  1.
         11    1    6    6    0    0  0.78538472519E+01  0.16525718840E+01  0.78990965367E+01  0.11260978491E+02  0.00000000000E+00 0. -1.
        -12    1    6    6    0    0  0.29498368046E+02 -0.62327031018E+02 -0.16432508585E+03  0.17820647113E+03  0.00000000000E+00 0.  1.
</event>
<event>
12    1  0.1345781E-002  0.2143444E+03  0.7818608E-02  0.1138171E+00
          1   -1    0    0  502    0  0.00000000000E+00  0.00000000000E+00  0.36913926448E+03  0.36913926448E+03  0.00000000000E+00 0. -1.
         -1   -1    0    0    0  501 -0.00000000000E+00 -0.00000000000E+00 -0.16102145687E+03  0.16102145687E+03  0.00000000000E+00 0.  1.
          6    2    1    2  502    0  0.96601260139E+02  0.86709353700E+02  0.23069308482E+03  0.31549771409E+03  0.17166593352E+03 0.  0.
         24    2    3    3    0    0  0.31543471446E+02  0.10899362225E+03  0.18303269403E+03  0.23169611897E+03  0.85484058044E+02 0.  0.
         -6    2    1    2    0  501 -0.96601260139E+02 -0.86709353700E+02 -0.22575277210E+02  0.21466300726E+03  0.16947049320E+03 0.  0.
        -24    2    5    5    0    0 -0.10006914552E+03 -0.92145754018E+02  0.30908007285E+02  0.16058775971E+03  0.79551554260E+02 0.  0.
          5    1    3    3  502    0  0.65057788693E+02 -0.22284268548E+02  0.47660390788E+02  0.83801595119E+02  0.47000000000E+01 0. -1.
        -11    1    4    4    0    0  0.20717502555E+02 -0.41239167285E+01  0.62816998752E+02  0.66273651880E+02  0.00000000000E+00 0.  1.
         12    1    4    4    0    0  0.10825968891E+02  0.11311753898E+03  0.12021569528E+03  0.16542246709E+03  0.00000000000E+00 0. -1.
         -5    1    5    5    0  501  0.34678853811E+01  0.54364003175E+01 -0.53483284495E+02  0.54075247552E+02  0.47000000000E+01 0.  1.
         11    1    6    6    0    0  0.48775011782E+01 -0.33621687503E+02  0.21175110766E+02  0.40032401929E+02  0.00000000000E+00 0. -1.
        -12    1    6    6    0    0 -0.10494664670E+03 -0.58524066515E+02  0.97328965197E+01  0.12055535778E+03  0.00000000000E+00 0.  1.
</event>
<event>
12    1  0.1345781E-002  0.2881240E+03  0.7818608E-02  0.1091333E+00
          2   -1    0    0  502    0  0.00000000000E+00  0.00000000000E+00  0.24148655912E+04  0.24148655912E+04  0.00000000000E+00 0. -1.
         -2   -1    0    0    0  501 -0.00000000000E+00 -0.00000000000E+00 -0.40472809394E+02  0.40472809394E+02  0.00000000000E+00 0.  1.
          6    2    1    2  502    0 -0.17789481371E+03 -0.14808892149E+03  0.16652434423E+04  0.16900634574E+04  0.17234231800E+03 0.  0.
         24    2    3    3    0    0 -0.17638573247E+03 -0.63545915265E+02  0.12014305192E+04  0.12185824771E+04  0.79736760108E+02 0.  0.
         -6    2    1    2    0  501  0.17789481371E+03  0.14808892149E+03  0.70914933950E+03  0.76527494317E+03  0.17081000999E+03 0.  0.
        -24    2    5    5    0    0  0.11844814317E+03  0.16908327957E+03  0.50550609760E+03  0.55204424726E+03  0.81223876793E+02 0.  0.
          5    1    3    3  502    0 -0.15090812319E+01 -0.84543006226E+02  0.46381292307E+03  0.47148098036E+03  0.47000000000E+01 0. -1.
        -13    1    4    4    0    0 -0.31523045268E+02  0.38527006662E+01  0.84286997074E+02  0.90071324855E+02  0.00000000000E+00 0.  1.
         14    1    4    4    0    0 -0.14486268721E+03 -0.67398615931E+02  0.11171435221E+04  0.11285111522E+04  0.00000000000E+00 0. -1.
         -5    1    5    5    0  501  0.59446670534E+02 -0.20994358082E+02  0.20364324190E+03  0.21323069591E+03  0.47000000000E+01 0.  1.
         13    1    6    6    0    0  0.12394178361E+02  0.77741752319E+02  0.22857075187E+03  0.24174777004E+03  0.00000000000E+00 0. -1.
        -14    1    6    6    0    0  0.10605396481E+03  0.91341527253E+02  0.27693534573E+03  0.31029647721E+03  0.00000000000E+00 0.  1.
</event>
<event>
12    1  0.1345781E-002  0.1829435E+03  0.7818608E-02  0.1164984E+00
          1   -1    0    0  502    0  0.00000000000E+00  0.00000000000E+00  0.12442366652E+04  0.12442366652E+04  0.00000000000E+00 0. -1.
         -1   -1    0    0    0  501 -0.00000000000E+00 -0.00000000000E+00 -0.29404886623E+02  0.29404886623E+02  0.00000000000E+00 0.  1.
          6    2    1    2  502    0 -0.47356249476E+02  0.37624058742E+02  0.78141024172E+03  0.80169708953E+03  0.16869520842E+03 0.  0.
         24    2    3    3    0    0 -0.56481940461E+02 -0.22061894325E+02  0.29897601702E+03  0.31547639644E+03  0.80385080579E+02 0.  0.
         -6    2    1    2    0  501  0.47356249476E+02 -0.37624058742E+02  0.43342153682E+03  0.47194446225E+03  0.17668945274E+03 0.  0.
        -24    2    5    5    0    0  0.78534894498E+02 -0.48395428567E+02  0.41842822939E+03  0.43540654248E+03  0.77374588392E+02 0.  0.
          5    1    3    3  502    0  0.91256909852E+01  0.59685953068E+02  0.48243422470E+03  0.48622069309E+03  0.47000000000E+01 0. -1.
        -11    1    4    4    0    0  0.10591103590E+02  0.19047835777E+02  0.56490038224E+02  0.60548459449E+02  0.00000000000E+00 0.  1.
         12    1    4    4    0    0 -0.67073044051E+02 -0.41109730102E+02  0.24248597880E+03  0.25492793699E+03  0.00000000000E+00 0. -1.
         -5    1    5    5    0  501 -0.31178645022E+02  0.10771369824E+02  0.14993307433E+02  0.36537919769E+02  0.47000000000E+01 0.  1.
         11    1    6    6    0    0  0.75194668962E+02 -0.93050271527E+01  0.33128404839E+03  0.33983811218E+03  0.00000000000E+00 0. -1.
        -12    1    6    6    0    0  0.33402255359E+01 -0.39090401414E+02  0.87144180994E+02  0.95568430302E+02  0.00000000000E+00 0.  1.
</event>
<event>
12    1  0.1345781E-002  0.1953366E+03  0.7818608E-02  0.1153734E+00
          2   -1    0    0  502    0  0.00000000000E+00  0.00000000000E+00  0.18988057261E+04  0.18988057261E+04  0.00000000000E+00 0.  1.
         -2   -1    0    0    0  501 -0.00000000000E+00 -0.00000000000E+00 -0.20370202759E+02  0.20370202759E+02  0.00000000000E+00 0. -1.
          6    2    1    2  502    0  0.93915697718E+02  0.38119750451E+01  0.10514204320E+04  0.10694369260E+04  0.17139347840E+03 0.  0.
         24    2    3    3    0    0  0.63763384918E+02  0.66261984015E+02  0.76556540912E+03  0.77525271553E+03  0.80436046083E+02 0.  0.
         -6    2    1    2    0  501 -0.93915697718E+02 -0.38119750451E+01  0.82701509136E+03  0.84973900287E+03  0.17107811736E+03 0.  0.
        -24    2    5    5    0    0 -0.47339744834E+02  0.33984469645E+02  0.18917984191E+03  0.20907232974E+03  0.67277268538E+02 0.  0.
          5    1    3    3  502    0  0.30152312800E+02 -0.62450008970E+02  0.28585502290E+03  0.29418421050E+03  0.47000000000E+01 0. -1.
        -13    1    4    4    0    0 -0.38029901866E+01  0.52165534868E+02  0.37594244024E+03  0.37956346523E+03  0.00000000000E+00 0.  1.
         14    1    4    4    0    0  0.67566375104E+02  0.14096449147E+02  0.38962296888E+03  0.39568925030E+03  0.00000000000E+00 0. -1.
         -5    1    5    5    0  501 -0.46575952884E+02 -0.37796444691E+02  0.63783524945E+03  0.64066667313E+03  0.47000000000E+01 0.  1.
         11    1    6    6    0    0 -0.52893801546E+02  0.52314162375E+00  0.13678442991E+03  0.14665608813E+03  0.00000000000E+00 0. -1.
        -12    1    6    6    0    0  0.55540567116E+01  0.33461328022E+02  0.52395411995E+02  0.62416241613E+02  0.00000000000E+00 0.  1.
</event>
<event>
12    1  0.1345781E-002  0.2010849E+03  0.7818608E-02  0.1148827E+00
          2   -1    0    0  502    0  0.00000000000E+00  0.00000000000E+00  0.42724569043E+03  0.42724569043E+03  0.00000000000E+00 0. -1.
         -2   -1    0    0    0  501 -0.00000000000E+00 -0.00000000000E+00 -0.96043554689E+02  0.96043554689E+02  0.00000000000E+00 0.  1.
          6    2    1    2  502    0  0.10247020627E+03 -0.13885109768E+02  0.19792449252E+03  0.28279593542E+03  0.17351223848E+03 0.  0.
         24    2    3    3    0    0  0.18722688390E+01 -0.48695510824E+02  0.11269779915E+03  0.14635038474E+03  0.79642218796E+02 0.  0.
         -6    2    1    2    0  501 -0.10247020627E+03  0.13885109768E+02  0.13327764322E+03  0.24049330970E+03  0.17140934158E+03 0.  0.
        -24    2    5    5    0    0  0.11010707872E+02 -0.42320245538E+01  0.78432645420E+02  0.11307191348E+03  0.80588039010E+02 0.  0.
          5    1    3    3  502    0  0.10059793743E+03  0.34810401057E+02  0.85226693368E+02  0.13644555068E+03  0.47000000000E+01 0. -1.
        -11    1    4    4    0    0 -0.59271650647E+01 -0.24005250671E+02 -0.55161116680E+01  0.25333985739E+02  0.00000000000E+00 0.  1.
         12    1    4    4    0    0  0.77994339037E+01 -0.24690260153E+02  0.11821391082E+03  0.12101639900E+03  0.00000000000E+00 0. -1.
         -5    1    5    5    0  501 -0.11348091414E+03  0.18117134321E+02  0.54844997799E+02  0.12742139622E+03  0.47000000000E+01 0.  1.
         11    1    6    6    0    0  0.11937788458E+02  0.20355325023E+02  0.84497448681E+02  0.87730661024E+02  0.00000000000E+00 0. -1.
        -12    1    6    6    0    0 -0.92708058604E+00 -0.24587349577E+02 -0.60648032612E+01  0.25341252459E+02  0.00000000000E+00 0.  1.
</event>
<event>
12    1  0.1345781E-002  0.2164095E+03  0.7818608E-02  0.1136589E+00
          1   -1    0    0  502    0  0.00000000000E+00  0.00000000000E+00  0.59497341486E+03  0.59497341486E+03  0.00000000000E+00 0.  1.
         -1   -1    0    0    0  501 -0.00000000000E+00 -0.00000000000E+00 -0.85728749801E+02  0.85728749801E+02  0.00000000000E+00 0. -1.
          6    2    1    2  502    0  0.10834529946E+03  0.72689671796E+02  0.15822326450E+03  0.26878959040E+03  0.17375485655E+03 0.  0.
         24    2    3    3    0    0 -0.10547960679E+02  0.34279523251E+02  0.28179398088E+02  0.88388803235E+02  0.75711008922E+02 0.  0.
         -6    2    1    2    0  501 -0.10834529946E+03 -0.72689671796E+02  0.35102140055E+03  0.41191257426E+03  0.17156180486E+03 0.  0.
        -24    2    5    5    0    0 -0.83141526613E+02 -0.23318617775E+02  0.10039878794E+03  0.15518993192E+03  0.80918026210E+02 0.  0.
          5    1    3    3  502    0  0.11889326013E+03  0.38410148545E+02  0.13004386642E+03  0.18040078716E+03  0.47000000000E+01 0. -1.
        -11    1    4    4    0    0 -0.39062471761E+02  0.39764111604E+01  0.25236816302E+02  0.46675319419E+02  0.00000000000E+00 0.  1.
         12    1    4    4    0    0  0.28514511081E+02  0.30303112090E+02  0.29425817864E+01  0.41713483817E+02  0.00000000000E+00 0. -1.
         -5    1    5    5    0  501 -0.25203772843E+02 -0.49371054021E+02  0.25062261261E+03  0.25672264234E+03  0.47000000000E+01 0.  1.
         13    1    6    6    0    0 -0.87442624001E+02  0.67574728753E+01  0.70025946286E+02  0.11222971569E+03  0.00000000000E+00 0. -1.
        -14    1    6    6    0    0  0.43010973879E+01 -0.30076090650E+02  0.30372841659E+02  0.42960216224E+02  0.00000000000E+00 0.  1.
</event>
<event>
12    1  0.1345781E-002  0.1750277E+03  0.7818608E-02  0.1172704E+00
          1   -1    0    0  502    0  0.00000000000E+00  0.00000000000E+00  0.39447926643E+02  0.39447926643E+02  0.00000000000E+00 0.  1.
         -1   -1    0    0    0  501 -0.00000000000E+00 -0.00000000000E+00 -0.82651758955E+03  0.82651758955E+03  0.00000000000E+00 0. -1.
          6    2    1    2  502    0  0.29531098428E+02  0.16869161854E+02 -0.28784223458E+03  0.33705854894E+03  0.17204260811E+03 0.  0.
         24    2    3    3    0    0  0.17231476414E+02  0.78217828044E+02 -0.18654327716E+03  0.21790105517E+03  0.79167690308E+02 0.  0.
         -6    2    1    2    0  501 -0.29531098428E+02 -0.16869161854E+02 -0.49922742832E+03  0.52890696725E+03  0.17134147316E+03 0.  0.
        -24    2    5    5    0    0 -0.27738331129E+02  0.54554270612E+02 -0.24504500860E+03  0.26483252090E+03  0.79646873341E+02 0.  0.
          5    1    3    3  502    0  0.12299622013E+02 -0.61348666190E+02 -0.10129895742E+03  0.11915749376E+03  0.47000000000E+01 0. -1.
        -11    1    4    4    0    0 -0.19737467746E+02  0.68877653579E+02 -0.14352964269E+03  0.16041962824E+03  0.00000000000E+00 0.  1.
         12    1    4    4    0    0  0.36968944161E+02  0.93401744651E+01 -0.43013634471E+02  0.57481426929E+02  0.00000000000E+00 0. -1.
         -5    1    5    5    0  501 -0.17927672989E+01 -0.71423432466E+02 -0.25418241972E+03  0.26407444635E+03  0.47000000000E+01 0.  1.
         11    1    6    6    0    0 -0.29021008678E+02 -0.38049898985E+01 -0.15346134948E+03  0.15622766297E+03  0.00000000000E+00 0. -1.
        -12    1    6    6    0    0  0.12826775495E+01  0.58359260510E+02 -0.91583659115E+02  0.10860485793E+03  0.00000000000E+00 0.  1.
</event>
<event>
12    1  0.1345781E-002  0.2062132E+03  0.7818608E-02  0.1144600E+00
          2   -1    0    0  502    0  0.00000000000E+00  0.00000000000E+00  0.82431394620E+03  0.82431394620E+03  0.00000000000E+00 0. -1.
         -2   -1    0    0    0  501 -0.00000000000E+00 -0.00000000000E+00 -0.54443435217E+02  0.54443435217E+02  0.00000000000E+00 0.  1.
          6    2    1    2  502    0  0.86547969807E+02  0.72710739673E+02  0.48533489787E+03  0.52727374368E+03  0.17230854577E+03 0.  0.
         24    2    3    3    0    0  0.12714947543E+03  0.70740912992E+02  0.39143692079E+03  0.42484678153E+03  0.78106715113E+02 0.  0.
         -6    2    1    2    0  501 -0.86547969807E+02 -0.72710739673E+02  0.28453561311E+03  0.35148363773E+03  0.17263496090E+03 0.  0.
        -24    2    5    5    0    0 -0.15206188339E+02  0.40300988315E+01  0.20353670886E+03  0.21896300324E+03  0.79184184481E+02 0.  0.
          5    1    3    3  502    0 -0.40601505624E+02  0.19698266809E+01  0.93897977082E+02  0.10242696215E+03  0.47000000000E+01 0. -1.
        -13    1    4    4    0    0  0.32929485640E+02  0.62199093708E+02  0.15785287612E+03  0.17283115686E+03  0.00000000000E+00 0.  1.
         14    1    4    4    0    0  0.94219989791E+02  0.85418192836E+01  0.23358404467E+03  0.25201562467E+03  0.00000000000E+00 0. -1.
         -5    1    5    5    0  501 -0.71341781468E+02 -0.76740838504E+02  0.80998904247E+02  0.13252063449E+03  0.47000000000E+01 0.  1.
         11    1    6    6    0    0  0.20015784307E+01  0.38781257234E+02  0.71689669334E+02  0.81531594601E+02  0.00000000000E+00 0. -1.
        -12    1    6    6    0    0 -0.17207766770E+02 -0.34751158403E+02  0.13184703953E+03  0.13743140864E+03  0.00000000000E+00 0.  1.
</event>
<event>
12    1  0.1345781E-002  0.4358956E+03  0.7818608E-02  0.1032014E+00
          1   -1    0    0  502    0  0.00000000000E+00  0.00000000000E+00  0.92439664007E+03  0.92439664007E+03  0.00000000000E+00 0.  1.
         -1   -1    0    0    0  501 -0.00000000000E+00 -0.00000000000E+00 -0.35489902616E+03  0.35489902616E+03  0.00000000000E+00 0. -1.
          6    2    1    2  502    0  0.40112597220E+03 -0.21770668383E+00  0.69996231214E+03  0.82496029890E+03  0.17236636384E+03 0.  0.
         24    2    3    3    0    0  0.11083962272E+03 -0.13793706654E+02  0.15116588626E+03  0.20395298854E+03  0.79183382459E+02 0.  0.
         -6    2    1    2    0  501 -0.40112597220E+03  0.21770668383E+00 -0.13046469823E+03  0.45433536733E+03  0.16881201248E+03 0.  0.
        -24    2    5    5    0    0 -0.26350771066E+03  0.59029449441E+02 -0.62469197783E+02  0.28988754863E+03  0.84921144017E+02 0.  0.
          5    1    3    3  502    0  0.29028634947E+03  0.13575999970E+02  0.54879642587E+03  0.62100731036E+03  0.47000000000E+01 0. -1.
        -11    1    4    4    0    0  0.88329373295E+02 -0.43981618018E+02  0.11755149629E+03  0.15347578047E+03  0.00000000000E+00 0.  1.
         12    1    4    4    0    0  0.22510249426E+02  0.30187911364E+02  0.33614389973E+02  0.50477208075E+02  0.00000000000E+00 0. -1.
         -5    1    5    5    0  501 -0.13761826153E+03 -0.58811742757E+02 -0.67995500450E+02  0.16444781870E+03  0.47000000000E+01 0.  1.
         13    1    6    6    0    0 -0.23276168899E+03  0.48887058427E+02 -0.82586552496E+02  0.25177070321E+03  0.00000000000E+00 0. -1.
        -14    1    6    6    0    0 -0.30746021670E+02  0.10142391013E+02  0.20117354713E+02  0.38116845418E+02  0.00000000000E+00 0.  1.
</event>
<event>
12    1  0.1345781E-002  0.1720999E+03  0.7818608E-02  0.1175675E+00
         -2   -1    0    0    0  501 -0.00000000000E+00  0.00000000000E+00  0.73864705012E+02  0.73864705012E+02  0.00000000000E+00 0.  1.
          2   -1    0    0  502    0  0.00000000000E+00 -0.00000000000E+00 -0.16961783871E+04  0.16961783871E+04  0.00000000000E+00 0. -1.
          6    2    1    2  502    0 -0.42180039210E+01 -0.16723317740E+02 -0.15847769562E+04  0.15941187601E+04  0.17146183110E+03 0.  0.
         24    2    3    3    0    0  0.53693030284E+02 -0.44909721743E+02 -0.58284918342E+03  0.59011203049E+03  0.60159897859E+02 0.  0.
         -6    2    1    2    0  501  0.42180039210E+01  0.16723317740E+02 -0.37536725905E+02  0.17592433202E+03  0.17100556684E+03 0.  0.
        -24    2    5    5    0    0  0.47115152999E+02  0.26191079849E+02 -0.73101492462E+02  0.11920796279E+03  0.77206864241E+02 0.  0.
          5    1    3    3  502    0 -0.57911034205E+02  0.28186404003E+02 -0.10019277727E+04  0.10040067296E+04  0.47000000000E+01 0. -1.
        -13    1    4    4    0    0 -0.89318800804E+01 -0.19530095207E+02 -0.83761018471E+02  0.86470291522E+02  0.00000000000E+00 0.  1.
         14    1    4    4    0    0  0.62624910364E+02 -0.25379626536E+02 -0.49908816495E+03  0.50364173897E+03  0.00000000000E+00 0. -1.
         -5    1    5    5    0  501 -0.42897149078E+02 -0.94677621088E+01  0.35564766557E+02  0.56716369230E+02  0.47000000000E+01 0.  1.
         11    1    6    6    0    0  0.66725012673E+02  0.96699084493E+01 -0.60717853604E+02  0.90732531057E+02  0.00000000000E+00 0. -1.
        -12    1    6    6    0    0 -0.19609859675E+02  0.16521171399E+02 -0.12383638858E+02  0.28475431730E+02  0.00000000000E+00 0.  1.
</event>
<event>
12    1  0.1345781E-002  0.1885599E+03  0.7818608E-02  0.1159767E+00
         -1   -1    0    0    0  501 -0.00000000000E+00  0.00000000000E+00  0.18972730025E+02  0.18972730025E+02  0.00000000000E+00 0.  1.
          1   -1    0    0  502    0  0.00000000000E+00 -0.00000000000E+00 -0.21698176892E+04  0.21698176892E+04  0.00000000000E+00 0. -1.
          6    2    1    2  502    0 -0.74912296060E+02 -0.19709152937E+02 -0.67000907440E+03  0.69596370711E+03  0.17161881895E+03 0.  0.
         24    2    3    3    0    0 -0.27855748790E+02 -0.34814465900E+01 -0.61783271883E+03  0.62369947546E+03  0.80595930568E+02 0.  0.
         -6    2    1    2    0  501  0.74912296060E+02  0.19709152937E+02 -0.14808358847E+04  0.14928267121E+04  0.17221025513E+03 0.  0.
        -24    2    5    5    0    0  0.17069684245E+02  0.55636575560E+02 -0.49535811252E+03  0.50498812356E+03  0.79035072206E+02 0.  0.
          5    1    3    3  502    0 -0.47056547270E+02 -0.16227706347E+02 -0.52176355569E+02  0.72264231641E+02  0.47000000000E+01 0. -1.
        -11    1    4    4    0    0 -0.20138144673E+02  0.81251470831E+01 -0.38522119647E+02  0.44221223277E+02  0.00000000000E+00 0.  1.
         12    1    4    4    0    0 -0.77176041161E+01 -0.11606593673E+02 -0.57931059918E+03  0.57947825219E+03  0.00000000000E+00 0. -1.
         -5    1    5    5    0  501  0.57842611815E+02 -0.35927422623E+02 -0.98547777221E+03  0.98783858851E+03  0.47000000000E+01 0.  1.
         11    1    6    6    0    0  0.21612846771E+02 -0.15349108648E+02 -0.15855688363E+03  0.16075756787E+03  0.00000000000E+00 0. -1.
        -12    1    6    6    0    0 -0.45431625263E+01  0.70985684207E+02 -0.33680122890E+03  0.34423055570E+03  0.00000000000E+00 0.  1.
</event>
<event>
12    1  0.1345781E-002  0.2352889E+03  0.7818608E-02  0.1122972E+00
          2   -1    0    0  502    0  0.00000000000E+00  0.00000000000E+00  0.25112004346E+03  0.25112004346E+03  0.00000000000E+00 0. -1.
         -2   -1    0    0    0  501 -0.00000000000E+00 -0.00000000000E+00 -0.22565872537E+03  0.22565872537E+03  0.00000000000E+00 0.  1.
          6    2    1    2  502    0  0.16215716885E+03 -0.15417205098E+02 -0.23483644356E+02  0.23612692655E+03  0.16932751185E+03 0.  0.
         24    2    3    3    0    0  0.10695452782E+03  0.36856653324E+02  0.34270412640E+02  0.14053660827E+03  0.76015742870E+02 0.  0.
         -6    2    1    2    0  501 -0.16215716885E+03  0.15417205098E+02  0.48944962445E+02  0.24065184228E+03  0.17024999918E+03 0.  0.
        -24    2    5    5    0    0 -0.14199070127E+03  0.33820978455E+02  0.91300451771E+02  0.19004094657E+03  0.80464719283E+02 0.  0.
          5    1    3    3  502    0  0.55202641023E+02 -0.52273858422E+02 -0.57754056996E+02  0.95590318285E+02  0.47000000000E+01 0. -1.
        -13    1    4    4    0    0  0.11307682851E+03  0.23925203373E+02  0.15020781297E+02  0.11655217018E+03  0.00000000000E+00 0.  1.
         14    1    4    4    0    0 -0.61223006861E+01  0.12931449952E+02  0.19249631344E+02  0.23984438088E+02  0.00000000000E+00 0. -1.
         -5    1    5    5    0  501 -0.20166467579E+02 -0.18403773357E+02 -0.42355489326E+02  0.50610895709E+02  0.47000000000E+01 0.  1.
         13    1    6    6    0    0 -0.14943813693E+03  0.19966685144E+02  0.85165679004E+02  0.17315778401E+03  0.00000000000E+00 0. -1.
        -14    1    6    6    0    0  0.74474356585E+01  0.13854293312E+02  0.61347727673E+01  0.16883162558E+02  0.00000000000E+00 0.  1.
</event>
<event>
12    1  0.1345781E-002  0.1781959E+03  0.7818608E-02  0.1169561E+00
         -2   -1    0    0    0  501 -0.00000000000E+00  0.00000000000E+00  0.69159302364E+02  0.69159302364E+02  0.00000000000E+00 0.  1.
          2   -1    0    0  502    0  0.00000000000E+00 -0.00000000000E+00 -0.74897856748E+03  0.74897856748E+03  0.00000000000E+00 0. -1.
          6    2    1    2  502    0 -0.37913474211E+02 -0.16762296211E+02 -0.84122396508E+02  0.19603227980E+03  0.17214433196E+03 0.  0.
         24    2    3    3    0    0 -0.77910287528E+02 -0.52016537516E+02 -0.71310588655E+02  0.14099739063E+03  0.77584347851E+02 0.  0.
         -6    2    1    2    0  501  0.37913474211E+02  0.16762296211E+02 -0.59569686861E+03  0.62210559005E+03  0.17447693199E+03 0.  0.
        -24    2    5    5    0    0  0.33055661495E+02 -0.38462234265E+02 -0.51776178305E+03  0.52634905152E+03  0.79962740214E+02 0.  0.
          5    1    3    3  502    0  0.39996813317E+02  0.35254241305E+02 -0.12811807853E+02  0.55034889170E+02  0.47000000000E+01 0. -1.
        -11    1    4    4    0    0 -0.16910792201E+02 -0.94213068360E+01  0.16832090135E+02  0.25652586101E+02  0.00000000000E+00 0.  1.
         12    1    4    4    0    0 -0.60999495326E+02 -0.42595230680E+02 -0.88142678790E+02  0.11534480453E+03  0.00000000000E+00 0. -1.
         -5    1    5    5    0  501  0.48578127160E+01  0.55224530476E+02 -0.77935085556E+02  0.95756538530E+02  0.47000000000E+01 0.  1.
         11    1    6    6    0    0  0.39424139188E+02 -0.39773392006E+01 -0.43027496060E+03  0.43209561869E+03  0.00000000000E+00 0. -1.
        -12    1    6    6    0    0 -0.63684776927E+01 -0.34484895064E+02 -0.87486822453E+02  0.94253432821E+02  0.00000000000E+00 0.  1.
</event>
<event>
12    1  0.1345781E-002  0.2521687E+03  0.7818608E-02  0.1111942E+00
          1   -1    0    0  502    0  0.00000000000E+00  0.00000000000E+00  0.51456934043E+03  0.51456934043E+03  0.00000000000E+00 0. -1.
         -1   -1    0    0    0  501 -0.00000000000E+00 -0.00000000000E+00 -0.12540535361E+03  0.12540535361E+03  0.00000000000E+00 0.  1.
          6    2    1    2  502    0  0.24181935360E+02  0.17862470112E+03  0.23107403835E+03  0.34010637114E+03  0.17258500120E+03 0.  0.
         24    2    3    3    0    0  0.43457381807E+02  0.17134444069E+03  0.24685304573E+03  0.31373191187E+03  0.79017877446E+02 0.  0.
         -6    2    1    2    0  501 -0.24181935360E+02 -0.17862470112E+03  0.15808994847E+03  0.29986832291E+03  0.18010283015E+03 0.  0.
        -24    2    5    5    0    0 -0.73534038663E+02 -0.17395752097E+03  0.12650503626E+03  0.24090130373E+03  0.79758635887E+02 0.  0.
          5    1    3    3  502    0 -0.19275446447E+02  0.72802604316E+01 -0.15779007373E+02  0.26374459262E+02  0.47000000000E+01 0. -1.
        -13    1    4    4    0    0  0.11153057513E+02  0.14960101176E+03  0.16447393666E+03  0.22261295841E+03  0.00000000000E+00 0.  1.
         14    1    4    4    0    0  0.32304324295E+02  0.21743428922E+02  0.82379109063E+02  0.91118953459E+02  0.00000000000E+00 0. -1.
         -5    1    5    5    0  501  0.49352103302E+02 -0.46671801521E+01  0.31584912209E+02  0.58967019173E+02  0.47000000000E+01 0.  1.
         13    1    6    6    0    0  0.13445502465E+01 -0.99081262947E+02  0.63176498820E+02  0.11751669875E+03  0.00000000000E+00 0. -1.
        -14    1    6    6    0    0 -0.74878588909E+02 -0.74876258018E+02  0.63328537442E+02  0.12338460498E+03  0.00000000000E+00 0.  1.
</event>
<event>
12    1  0.1345781E-002  0.1807336E+03  0.7818608E-02  0.1167095E+00
         -1   -1    0    0    0  501 -0.00000000000E+00  0.00000000000E+00  0.52187829675E+02  0.52187829675E+02  0.00000000000E+00 0.  1.
          1   -1    0    0  502    0  0.00000000000E+00 -0.00000000000E+00 -0.78104243513E+03  0.78104243513E+03  0.00000000000E+00 0. -1.
          6    2    1    2  502    0 -0.38953005531E+01 -0.61148397941E+02 -0.54542850227E+03  0.57371734406E+03  0.16704801658E+03 0.  0.
         24    2    3    3    0    0  0.21379079971E+02 -0.95424832251E+02 -0.29756994962E+03  0.32218281286E+03  0.75438228486E+02 0.  0.
         -6    2    1    2    0  501  0.38953005531E+01  0.61148397941E+02 -0.18342610318E+03  0.25951292075E+03  0.17305351996E+03 0.  0.
        -24    2    5    5    0    0  0.35125910008E+02  0.40713973586E+02 -0.28551903477E+02  0.10013593245E+03  0.79501802342E+02 0.  0.
          5    1    3    3  502    0 -0.25274380524E+02  0.34276434310E+02 -0.24785855265E+03  0.25153453120E+03  0.47000000000E+01 0. -1.
        -13    1    4    4    0    0 -0.12413526132E+02 -0.10045682043E+02 -0.69755581049E+01  0.17426123195E+02  0.00000000000E+00 0.  1.
         14    1    4    4    0    0  0.33792606104E+02 -0.85379150208E+02 -0.29059439151E+03  0.30475668966E+03  0.00000000000E+00 0. -1.
         -5    1    5    5    0  501 -0.31230609455E+02  0.20434424354E+02 -0.15487419971E+03  0.15937698830E+03  0.47000000000E+01 0.  1.
         11    1    6    6    0    0  0.14660630646E+02 -0.22712322050E+02 -0.18448675063E+02  0.32728233613E+02  0.00000000000E+00 0. -1.
        -12    1    6    6    0    0  0.20465279362E+02  0.63426295637E+02 -0.10103228414E+02  0.67407698833E+02  0.00000000000E+00 0.  1.
</event>
<event>
12    1  0.1345781E-002  0.1760303E+03  0.7818608E-02  0.1171701E+00
          1   -1    0    0  502    0  0.00000000000E+00  0.00000000000E+00  0.58587080962E+03  0.58587080962E+03  0.00000000000E+00 0. -1.
         -1   -1    0    0    0  501 -0.00000000000E+00 -0.00000000000E+00 -0.70212904900E+02  0.70212904900E+02  0.00000000000E+00 0.  1.
          6    2    1    2  502    0 -0.35252463599E+02 -0.14240105499E+01  0.42045771693E+03  0.45571037048E+03  0.17216993363E+03 0.  0.
         24    2    3    3    0    0  0.39216536307E+02  0.43087703856E+00  0.14004467699E+03  0.16553346664E+03  0.79061334737E+02 0.  0.
         -6    2    1    2    0  501  0.35252463599E+02  0.14240105499E+01  0.95200187788E+02  0.20037334403E+03  0.17274732197E+03 0.  0.
        -24    2    5    5    0    0  0.78374790011E+02  0.26449353206E+02  0.96575261703E+02  0.15027560318E+03  0.80086201959E+02 0.  0.
          5    1    3    3  502    0 -0.74468999906E+02 -0.18548875885E+01  0.28041303994E+03  0.29017690384E+03  0.47000000000E+01 0. -1.
        -13    1    4    4    0    0 -0.11778122905E+02  0.25066722460E+02  0.71141501209E+02  0.76342504205E+02  0.00000000000E+00 0.  1.
         14    1    4    4    0    0  0.50994659212E+02 -0.24635845421E+02  0.68903175780E+02  0.89190962436E+02  0.00000000000E+00 0. -1.
         -5    1    5    5    0  501 -0.43122326412E+02 -0.25025342656E+02 -0.13750739155E+01  0.50097740852E+02  0.47000000000E+01 0.  1.
         13    1    6    6    0    0 -0.80368225972E+01  0.23508311752E+02  0.39537002841E+02  0.46694815907E+02  0.00000000000E+00 0. -1.
        -14    1    6    6    0    0  0.86411612608E+02  0.29410414531E+01  0.57038258862E+02  0.10358078727E+03  0.00000000000E+00 0.  1.
</event>
<event>
12    1  0.1345781E-002  0.1746265E+03  0.7818608E-02  0.1173107E+00
         -2   -1    0    0    0  501 -0.00000000000E+00  0.00000000000E+00  0.45998709113E+02  0.45998709113E+02  0.00000000000E+00 0.  1.
          2   -1    0    0  502    0  0.00000000000E+00 -0.00000000000E+00 -0.71376401026E+03  0.71376401026E+03  0.00000000000E+00 0. -1.
          6    2    1    2  502    0  0.17215478269E+02 -0.20871019760E+02 -0.43653895589E+03  0.47044388149E+03  0.17326053637E+03 0.  0.
         24    2    3    3    0    0 -0.25402871544E+02  0.24436414895E+02 -0.36646088756E+03  0.37662430444E+03  0.79434503420E+02 0.  0.
         -6    2    1    2    0  501 -0.17215478269E+02  0.20871019760E+02 -0.23122634526E+03  0.28931883789E+03  0.17177833116E+03 0.  0.
        -24    2    5    5    0    0  0.34077152577E+01  0.78295860764E+02 -0.13125932043E+03  0.17210781226E+03  0.79058430949E+02 0.  0.
          5    1    3    3  502    0  0.42618349813E+02 -0.45307434655E+02 -0.70078068330E+02  0.93819577043E+02  0.47000000000E+01 0. -1.
        -13    1    4    4    0    0  0.15046593016E+02  0.76751565722E+01 -0.15444150599E+02  0.22887327881E+02  0.00000000000E+00 0.  1.
         14    1    4    4    0    0 -0.40449464560E+02  0.16761258323E+02 -0.35101673696E+03  0.35373697656E+03  0.00000000000E+00 0. -1.
         -5    1    5    5    0  501 -0.20623193526E+02 -0.57424841004E+02 -0.99967024834E+02  0.11721102563E+03  0.47000000000E+01 0.  1.
         11    1    6    6    0    0  0.26090540672E+02 -0.35978132227E+01 -0.30341804977E+02  0.40178174446E+02  0.00000000000E+00 0. -1.
        -12    1    6    6    0    0 -0.22682825414E+02  0.81893673987E+02 -0.10091751545E+03  0.13192963781E+03  0.00000000000E+00 0.  1.
</event>
<event>
12    1  0.1345781E-002  0.1995588E+03  0.7818608E-02  0.1150112E+00
          2   -1    0    0  502    0  0.00000000000E+00  0.00000000000E+00  0.44068981633E+03  0.44068981633E+03  0.00000000000E+00 0.  1.
         -2   -1    0    0    0  501 -0.00000000000E+00 -0.00000000000E+00 -0.12935045311E+03  0.12935045311E+03  0.00000000000E+00 0. -1.
          6    2    1    2  502    0 -0.99455637291E+02  0.16429936419E+02  0.31247334980E+03  0.37109240492E+03  0.17294106526E+03 0.  0.
         24    2    3    3    0    0  0.10932761298E+02  0.76996415558E+01  0.82656156553E+02  0.11594568457E+03  0.80203190740E+02 0.  0.
         -6    2    1    2    0  501  0.99455637291E+02 -0.16429936419E+02 -0.11339865838E+01  0.19894786452E+03  0.17151559775E+03 0.  0.
        -24    2    5    5    0    0  0.11187950145E+03 -0.51443897520E+02 -0.32269693507E+02  0.15024620009E+03  0.79806579204E+02 0.  0.
          5    1    3    3  502    0 -0.11038839859E+03  0.87302948632E+01  0.22981719325E+03  0.25514672034E+03  0.47000000000E+01 0. -1.
        -13    1    4    4    0    0  0.10115815719E+02 -0.22082111488E+02  0.82657989887E+02  0.86152728729E+02  0.00000000000E+00 0.  1.
         14    1    4    4    0    0  0.81694557898E+00  0.29781753044E+02 -0.18333335038E-02  0.29792955842E+02  0.00000000000E+00 0. -1.
         -5    1    5    5    0  501 -0.12423864164E+02  0.35013961101E+02  0.31135706923E+02  0.48701664431E+02  0.47000000000E+01 0.  1.
         11    1    6    6    0    0  0.51529954268E+02 -0.66695701398E+02 -0.14584948942E+02  0.85535802489E+02  0.00000000000E+00 0. -1.
        -12    1    6    6    0    0  0.60349547187E+02  0.15251803878E+02 -0.17684744564E+02  0.64710397600E+02  0.00000000000E+00 0.  1.
</event>
<event>
12    1  0.1345781E-002  0.3554263E+03  0.7818608E-02  0.1060410E+00
          1   -1    0    0  502    0  0.00000000000E+00  0.00000000000E+00  0.59450820753E+03  0.59450820753E+03  0.00000000000E+00 0. -1.
         -1   -1    0    0    0  501 -0.00000000000E+00 -0.00000000000E+00 -0.25422118301E+03  0.25422118301E+03  0.00000000000E+00 0.  1.
          6    2    1    2  502    0  0.17460515959E+03  0.25894841009E+03  0.34248003210E+03  0.49431620534E+03  0.17179842148E+03 0.  0.
         24    2    3    3    0    0  0.47390264644E+02  0.97576669788E+02  0.20978172864E+03  0.24966257710E+03  0.80969037686E+02 0.  0.
         -6    2    1    2    0  501 -0.17460515959E+03 -0.25894841009E+03 -0.21930075868E+01  0.35441318521E+03  0.16751912046E+03 0.  0.
        -24    2    5    5    0    0 -0.20026949623E+03 -0.22624968121E+03 -0.69638079271E-01  0.31252686592E+03  0.79851410147E+02 0.  0.
          5    1    3    3  502    0  0.12721489495E+03  0.16137174031E+03  0.13269830346E+03  0.24465362823E+03  0.47000000000E+01 0. -1.
        -11    1    4    4    0    0  0.27041395997E+02 -0.28414044748E+01  0.19202980286E+02  0.33287612241E+02  0.00000000000E+00 0.  1.
         12    1    4    4    0    0  0.20348868646E+02  0.10041807426E+03  0.19057874836E+03  0.21637496486E+03  0.00000000000E+00 0. -1.
         -5    1    5    5    0  501  0.25664336636E+02 -0.32698728886E+02 -0.21233695075E+01  0.41886319291E+02  0.47000000000E+01 0.  1.
         11    1    6    6    0    0 -0.73450252369E+02 -0.37193526903E+02  0.17599095735E+02  0.84190416243E+02  0.00000000000E+00 0. -1.
        -12    1    6    6    0    0 -0.12681924386E+03 -0.18905615431E+03 -0.17668733815E+02  0.22833644967E+03  0.00000000000E+00 0.  1.
</event>
<event>
12    1  0.1345781E-002  0.4050787E+03  0.7818608E-02  0.1042035E+00
          2   -1    0    0  502    0  0.00000000000E+00  0.00000000000E+00  0.79816373813E+03  0.79816373813E+03  0.00000000000E+00 0.  1.
         -2   -1    0    0    0  501 -0.00000000000E+00 -0.00000000000E+00 -0.51938741607E+03  0.51938741607E+03  0.00000000000E+00 0. -1.
          6    2    1    2  502    0  0.28137341565E+03  0.23533908793E+03  0.65149231758E+03  0.76732692788E+03  0.17260616747E+03 0.  0.
         24    2    3    3    0    0  0.25558518734E+03  0.13686061362E+03  0.46992001831E+03  0.55911157666E+03  0.87899465305E+02 0.  0.
         -6    2    1    2    0  501 -0.28137341565E+03 -0.23533908793E+03 -0.37271599552E+03  0.55022422632E+03  0.17109646569E+03 0.  0.
        -24    2    5    5    0    0 -0.18370178507E+03 -0.23159488738E+03 -0.27252301582E+03  0.41017248717E+03  0.81179661122E+02 0.  0.
          5    1    3    3  502    0  0.25788228306E+02  0.98478474310E+02  0.18157229927E+03  0.20821535122E+03  0.47000000000E+01 0. -1.
        -13    1    4    4    0    0  0.14864363004E+03  0.12662112778E+03  0.31409361923E+03  0.36984137193E+03  0.00000000000E+00 0.  1.
         14    1    4    4    0    0  0.10694155730E+03  0.10239485838E+02  0.15582639909E+03  0.18927020474E+03  0.00000000000E+00 0. -1.
         -5    1    5    5    0  501 -0.97671630575E+02 -0.37442005457E+01 -0.10019297970E+03  0.14005173915E+03  0.47000000000E+01 0.  1.
         13    1    6    6    0    0 -0.16315367835E+03 -0.15712375495E+03 -0.22609596538E+03  0.32004122029E+03  0.00000000000E+00 0. -1.
        -14    1    6    6    0    0 -0.20548106725E+02 -0.74471132432E+02 -0.46427050439E+02  0.90131266873E+02  0.00000000000E+00 0.  1.
</event>
<event>
12    1  0.1345781E-002  0.2235484E+03  0.7818608E-02  0.1131265E+00
          2   -1    0    0  502    0  0.00000000000E+00  0.00000000000E+00  0.14170992375E+04  0.14170992375E+04  0.00000000000E+00 0. -1.
         -2   -1    0    0    0  501 -0.00000000000E+00 -0.00000000000E+00 -0.35809281778E+02  0.35809281778E+02  0.00000000000E+00 0.  1.
          6    2    1    2  502    0 -0.84374943464E+02  0.11601602554E+03  0.59824310332E+03  0.63831516220E+03  0.17021335541E+03 0.  0.
         24    2    3    3    0    0 -0.11459597319E+03  0.81522863431E+02  0.34481759987E+03  0.38073087567E+03  0.79237668900E+02 0.  0.
         -6    2    1    2    0  501  0.84374943464E+02 -0.11601602554E+03  0.78304685236E+03  0.81459335704E+03  0.17268791235E+03 0.  0.
        -24    2    5    5    0    0  0.52559841167E+02 -0.24613603673E+02  0.19807557706E+03  0.22165146580E+03  0.80790294432E+02 0.  0.
          5    1    3    3  502    0  0.30221029727E+02  0.34493162105E+02  0.25342550345E+03  0.25758428653E+03  0.47000000000E+01 0. -1.
        -13    1    4    4    0    0 -0.54069031601E+02 -0.59234404632E+01  0.13365585675E+03  0.14429981070E+03  0.00000000000E+00 0.  1.
         14    1    4    4    0    0 -0.60526941590E+02  0.87446303894E+02  0.21116174312E+03  0.23643106497E+03  0.00000000000E+00 0. -1.
         -5    1    5    5    0  501  0.31815102298E+02 -0.91402421864E+02  0.58497127530E+03  0.59294189124E+03  0.47000000000E+01 0.  1.
         13    1    6    6    0    0  0.45055354774E+02  0.19786176524E+02  0.13843562047E+03  0.14692140345E+03  0.00000000000E+00 0. -1.
        -14    1    6    6    0    0  0.75044863923E+01 -0.44399780197E+02  0.59639956591E+02  0.74730062355E+02  0.00000000000E+00 0.  1.
</event>
<event>
12    1  0.1345781E-002  0.2037303E+03  0.7818608E-02  0.1146629E+00
         -1   -1    0    0    0  501 -0.00000000000E+00  0.00000000000E+00  0.63696236321E+03  0.63696236321E+03  0.00000000000E+00 0. -1.
          1   -1    0    0  502    0  0.00000000000E+00 -0.00000000000E+00 -0.12579598043E+03  0.12579598043E+03  0.00000000000E+00 0.  1.
          6    2    1    2  502    0 -0.10691744779E+03  0.12624658449E+02 -0.89048226442E+01  0.20436772927E+03  0.17348242059E+03 0.  0.
         24    2    3    3    0    0 -0.78291109632E+02  0.44295810797E+02 -0.62239659600E+02  0.13588982071E+03  0.80626617461E+02 0.  0.
         -6    2    1    2    0  501  0.10691744779E+03 -0.12624658449E+02  0.52007120543E+03  0.55839061437E+03  0.17243925556E+03 0.  0.
        -24    2    5    5    0    0  0.54141266497E+02 -0.39570073521E+00  0.48329995503E+03  0.49274697359E+03  0.79305107876E+02 0.  0.
          5    1    3    3  502    0 -0.28626338162E+02 -0.31671152348E+02  0.53334836955E+02  0.68477908559E+02  0.47000000000E+01 0. -1.
        -11    1    4    4    0    0 -0.64427780759E+02  0.19776505482E+02  0.19551412866E+00  0.67395009670E+02  0.00000000000E+00 0.  1.
         12    1    4    4    0    0 -0.13863328873E+02  0.24519305315E+02 -0.62435173728E+02  0.68494811037E+02  0.00000000000E+00 0. -1.
         -5    1    5    5    0  501  0.52776181297E+02 -0.12228957714E+02  0.36771250399E+02  0.65643640781E+02  0.47000000000E+01 0.  1.
         11    1    6    6    0    0  0.15812894004E+02  0.37985259832E+02  0.23699389606E+03  0.24053904954E+03  0.00000000000E+00 0. -1.
        -12    1    6    6    0    0  0.38328372493E+02 -0.38380960567E+02  0.24630605896E+03  0.25220792405E+03  0.00000000000E+00 0.  1.
</event>
<event>
12    1  0.1345781E-002  0.2906313E+03  0.7818608E-02  0.1090020E+00
         -1   -1    0    0    0  501 -0.00000000000E+00  0.00000000000E+00  0.52282663731E+02  0.52282663731E+02  0.00000000000E+00 0. -1.
          1   -1    0    0  502    0  0.00000000000E+00 -0.00000000000E+00 -0.16858582253E+04  0.16858582253E+04  0.00000000000E+00 0.  1.
          6    2    1    2  502    0 -0.85179048246E+02 -0.21892263486E+03 -0.99466313818E+03  0.10362980833E+04  0.17139535758E+03 0.  0.
         24    2    3    3    0    0 -0.84799792342E+02 -0.61835430768E+02 -0.51630633292E+03  0.53278655741E+03  0.79212758224E+02 0.  0.
         -6    2    1    2    0  501  0.85179048246E+02  0.21892263486E+03 -0.63891242336E+03  0.70184280575E+03  0.17085563771E+03 0.  0.
        -24    2    5    5    0    0  0.75747981178E+02  0.51287041477E+02 -0.29831252369E+03  0.32207838028E+03  0.79849884006E+02 0.  0.
          5    1    3    3  502    0 -0.37925590462E+00 -0.15708720409E+03 -0.47835680526E+03  0.50351152585E+03  0.47000000000E+01 0. -1.
        -11    1    4    4    0    0 -0.44849245345E+02  0.75415096379E+01 -0.26979249057E+03  0.27359882519E+03  0.00000000000E+00 0.  1.
         12    1    4    4    0    0 -0.39950546996E+02 -0.69376940406E+02 -0.24651384235E+03  0.25918773222E+03  0.00000000000E+00 0. -1.
         -5    1    5    5    0  501  0.94310670686E+01  0.16763559338E+03 -0.34059989967E+03  0.37976442547E+03  0.47000000000E+01 0.  1.
         13    1    6    6    0    0  0.41987355266E+02  0.54260687162E+02 -0.10242306713E+03  0.12327872831E+03  0.00000000000E+00 0. -1.
        -14    1    6    6    0    0  0.33760625912E+02 -0.29736456854E+01 -0.19588945656E+03  0.19879965197E+03  0.00000000000E+00 0.  1.
</event>
<event>
12    1  0.1345781E-002  0.1712322E+03  0.7818608E-02  0.1176569E+00
          2   -1    0    0  502    0  0.00000000000E+00  0.00000000000E+00  0.29796977069E+04  0.29796977069E+04  0.00000000000E+00 0. -1.
         -2   -1    0    0    0  501 -0.00000000000E+00 -0.00000000000E+00 -0.13953182456E+02  0.13953182456E+02  0.00000000000E+00 0.  1.
          6    2    1    2  502    0  0.11885063674E+02 -0.10235458383E+02  0.67712355530E+03  0.69871660776E+03  0.17164664132E+03 0.  0.
         24    2    3    3    0    0 -0.51493482949E+01  0.71831622770E+01  0.14221572490E+03  0.16323359537E+03  0.79635297708E+02 0.  0.
         -6    2    1    2    0  501 -0.11885063674E+02  0.10235458383E+02  0.22886209692E+04  0.22949342816E+04  0.16938535083E+03 0.  0.
        -24    2    5    5    0    0 -0.15955938796E+02  0.52775801882E+02  0.79619487941E+03  0.80188907928E+03  0.77845566426E+02 0.  0.
          5    1    3    3  502    0  0.17034411969E+02 -0.17418620660E+02  0.53490783040E+03  0.53548301240E+03  0.47000000000E+01 0. -1.
        -13    1    4    4    0    0  0.29921299218E+02 -0.54526917247E+01  0.10946879981E+03  0.11361529002E+03  0.00000000000E+00 0.  1.
         14    1    4    4    0    0 -0.35070647513E+02  0.12635854002E+02  0.32746925086E+02  0.49618305351E+02  0.00000000000E+00 0. -1.
         -5    1    5    5    0  501  0.40708751224E+01 -0.42540343499E+02  0.14924260898E+04  0.14930452024E+04  0.47000000000E+01 0.  1.
         13    1    6    6    0    0  0.12222969676E+02 -0.14928148322E+02  0.25808653732E+03  0.25880670653E+03  0.00000000000E+00 0. -1.
        -14    1    6    6    0    0 -0.28178908472E+02  0.67703950204E+02  0.53810834209E+03  0.54308237275E+03  0.00000000000E+00 0.  1.
</event>
<event>
12    1  0.1345781E-002  0.2303077E+03  0.7818608E-02  0.1126423E+00
          2   -1    0    0  502    0  0.00000000000E+00  0.00000000000E+00  0.28709057917E+04  0.28709057917E+04  0.00000000000E+00 0.  1.
         -2   -1    0    0    0  501 -0.00000000000E+00 -0.00000000000E+00 -0.31583106440E+02  0.31583106440E+02  0.00000000000E+00 0. -1.
          6    2    1    2  502    0 -0.88904089907E+02  0.12732750105E+03  0.23592281105E+04  0.23705695271E+04  0.17183240518E+03 0.  0.
         24    2    3    3    0    0  0.42234258309E+01  0.74419455961E+02  0.16082278063E+04  0.16119553021E+04  0.80293998411E+02 0.  0.
         -6    2    1    2    0  501  0.88904089907E+02 -0.12732750105E+03  0.48009457477E+03  0.53191937110E+03  0.16831870634E+03 0.  0.
        -24    2    5    5    0    0  0.92113381748E+02 -0.15556487442E+03  0.44334409635E+03  0.48522529789E+03  0.78767358042E+02 0.  0.
          5    1    3    3  502    0 -0.93127515738E+02  0.52908045086E+02  0.75100030419E+03  0.75861422496E+03  0.47000000000E+01 0. -1.
        -13    1    4    4    0    0  0.38504659266E+02  0.30910218910E+02  0.52652120199E+03  0.52883137820E+03  0.00000000000E+00 0.  1.
         14    1    4    4    0    0 -0.34281233435E+02  0.43509237052E+02  0.10817066043E+04  0.10831239239E+04  0.00000000000E+00 0. -1.
         -5    1    5    5    0  501 -0.32092918404E+01  0.28237373373E+02  0.36750478421E+02  0.46694073213E+02  0.47000000000E+01 0.  1.
         13    1    6    6    0    0 -0.70400038135E+01 -0.22328359069E+02  0.21194441533E+02  0.31580399369E+02  0.00000000000E+00 0. -1.
        -14    1    6    6    0    0  0.99153385561E+02 -0.13323651535E+03  0.42214965482E+03  0.45364489852E+03  0.00000000000E+00 0.  1.
</event>
<event>
12    1  0.1345781E-002  0.1953850E+03  0.7818608E-02  0.1153692E+00
          2   -1    0    0  502    0  0.00000000000E+00  0.00000000000E+00  0.43788880842E+03  0.43788880842E+03  0.00000000000E+00 0.  1.
         -2   -1    0    0    0  501 -0.00000000000E+00 -0.00000000000E+00 -0.89349779089E+02  0.89349779089E+02  0.00000000000E+00 0. -1.
          6    2    1    2  502    0  0.69511178038E+02  0.46368787400E+02  0.13769726354E+03  0.24287369379E+03  0.18178346028E+03 0.  0.
         24    2    3    3    0    0  0.57654077588E+01  0.76498188713E+02  0.13189696060E+03  0.17197208897E+03  0.79324513018E+02 0.  0.
         -6    2    1    2    0  501 -0.69511178038E+02 -0.46368787400E+02  0.21084176579E+03  0.28436489371E+03  0.17154379692E+03 0.  0.
        -24    2    5    5    0    0  0.28511073992E+02 -0.46128776935E+02  0.14401633187E+03  0.16563769331E+03  0.61273127860E+02 0.  0.
          5    1    3    3  502    0  0.63745770279E+02 -0.30129401314E+02  0.58003029390E+01  0.70901604821E+02  0.47000000000E+01 0. -1.
        -13    1    4    4    0    0  0.16933047731E+02  0.83387390216E+02  0.13394995951E+03  0.15869082079E+03  0.00000000000E+00 0.  1.
         14    1    4    4    0    0 -0.11167639973E+02 -0.68892015026E+01 -0.20529989027E+01  0.13281268177E+02  0.00000000000E+00 0. -1.
         -5    1    5    5    0  501 -0.98022252030E+02 -0.24001046494E+00  0.66825433917E+02  0.11872720041E+03  0.47000000000E+01 0.  1.
         11    1    6    6    0    0  0.31837188413E+02 -0.10889054689E+02  0.26276493831E+02  0.42692296801E+02  0.00000000000E+00 0. -1.
        -12    1    6    6    0    0 -0.33261144212E+01 -0.35239722246E+02  0.11773983804E+03  0.12294539651E+03  0.00000000000E+00 0.  1.
</event>
<event>
12    1  0.1345781E-002  0.1781013E+03  0.7818608E-02  0.1169653E+00
         -1   -1    0    0    0  501 -0.00000000000E+00  0.00000000000E+00  0.11917521554E+02  0.11917521554E+02  0.00000000000E+00 0. -1.
          1   -1    0    0  502    0  0.00000000000E+00 -0.00000000000E+00 -0.27122718116E+04  0.27122718116E+04  0.00000000000E+00 0.  1.
          6    2    1    2  502    0  0.99113280577E+01  0.47003820785E+02 -0.11614774369E+04  0.11750002390E+04  0.17113775681E+03 0.  0.
         24    2    3    3    0    0  0.41459781885E+02  0.68937914622E+02 -0.99586344984E+03  0.10049223389E+04  0.10795159537E+03 0.  0.
         -6    2    1    2    0  501 -0.99113280577E+01 -0.47003820785E+02 -0.15388768532E+04  0.15491890941E+04  0.17186415122E+03 0.  0.
        -24    2    5    5    0    0 -0.67867827830E+02 -0.12895473748E+02 -0.71734740602E+03  0.72489845499E+03  0.78218500490E+02 0.  0.
          5    1    3    3  502    0 -0.31548453827E+02 -0.21934093837E+02 -0.16561398701E+03  0.17007790011E+03  0.47000000000E+01 0. -1.
        -13    1    4    4    0    0  0.30347245839E+02 -0.22821293017E+02 -0.18857603366E+03  0.19236082557E+03  0.00000000000E+00 0.  1.
         14    1    4    4    0    0  0.11112536046E+02  0.91759207639E+02 -0.80728741619E+03  0.81256151335E+03  0.00000000000E+00 0. -1.
         -5    1    5    5    0  501  0.57956499772E+02 -0.34108347036E+02 -0.82152944719E+03  0.82429063915E+03  0.47000000000E+01 0.  1.
         13    1    6    6    0    0 -0.53657313711E+02  0.27572221040E+02 -0.47063065156E+03  0.47448134302E+03  0.00000000000E+00 0. -1.
        -14    1    6    6    0    0 -0.14210514119E+02 -0.40467694788E+02 -0.24671675446E+03  0.25041711197E+03  0.00000000000E+00 0.  1.
</event>
<event>
12    1  0.1345781E-002  0.1783916E+03  0.7818608E-02  0.1169369E+00
         -2   -1    0    0    0  501 -0.00000000000E+00  0.00000000000E+00  0.15896717980E+02  0.15896717980E+02  0.00000000000E+00 0.  1.
          2   -1    0    0  502    0  0.00000000000E+00 -0.00000000000E+00 -0.20930865433E+04  0.20930865433E+04  0.00000000000E+00 0. -1.
          6    2    1    2  502    0  0.29183828680E+02  0.31543875203E+02 -0.81587431517E+03  0.83504857906E+03  0.17265143879E+03 0.  0.
         24    2    3    3    0    0  0.78692326621E+02  0.22099427929E+02 -0.39398499867E+03  0.41013332360E+03  0.79399603016E+02 0.  0.
         -6    2    1    2    0  501 -0.29183828680E+02 -0.31543875203E+02 -0.12613155102E+04  0.12739346822E+04  0.17362616883E+03 0.  0.
        -24    2    5    5    0    0 -0.48126817166E+02  0.20375042126E+02 -0.10853438276E+04  0.10894284930E+04  0.78433949607E+02 0.  0.
          5    1    3    3  502    0 -0.49508497940E+02  0.94444472733E+01 -0.42188931650E+03  0.42491525546E+03  0.47000000000E+01 0. -1.
        -11    1    4    4    0    0  0.90212932858E+02  0.31978795433E+02 -0.36588549775E+03  0.37819732162E+03  0.00000000000E+00 0.  1.
         12    1    4    4    0    0 -0.11520606237E+02 -0.98793675035E+01 -0.28099500922E+02  0.31936001979E+02  0.00000000000E+00 0. -1.
         -5    1    5    5    0  501  0.18942988485E+02 -0.51918917329E+02 -0.17597168256E+03  0.18450618920E+03  0.47000000000E+01 0.  1.
         13    1    6    6    0    0  0.15914753092E+02  0.20146776156E+02 -0.48485622365E+03  0.48553550804E+03  0.00000000000E+00 0. -1.
        -14    1    6    6    0    0 -0.64041570258E+02  0.22826596957E+00 -0.60048760396E+03  0.60389298500E+03  0.00000000000E+00 0.  1.
</event>
<event>
12    1  0.1345781E-002  0.3060516E+03  0.7818608E-02  0.1082254E+00
          2   -1    0    0  502    0  0.00000000000E+00  0.00000000000E+00  0.43087607253E+03  0.43087607253E+03  0.00000000000E+00 0.  1.
         -2   -1    0    0    0  501 -0.00000000000E+00 -0.00000000000E+00 -0.32414456397E+03  0.32414456397E+03  0.00000000000E+00 0. -1.
          6    2    1    2  502    0  0.23489129412E+03  0.95757677790E+02 -0.16330775312E+03  0.34670495727E+03  0.17085506214E+03 0.  0.
         24    2    3    3    0    0  0.14815287953E+03 -0.13089866353E+02 -0.86729129143E+02  0.18777819401E+03  0.74953905761E+02 0.  0.
         -6    2    1    2    0  501 -0.23489129412E+03 -0.95757677790E+02  0.27003926168E+03  0.40831567923E+03  0.17163052801E+03 0.  0.
        -24    2    5    5    0    0 -0.49004876578E+02 -0.66460927693E+02  0.65602482115E+02  0.13041543340E+03  0.76720054552E+02 0.  0.
          5    1    3    3  502    0  0.86738414588E+02  0.10884754414E+03 -0.76578623979E+02  0.15892676326E+03  0.47000000000E+01 0. -1.
        -13    1    4    4    0    0  0.14238008926E+03  0.70664903076E+01 -0.62269065816E+02  0.15556176157E+03  0.00000000000E+00 0.  1.
         14    1    4    4    0    0  0.57727902658E+01 -0.20156356660E+02 -0.24460063328E+02  0.32216432442E+02  0.00000000000E+00 0. -1.
         -5    1    5    5    0  501 -0.18588641754E+03 -0.29296750098E+02  0.20443677957E+03  0.27790024583E+03  0.47000000000E+01 0.  1.
         11    1    6    6    0    0 -0.58861801864E+02 -0.20193202655E+02  0.21779535064E+02  0.65930458058E+02  0.00000000000E+00 0. -1.
        -12    1    6    6    0    0  0.98569252860E+01 -0.46267725038E+02  0.43822947051E+02  0.64484975339E+02  0.00000000000E+00 0.  1.
</event>
<event>
12    1  0.1345781E-002  0.1807020E+03  0.7818608E-02  0.1167125E+00
         -2   -1    0    0    0  501 -0.00000000000E+00  0.00000000000E+00  0.47286902310E+02  0.47286902310E+02  0.00000000000E+00 0.  1.
          2   -1    0    0  502    0  0.00000000000E+00 -0.00000000000E+00 -0.84501613522E+03  0.84501613522E+03  0.00000000000E+00 0. -1.
          6    2    1    2  502    0  0.57954868180E+01 -0.54498683201E+02 -0.20844104727E+03  0.27598626123E+03  0.17238634535E+03 0.  0.
         24    2    3    3    0    0  0.71035512844E+02 -0.25396700355E+02 -0.12231878823E+03  0.16399376191E+03  0.79000199481E+02 0.  0.
         -6    2    1    2    0  501 -0.57954868180E+01  0.54498683201E+02 -0.58928818564E+03  0.61631677630E+03  0.17199450246E+03 0.  0.
        -24    2    5    5    0    0  0.33412610055E+01  0.10310425233E+03 -0.40271023535E+03  0.42323802800E+03  0.79455923728E+02 0.  0.
          5    1    3    3  502    0 -0.65240026026E+02 -0.29101982846E+02 -0.86122259041E+02  0.11199249932E+03  0.47000000000E+01 0. -1.
        -11    1    4    4    0    0  0.42661594320E+02 -0.29431982689E+01 -0.72539559165E+01  0.43373885259E+02  0.00000000000E+00 0.  1.
         12    1    4    4    0    0  0.28373918524E+02 -0.22453502086E+02 -0.11506483232E+03  0.12061987666E+03  0.00000000000E+00 0. -1.
         -5    1    5    5    0  501 -0.91367478236E+01 -0.48605569129E+02 -0.18657795029E+03  0.19307874830E+03  0.47000000000E+01 0.  1.
         13    1    6    6    0    0 -0.11486844951E+02  0.10807064197E+03 -0.38275710870E+03  0.39788718945E+03  0.00000000000E+00 0. -1.
        -14    1    6    6    0    0  0.14828105956E+02 -0.49663896421E+01 -0.19953126647E+02  0.25350838553E+02  0.00000000000E+00 0.  1.
</event>
<event>
12    1  0.1345781E-002  0.1952781E+03  0.7818608E-02  0.1153785E+00
         -1   -1    0    0    0  501 -0.00000000000E+00  0.00000000000E+00  0.66975017100E+02  0.66975017100E+02  0.00000000000E+00 0. -1.
          1   -1    0    0  502    0  0.00000000000E+00 -0.00000000000E+00 -0.56948594229E+03  0.56948594229E+03  0.00000000000E+00 0.  1.
          6    2    1    2  502    0 -0.51183652057E+02  0.76653926859E+02 -0.24721178194E+03  0.31526178221E+03  0.17257095774E+03 0.  0.
         24    2    3    3    0    0 -0.38243156742E+02  0.38514244486E+02 -0.44789140229E+02  0.10881782452E+03  0.83002203496E+02 0.  0.
         -6    2    1    2    0  501  0.51183652057E+02 -0.76653926859E+02 -0.25529914325E+03  0.32119917718E+03  0.17174302936E+03 0.  0.
        -24    2    5    5    0    0  0.43723053383E+02 -0.11882146293E+03 -0.21665833176E+03  0.26332894352E+03  0.79818884512E+02 0.  0.
          5    1    3    3  502    0 -0.12940495315E+02  0.38139682373E+02 -0.20242264171E+03  0.20644395769E+03  0.47000000000E+01 0. -1.
        -13    1    4    4    0    0 -0.33665185453E+02 -0.10389696478E+02 -0.48060650090E+02  0.59591245931E+02  0.00000000000E+00 0.  1.
         14    1    4    4    0    0 -0.45779712886E+01  0.48903940964E+02  0.32715098611E+01  0.49226578591E+02  0.00000000000E+00 0. -1.
         -5    1    5    5    0  501  0.74605986733E+01  0.42167536071E+02 -0.38640811492E+02  0.57870233658E+02  0.47000000000E+01 0.  1.
         13    1    6    6    0    0 -0.79937649538E+01 -0.15786374667E+02  0.23893963644E+00  0.17696524953E+02  0.00000000000E+00 0. -1.
        -14    1    6    6    0    0  0.51716818337E+02 -0.10303508826E+03 -0.21689727140E+03  0.24563241857E+03  0.00000000000E+00 0.  1.
</event>
<event>
12    1  0.1345781E-002  0.3263804E+03  0.7818608E-02  0.1072750E+00
         -2   -1    0    0    0  501 -0.00000000000E+00  0.00000000000E+00  0.77019782972E+02  0.77019782972E+02  0.00000000000E+00 0. -1.
          2   -1    0    0  502    0  0.00000000000E+00 -0.00000000000E+00 -0.13862017650E+04  0.13862017650E+04  0.00000000000E+00 0.  1.
          6    2    1    2  502    0  0.25279942259E+03  0.12103318402E+03 -0.69246309374E+03  0.76623745244E+03  0.17046441750E+03 0.  0.
         24    2    3    3    0    0  0.20206615632E+03  0.13855954696E+03 -0.45820249765E+03  0.52586034333E+03  0.80932640195E+02 0.  0.
         -6    2    1    2    0  501 -0.25279942259E+03 -0.12103318402E+03 -0.61671888826E+03  0.69698409551E+03  0.16397579867E+03 0.  0.
        -24    2    5    5    0    0 -0.13030952632E+03 -0.83196198833E+01 -0.34886398757E+03  0.38158520512E+03  0.82773173309E+02 0.  0.
          5    1    3    3  502    0  0.50733266271E+02 -0.17526362938E+02 -0.23426059609E+03  0.24037710911E+03  0.47000000000E+01 0. -1.
        -13    1    4    4    0    0  0.87095688421E+01  0.38055501975E+02 -0.53670314657E+02  0.66367013608E+02  0.00000000000E+00 0.  1.
         14    1    4    4    0    0  0.19335658748E+03  0.10050404498E+03 -0.40453218299E+03  0.45949332972E+03  0.00000000000E+00 0. -1.
         -5    1    5    5    0  501 -0.12248989627E+03 -0.11271356414E+03 -0.26785490070E+03  0.31539889039E+03  0.47000000000E+01 0.  1.
         11    1    6    6    0    0  0.45092078700E+00 -0.42002496370E+01  0.36470041336E+01  0.55808660367E+01  0.00000000000E+00 0. -1.
        -12    1    6    6    0    0 -0.13076044711E+03 -0.41193702462E+01 -0.35251099170E+03  0.37600433908E+03  0.00000000000E+00 0.  1.
</event>
<event>
12    1  0.1345781E-002  0.2010289E+03  0.7818608E-02  0.1148874E+00
         -1   -1    0    0    0  501 -0.00000000000E+00  0.00000000000E+00  0.27856514867E+02  0.27856514867E+02  0.00000000000E+00 0. -1.
          1   -1    0    0  502    0  0.00000000000E+00 -0.00000000000E+00 -0.15562607807E+04  0.15562607807E+04  0.00000000000E+00 0.  1.
          6    2    1    2  502    0  0.93947641850E+02  0.42259622107E+02 -0.55878342774E+03  0.59392345113E+03  0.17289913711E+03 0.  0.
         24    2    3    3    0    0  0.30317920327E+02  0.24418955731E+02 -0.49066171145E+03  0.49889877503E+03  0.81459259440E+02 0.  0.
         -6    2    1    2    0  501 -0.93947641850E+02 -0.42259622107E+02 -0.96962083806E+03  0.99019384441E+03  0.17235789749E+03 0.  0.
        -24    2    5    5    0    0 -0.12015720171E+02 -0.46432701496E+02 -0.74659616792E+03  0.75251265484E+03  0.81049888609E+02 0.  0.
          5    1    3    3  502    0  0.63629721523E+02  0.17840666376E+02 -0.68121716288E+02  0.95024676100E+02  0.47000000000E+01 0. -1.
        -13    1    4    4    0    0 -0.12602670347E+02 -0.52335856706E+01 -0.32346178128E+03  0.32374950450E+03  0.00000000000E+00 0.  1.
         14    1    4    4    0    0  0.42920590674E+02  0.29652541402E+02 -0.16719993017E+03  0.17514927053E+03  0.00000000000E+00 0. -1.
         -5    1    5    5    0  501 -0.81931921680E+02  0.41730793890E+01 -0.22302467014E+03  0.23768118957E+03  0.47000000000E+01 0.  1.
         13    1    6    6    0    0 -0.50638114113E+01 -0.32186064321E+02 -0.89849063213E+02  0.95574259519E+02  0.00000000000E+00 0. -1.
        -14    1    6    6    0    0 -0.69519087592E+01 -0.14246637175E+02 -0.65674710471E+03  0.65693839532E+03  0.00000000000E+00 0.  1.
</event>
<event>
12    1  0.1345781E-002  0.2036206E+03  0.7818608E-02  0.1146720E+00
          2   -1    0    0  502    0  0.00000000000E+00  0.00000000000E+00  0.41587607017E+03  0.41587607017E+03  0.00000000000E+00 0. -1.
         -2   -1    0    0    0  501 -0.00000000000E+00 -0.00000000000E+00 -0.10036061654E+03  0.10036061654E+03  0.00000000000E+00 0.  1.
          6    2    1    2  502    0  0.71289533887E+02  0.82358118492E+02  0.13719655704E+03  0.24598853945E+03  0.17269165860E+03 0.  0.
         24    2    3    3    0    0  0.41036040667E+02  0.11756531521E+03  0.69457181450E+02  0.16373567592E+03  0.80495413171E+02 0.  0.
         -6    2    1    2    0  501 -0.71289533887E+02 -0.82358118492E+02  0.17831889658E+03  0.27024814726E+03  0.17138078918E+03 0.  0.
        -24    2    5    5    0    0 -0.28359941083E+02 -0.59518828467E+02  0.21853557194E+02  0.10633330493E+03  0.80513455868E+02 0.  0.
          5    1    3    3  502    0  0.30253493221E+02 -0.35207196714E+02  0.67739375590E+02  0.82252863524E+02  0.47000000000E+01 0. -1.
        -11    1    4    4    0    0  0.64162368336E+02  0.67877736331E+02  0.46093836254E+02  0.10415775699E+03  0.00000000000E+00 0.  1.
         12    1    4    4    0    0 -0.23126327669E+02  0.49687578874E+02  0.23363345196E+02  0.59577918935E+02  0.00000000000E+00 0. -1.
         -5    1    5    5    0  501 -0.42929592805E+02 -0.22839290025E+02  0.15646533939E+03  0.16391484233E+03  0.47000000000E+01 0.  1.
         11    1    6    6    0    0 -0.48438508088E+02 -0.11968393798E+02 -0.95091089321E+00  0.49904265824E+02  0.00000000000E+00 0. -1.
        -12    1    6    6    0    0  0.20078567005E+02 -0.47550434668E+02  0.22804468087E+02  0.56429039110E+02  0.00000000000E+00 0.  1.
</event>
<event>
12    1  0.1345781E-002  0.1823471E+03  0.7818608E-02  0.1165551E+00
          1   -1    0    0  502    0  0.00000000000E+00  0.00000000000E+00  0.28065420939E+03  0.28065420939E+03  0.00000000000E+00 0. -1.
         -1   -1    0    0    0  501 -0.00000000000E+00 -0.00000000000E+00 -0.11860226927E+03  0.11860226927E+03  0.00000000000E+00 0.  1.
          6    2    1    2  502    0 -0.60160241232E+02 -0.66009824485E+01  0.87201486031E+02  0.20147477284E+03  0.17124589726E+03 0.  0.
         24    2    3    3    0    0 -0.53744205558E+02  0.50000136988E+02  0.20655522889E+02  0.11375187135E+03  0.84406067788E+02 0.  0.
         -6    2    1    2    0  501  0.60160241232E+02  0.66009824485E+01  0.74850454084E+02  0.19778170582E+03  0.17277784894E+03 0.  0.
        -24    2    5    5    0    0  0.62566633896E+01 -0.41794948038E+02  0.87249960891E+02  0.12413661392E+03  0.77533087915E+02 0.  0.
          5    1    3    3  502    0 -0.64160356736E+01 -0.56601119436E+02  0.66545963142E+02  0.87722901489E+02  0.47000000000E+01 0. -1.
        -11    1    4    4    0    0  0.42515468459E+01  0.52279748927E+02  0.18674598695E+02  0.55677539771E+02  0.00000000000E+00 0.  1.
         12    1    4    4    0    0 -0.57995752404E+02 -0.22796119391E+01  0.19809241936E+01  0.58074331578E+02  0.00000000000E+00 0. -1.
         -5    1    5    5    0  501  0.53903577842E+02  0.48395930486E+02 -0.12399506807E+02  0.73645091900E+02  0.47000000000E+01 0.  1.
         13    1    6    6    0    0 -0.35304021324E+02 -0.13969800562E+02  0.32466107597E+02  0.49955754342E+02  0.00000000000E+00 0. -1.
        -14    1    6    6    0    0  0.41560684714E+02 -0.27825147476E+02  0.54783853294E+02  0.74180859577E+02  0.00000000000E+00 0.  1.
</event>
<event>
12    1  0.1345781E-002  0.1998276E+03  0.7818608E-02  0.1149885E+00
          1   -1    0    0  502    0  0.00000000000E+00  0.00000000000E+00  0.78237003111E+03  0.78237003111E+03  0.00000000000E+00 0. -1.
         -1   -1    0    0    0  501 -0.00000000000E+00 -0.00000000000E+00 -0.51056919382E+02  0.51056919382E+02  0.00000000000E+00 0.  1.
          6    2    1    2  502    0 -0.70331623657E+02 -0.57203075684E+02  0.35995717379E+03  0.40991574022E+03  0.17390519820E+03 0.  0.
         24    2    3    3    0    0 -0.43254086149E+02 -0.10596235003E+03  0.27629109719E+03  0.30925411771E+03  0.78755338504E+02 0.  0.
         -6    2    1    2    0  501  0.70331623657E+02  0.57203075684E+02  0.37135593794E+03  0.42351121027E+03  0.18231232386E+03 0.  0.
        -24    2    5    5    0    0  0.94025346499E+02  0.44890971377E+02  0.37439405003E+03  0.39622933828E+03  0.77271072966E+02 0.  0.
          5    1    3    3  502    0 -0.27077537507E+02  0.48759274343E+02  0.83666076605E+02  0.10066162251E+03  0.47000000000E+01 0. -1.
        -13    1    4    4    0    0  0.54412356461E+01 -0.32672856576E+02  0.20986964713E+02  0.39211927906E+02  0.00000000000E+00 0.  1.
         14    1    4    4    0    0 -0.48695321795E+02 -0.73289493451E+02  0.25530413248E+03  0.27004218980E+03  0.00000000000E+00 0. -1.
         -5    1    5    5    0  501 -0.23693722842E+02  0.12312104307E+02 -0.30381120943E+01  0.27281871997E+02  0.47000000000E+01 0.  1.
         13    1    6    6    0    0  0.55631451639E+02 -0.15618900853E+02  0.15443540879E+03  0.16489118826E+03  0.00000000000E+00 0. -1.
        -14    1    6    6    0    0  0.38393894859E+02  0.60509872231E+02  0.21995864124E+03  0.23133815002E+03  0.00000000000E+00 0.  1.
</event>
<event>
12    1  0.1345781E-002  0.2910341E+03  0.7818608E-02  0.1089810E+00
         -2   -1    0    0    0  501 -0.00000000000E+00  0.00000000000E+00  0.31342459716E+02  0.31342459716E+02  0.00000000000E+00 0.  1.
          2   -1    0    0  502    0  0.00000000000E+00 -0.00000000000E+00 -0.28188517142E+04  0.28188517142E+04  0.00000000000E+00 0. -1.
          6    2    1    2  502    0 -0.21157115029E+03 -0.10408636251E+03 -0.16804463747E+04  0.17053542154E+04  0.16951890534E+03 0.  0.
         24    2    3    3    0    0 -0.10737393990E+03 -0.12329582935E+03 -0.11556794658E+04  0.11699772819E+04  0.80751395988E+02 0.  0.
         -6    2    1    2    0  501  0.21157115029E+03  0.10408636251E+03 -0.11070628798E+04  0.11448399586E+04  0.17167990073E+03 0.  0.
        -24    2    5    5    0    0  0.89060735943E+02  0.11282068224E+02 -0.68841687524E+03  0.69884892073E+03  0.80080710176E+02 0.  0.
          5    1    3    3  502    0 -0.10419721038E+03  0.19209466841E+02 -0.52476690885E+03  0.53537693347E+03  0.47000000000E+01 0. -1.
        -11    1    4    4    0    0 -0.13383383773E+02  0.48850503032E+01 -0.30947079797E+02  0.34069053783E+02  0.00000000000E+00 0.  1.
         12    1    4    4    0    0 -0.93990556131E+02 -0.12818087966E+03 -0.11247323860E+04  0.11359082281E+04  0.00000000000E+00 0. -1.
         -5    1    5    5    0  501  0.12251041434E+03  0.92804294288E+02 -0.41864600459E+03  0.44599103783E+03  0.47000000000E+01 0.  1.
         13    1    6    6    0    0  0.84287278594E+02  0.29591418001E+02 -0.40190968030E+03  0.41171760768E+03  0.00000000000E+00 0. -1.
        -14    1    6    6    0    0  0.47734573499E+01 -0.18309349778E+02 -0.28650719494E+03  0.28713131306E+03  0.00000000000E+00 0.  1.
</event>
<event>
12    1  0.1345781E-002  0.2037685E+03  0.7818608E-02  0.1146598E+00
         -1   -1    0    0    0  501 -0.00000000000E+00  0.00000000000E+00  0.20105856534E+02  0.20105856534E+02  0.00000000000E+00 0.  1.
          1   -1    0    0  502    0  0.00000000000E+00 -0.00000000000E+00 -0.20780529315E+04  0.20780529315E+04  0.00000000000E+00 0. -1.
          6    2    1    2  502    0  0.69478846073E+02 -0.83697293285E+02 -0.11171004620E+04  0.11357366490E+04  0.17364258310E+03 0.  0.
         24    2    3    3    0    0  0.75953813984E+02 -0.11439163659E+03 -0.70743065668E+03  0.72484066783E+03  0.77983532631E+02 0.  0.
         -6    2    1    2    0  501 -0.69478846073E+02  0.83697293285E+02 -0.94084661291E+03  0.96242213901E+03  0.17097215466E+03 0.  0.
        -24    2    5    5    0    0 -0.10144520792E+03  0.20408837377E+02 -0.58878109852E+03  0.60325714438E+03  0.80921872327E+02 0.  0.
          5    1    3    3  502    0 -0.64749679103E+01  0.30694343309E+02 -0.40966980535E+03  0.41089598116E+03  0.47000000000E+01 0. -1.
        -13    1    4    4    0    0  0.27877979188E+02 -0.73239372765E+02 -0.54347427642E+03  0.54909514346E+03  0.00000000000E+00 0.  1.
         14    1    4    4    0    0  0.48075834796E+02 -0.41152263829E+02 -0.16395638026E+03  0.17574552437E+03  0.00000000000E+00 0. -1.
         -5    1    5    5    0  501  0.31966361842E+02  0.63288455907E+02 -0.35206551439E+03  0.35916499462E+03  0.47000000000E+01 0.  1.
         13    1    6    6    0    0 -0.16656996100E+02  0.16138351315E+02 -0.33193582558E+03  0.33274508893E+03  0.00000000000E+00 0. -1.
        -14    1    6    6    0    0 -0.84788211815E+02  0.42704860627E+01 -0.25684527294E+03  0.27051205545E+03  0.00000000000E+00 0.  1.
</event>
<event>
12    1  0.1345781E-002  0.1816661E+03  0.7818608E-02  0.1166200E+00
         -2   -1    0    0    0  501 -0.00000000000E+00  0.00000000000E+00  0.26850084714E+02  0.26850084714E+02  0.00000000000E+00 0. -1.
          2   -1    0    0  502    0  0.00000000000E+00 -0.00000000000E+00 -0.13412647926E+04  0.13412647926E+04  0.00000000000E+00 0.  1.
          6    2    1    2  502    0  0.30429614182E+02  0.53031039560E+02 -0.85980431348E+03  0.87909436980E+03  0.17264182855E+03 0.  0.
         24    2    3    3    0    0  0.21715290199E+02  0.98985147436E+02 -0.51058423739E+03  0.52672457680E+03  0.80454354128E+02 0.  0.
         -6    2    1    2    0  501 -0.30429614182E+02 -0.53031039560E+02 -0.45461039437E+03  0.48902050747E+03  0.16950573290E+03 0.  0.
        -24    2    5    5    0    0  0.22781649886E+02  0.25822921151E+01 -0.12058613349E+03  0.14621067952E+03  0.79441018451E+02 0.  0.
          5    1    3    3  502    0  0.87143239829E+01 -0.45954107876E+02 -0.34922007609E+03  0.35236979300E+03  0.47000000000E+01 0. -1.
        -13    1    4    4    0    0  0.12436713805E+02  0.70475352280E+02 -0.47424248008E+03  0.47961169402E+03  0.00000000000E+00 0.  1.
         14    1    4    4    0    0  0.92785763942E+01  0.28509795156E+02 -0.36341757304E+02  0.47112882778E+02  0.00000000000E+00 0. -1.
         -5    1    5    5    0  501 -0.53211264068E+02 -0.55613331675E+02 -0.33402426088E+03  0.34280982795E+03  0.47000000000E+01 0.  1.
         13    1    6    6    0    0 -0.23782243639E+02  0.71857363352E+01 -0.11229287206E+02  0.27264020436E+02  0.00000000000E+00 0. -1.
        -14    1    6    6    0    0  0.46563893525E+02 -0.46034442201E+01 -0.10935684628E+03  0.11894665909E+03  0.00000000000E+00 0.  1.
</event>
<event>
12    1  0.1345781E-002  0.4272924E+03  0.7818608E-02  0.1034719E+00
         -1   -1    0    0    0  501 -0.00000000000E+00  0.00000000000E+00  0.45262651914E+03  0.45262651914E+03  0.00000000000E+00 0. -1.
          1   -1    0    0  502    0  0.00000000000E+00 -0.00000000000E+00 -0.41036424574E+03  0.41036424574E+03  0.00000000000E+00 0.  1.
          6    2    1    2  502    0  0.34114704373E+03  0.19215674233E+03  0.77463756586E+02  0.43482250928E+03  0.17252380104E+03 0.  0.
         24    2    3    3    0    0  0.24203125639E+03  0.67783818232E+02  0.76013716861E+02  0.27571010825E+03  0.84048816495E+02 0.  0.
         -6    2    1    2    0  501 -0.34114704373E+03 -0.19215674233E+03 -0.35201483183E+02  0.42816825561E+03  0.16965668753E+03 0.  0.
        -24    2    5    5    0    0 -0.20137437652E+03 -0.16891084283E+03 -0.68191378822E+02  0.28261004197E+03  0.78331726222E+02 0.  0.
          5    1    3    3  502    0  0.99115787338E+02  0.12437292410E+03  0.14500397247E+01  0.15911240104E+03  0.47000000000E+01 0. -1.
        -11    1    4    4    0    0  0.18265016959E+03  0.49127593318E+02  0.16942898189E+02  0.18989909604E+03  0.00000000000E+00 0.  1.
         12    1    4    4    0    0  0.59381086795E+02  0.18656224914E+02  0.59070818672E+02  0.85811012205E+02  0.00000000000E+00 0. -1.
         -5    1    5    5    0  501 -0.13977266721E+03 -0.23245899496E+02  0.32989895639E+02  0.14555821364E+03  0.47000000000E+01 0.  1.
         13    1    6    6    0    0 -0.62708846462E+02 -0.52092197191E+02  0.15383347603E+02  0.82961700900E+02  0.00000000000E+00 0. -1.
        -14    1    6    6    0    0 -0.13866553005E+03 -0.11681864564E+03 -0.83574726425E+02  0.19964834107E+03  0.00000000000E+00 0.  1.
</event>
<event>
12    1  0.1345781E-002  0.1891892E+03  0.7818608E-02  0.1159195E+00
         -2   -1    0    0    0  501 -0.00000000000E+00  0.00000000000E+00  0.36534865987E+02  0.36534865987E+02  0.00000000000E+00 0.  1.
          2   -1    0    0  502    0  0.00000000000E+00 -0.00000000000E+00 -0.99859630127E+03  0.99859630127E+03  0.00000000000E+00 0. -1.
          6    2    1    2  502    0  0.42404708362E+01  0.82736912481E+02 -0.40802005713E+03  0.44944381318E+03  0.16928081967E+03 0.  0.
         24    2    3    3    0    0  0.24731253090E+02  0.72882582736E+01 -0.97018769555E+02  0.12873169546E+03  0.80588176444E+02 0.  0.
         -6    2    1    2    0  501 -0.42404708362E+01 -0.82736912481E+02 -0.55404137815E+03  0.58568735408E+03  0.17089309447E+03 0.  0.
        -24    2    5    5    0    0 -0.66931922742E+02 -0.43376766377E+02 -0.38393065319E+03  0.40010937050E+03  0.79519404885E+02 0.  0.
          5    1    3    3  502    0 -0.20490782254E+02  0.75448654207E+02 -0.31100128758E+03  0.32071211772E+03  0.47000000000E+01 0. -1.
        -13    1    4    4    0    0 -0.11598988315E+02 -0.30226067264E+02 -0.38279689176E+02  0.50134681366E+02  0.00000000000E+00 0.  1.
         14    1    4    4    0    0  0.36330241406E+02  0.37514325538E+02 -0.58739080379E+02  0.78597014097E+02  0.00000000000E+00 0. -1.
         -5    1    5    5    0  501  0.62691451906E+02 -0.39360146104E+02 -0.17011072496E+03  0.18557798358E+03  0.47000000000E+01 0.  1.
         11    1    6    6    0    0 -0.93396143158E+01  0.10725691802E+02 -0.87510924810E+01  0.16698816719E+02  0.00000000000E+00 0. -1.
        -12    1    6    6    0    0 -0.57592308427E+02 -0.54102458179E+02 -0.37517956071E+03  0.38341055378E+03  0.00000000000E+00 0.  1.
</event>
<event>
12    1  0.1345781E-002  0.1736323E+03  0.7818608E-02  0.1174112E+00
         -2   -1    0    0    0  501 -0.00000000000E+00  0.00000000000E+00  0.30412446500E+03  0.30412446500E+03  0.00000000000E+00 0. -1.
          2   -1    0    0  502    0  0.00000000000E+00 -0.00000000000E+00 -0.13924701204E+03  0.13924701204E+03  0.00000000000E+00 0.  1.
          6    2    1    2  502    0  0.26225384245E+01 -0.27845152587E+02  0.20165536176E+03  0.26655542696E+03  0.17206010719E+03 0.  0.
         24    2    3    3    0    0  0.61889640240E+02 -0.46734783892E+02  0.11701485407E+03  0.16141022702E+03  0.79663779224E+02 0.  0.
         -6    2    1    2    0  501 -0.26225384245E+01  0.27845152587E+02 -0.36777908798E+02  0.17681605007E+03  0.17067240772E+03 0.  0.
        -24    2    5    5    0    0 -0.15158966077E+02  0.35654087459E+02  0.40587983169E+02  0.97912864318E+02  0.80240491127E+02 0.  0.
          5    1    3    3  502    0 -0.59267101815E+02  0.18889631305E+02  0.84640507693E+02  0.10514519994E+03  0.47000000000E+01 0. -1.
        -11    1    4    4    0    0  0.63878108941E+02  0.50783949705E+00  0.68527948251E+02  0.93684312424E+02  0.00000000000E+00 0.  1.
         12    1    4    4    0    0 -0.19884687009E+01 -0.47242623389E+02  0.48486905818E+02  0.67725914599E+02  0.00000000000E+00 0. -1.
         -5    1    5    5    0  501  0.12536427652E+02 -0.78089348723E+01 -0.77365891967E+02  0.78903185753E+02  0.47000000000E+01 0.  1.
         11    1    6    6    0    0  0.23493449509E+02  0.11272669600E+02  0.45000554834E+02  0.52000626776E+02  0.00000000000E+00 0. -1.
        -12    1    6    6    0    0 -0.38652415585E+02  0.24381417860E+02 -0.44125716652E+01  0.45912237542E+02  0.00000000000E+00 0.  1.
</event>
<event>
12    1  0.1345781E-002  0.2257913E+03  0.7818608E-02  0.1129638E+00
         -2   -1    0    0    0  501 -0.00000000000E+00  0.00000000000E+00  0.33034844751E+03  0.33034844751E+03  0.00000000000E+00 0. -1.
          2   -1    0    0  502    0  0.00000000000E+00 -0.00000000000E+00 -0.15875056975E+03  0.15875056975E+03  0.00000000000E+00 0.  1.
          6    2    1    2  502    0 -0.13296179232E+03  0.58043140630E+02  0.12646679868E+03  0.25843908278E+03  0.17247916960E+03 0.  0.
         24    2    3    3    0    0 -0.67498327451E+02  0.35459014767E+02 -0.30072947718E+01  0.11153387916E+03  0.81347381286E+02 0.  0.
         -6    2    1    2    0  501  0.13296179232E+03 -0.58043140630E+02  0.45131079080E+02  0.23065993449E+03  0.17354926300E+03 0.  0.
        -24    2    5    5    0    0  0.45874732287E+02 -0.43566062093E+02  0.86154801168E+02  0.13319826201E+03  0.79477257176E+02 0.  0.
          5    1    3    3  502    0 -0.65463464874E+02  0.22584125862E+02  0.12947409345E+03  0.14690520362E+03  0.47000000000E+01 0. -1.
        -11    1    4    4    0    0  0.12442026900E+02  0.24812927779E+02 -0.12287219252E+02  0.30355578981E+02  0.00000000000E+00 0.  1.
         12    1    4    4    0    0 -0.79940354350E+02  0.10646086989E+02  0.92799244800E+01  0.81178300181E+02  0.00000000000E+00 0. -1.
         -5    1    5    5    0  501  0.87087060038E+02 -0.14477078536E+02 -0.41023722089E+02  0.97461672482E+02  0.47000000000E+01 0.  1.
         11    1    6    6    0    0  0.56667259255E+02 -0.13037928479E-01  0.50058186750E+02  0.75610849103E+02  0.00000000000E+00 0. -1.
        -12    1    6    6    0    0 -0.10792526968E+02 -0.43553024165E+02  0.36096614418E+02  0.57587412902E+02  0.00000000000E+00 0.  1.
</event>
<event>
12    1  0.1345781E-002  0.2019443E+03  0.7818608E-02  0.1148109E+00
          2   -1    0    0  502    0  0.00000000000E+00  0.00000000000E+00  0.95573235938E+03  0.95573235938E+03  0.00000000000E+00 0.  1.
         -2   -1    0    0    0  501 -0.00000000000E+00 -0.00000000000E+00 -0.43132824798E+02  0.43132824798E+02  0.00000000000E+00 0. -1.
          6    2    1    2  502    0 -0.95805756565E+02  0.34480640856E+02  0.51250753663E+03  0.55164810197E+03  0.17687282359E+03 0.  0.
         24    2    3    3    0    0 -0.26363254848E+02 -0.27074504593E+02  0.12477504533E+03  0.15293784152E+03  0.79956997372E+02 0.  0.
         -6    2    1    2    0  501  0.95805756565E+02 -0.34480640856E+02  0.40009199795E+03  0.44721708220E+03  0.17193561063E+03 0.  0.
        -24    2    5    5    0    0  0.38678619139E+02  0.47603764087E+02  0.15701516525E+03  0.18432966151E+03  0.74575519160E+02 0.  0.
          5    1    3    3  502    0 -0.69442501717E+02  0.61555145449E+02  0.38773249130E+03  0.39871026045E+03  0.47000000000E+01 0. -1.
        -13    1    4    4    0    0  0.19863583252E+02 -0.82284019182E+01  0.88900886774E+02  0.91463851914E+02  0.00000000000E+00 0.  1.
         14    1    4    4    0    0 -0.46226838100E+02 -0.18846102675E+02  0.35874158552E+02  0.61473989610E+02  0.00000000000E+00 0. -1.
         -5    1    5    5    0  501  0.57127137426E+02 -0.82084404943E+02  0.24307683270E+03  0.26288742070E+03  0.47000000000E+01 0.  1.
         11    1    6    6    0    0  0.41920046850E+02  0.31117553356E+02  0.15905545478E+03  0.16740439107E+03  0.00000000000E+00 0. -1.
        -12    1    6    6    0    0 -0.32414277111E+01  0.16486210731E+02 -0.20402895293E+01  0.16925270433E+02  0.00000000000E+00 0.  1.
</event>
<event>
12    1  0.1345781E-002  0.1883864E+03  0.7818608E-02  0.1159925E+00
         -2   -1    0    0    0  501 -0.00000000000E+00  0.00000000000E+00  0.34054944052E+03  0.34054944052E+03  0.00000000000E+00 0.  1.
          2   -1    0    0  502    0  0.00000000000E+00 -0.00000000000E+00 -0.12244690492E+03  0.12244690492E+03  0.00000000000E+00 0. -1.
          6    2    1    2  502    0 -0.61556161324E+02 -0.49762297773E+02  0.19714548504E+02  0.18941183424E+03  0.17094657718E+03 0.  0.
         24    2    3    3    0    0 -0.35855000279E+02  0.24153592044E+02  0.52329161005E+02  0.10450063713E+03  0.79454798565E+02 0.  0.
         -6    2    1    2    0  501  0.61556161324E+02  0.49762297773E+02  0.19838798709E+03  0.27358451120E+03  0.17095392382E+03 0.  0.
        -24    2    5    5    0    0  0.88995741181E+02  0.12007527864E+01  0.82236324422E+02  0.14464866306E+03  0.78985688043E+02 0.  0.
          5    1    3    3  502    0 -0.25701161045E+02 -0.73915889818E+02 -0.32614612502E+02  0.84911197113E+02  0.47000000000E+01 0. -1.
        -13    1    4    4    0    0  0.13228330870E+02 -0.75856682242E+01  0.42597641883E+02  0.45244780848E+02  0.00000000000E+00 0.  1.
         14    1    4    4    0    0 -0.49083331148E+02  0.31739260268E+02  0.97315191226E+01  0.59255856280E+02  0.00000000000E+00 0. -1.
         -5    1    5    5    0  501 -0.27439579858E+02  0.48561544987E+02  0.11615166267E+03  0.12893584814E+03  0.47000000000E+01 0.  1.
         11    1    6    6    0    0  0.66203222787E+02 -0.74133867316E+01  0.87025013049E+01  0.67183022701E+02  0.00000000000E+00 0. -1.
        -12    1    6    6    0    0  0.22792518394E+02  0.86141395180E+01  0.73533823117E+02  0.77465640361E+02  0.00000000000E+00 0.  1.
</event>
<event>
12    1  0.1345781E-002  0.2753875E+03  0.7818608E-02  0.1098235E+00
          1   -1    0    0  502    0  0.00000000000E+00  0.00000000000E+00  0.10380707803E+04  0.10380707803E+04  0.00000000000E+00 0.  1.
         -1   -1    0    0    0  501 -0.00000000000E+00 -0.00000000000E+00 -0.81566723496E+02  0.81566723496E+02  0.00000000000E+00 0. -1.
          6    2    1    2  502    0 -0.85956996503E+02  0.19777108282E+03  0.29813868287E+03  0.40617160633E+03  0.17200782865E+03 0.  0.
         24    2    3    3    0    0 -0.28731884434E+02  0.69579874888E+02  0.47174660237E+02  0.11857339719E+03  0.78532297693E+02 0.  0.
         -6    2    1    2    0  501  0.85956996503E+02 -0.19777108282E+03  0.65836537394E+03  0.71346589747E+03  0.17054798388E+03 0.  0.
        -24    2    5    5    0    0  0.29028255831E+02 -0.12905013944E+03  0.23250266137E+03  0.27832845996E+03  0.76893861584E+02 0.  0.
          5    1    3    3  502    0 -0.57225112068E+02  0.12819120793E+03  0.25096402263E+03  0.28759820914E+03  0.47000000000E+01 0. -1.
        -13    1    4    4    0    0  0.97749809039E+01 -0.13588532203E+02  0.37400630026E+01  0.17151866673E+02  0.00000000000E+00 0.  1.
         14    1    4    4    0    0 -0.38506865338E+02  0.83168407091E+02  0.43434597235E+02  0.10142153052E+03  0.00000000000E+00 0. -1.
         -5    1    5    5    0  501  0.56928740672E+02 -0.68720943375E+02  0.42586271256E+03  0.43513743751E+03  0.47000000000E+01 0.  1.
         13    1    6    6    0    0 -0.12421361327E+02 -0.51453872363E+02  0.14452225606E+03  0.15391060293E+03  0.00000000000E+00 0. -1.
        -14    1    6    6    0    0  0.41449617157E+02 -0.77596267081E+02  0.87980405311E+02  0.12441785702E+03  0.00000000000E+00 0.  1.
</event>
<event>
12    1  0.1345781E-002  0.1839467E+03  0.7818608E-02  0.1164037E+00
         -2   -1    0    0    0  501 -0.00000000000E+00  0.00000000000E+00  0.31423260673E+03  0.31423260673E+03  0.00000000000E+00 0. -1.
          2   -1    0    0  502    0  0.00000000000E+00 -0.00000000000E+00 -0.10782222997E+03  0.10782222997E+03  0.00000000000E+00 0.  1.
          6    2    1    2  502    0  0.10110493245E+02 -0.67385033189E+02  0.11070203336E+03  0.21442400354E+03  0.17052785208E+03 0.  0.
         24    2    3    3    0    0 -0.85602039167E+01  0.21946654674E+02  0.83105504276E+02  0.11896509193E+03  0.81799972584E+02 0.  0.
         -6    2    1    2    0  501 -0.10110493245E+02  0.67385033189E+02  0.95708343400E+02  0.20763083316E+03  0.17119436647E+03 0.  0.
        -24    2    5    5    0    0 -0.40259732789E+02  0.89563861937E+01 -0.10012263066E+01  0.90593598456E+02  0.80654415188E+02 0.  0.
          5    1    3    3  502    0  0.18670697162E+02 -0.89331687863E+02  0.27596529080E+02  0.95458911613E+02  0.47000000000E+01 0. -1.
        -11    1    4    4    0    0 -0.32941890816E+02 -0.17924152996E+02  0.45606991834E+02  0.59046093311E+02  0.00000000000E+00 0.  1.
         12    1    4    4    0    0  0.24381686899E+02  0.39870807670E+02  0.37498512442E+02  0.59918998620E+02  0.00000000000E+00 0. -1.
         -5    1    5    5    0  501  0.30149239544E+02  0.58428646996E+02  0.96709569706E+02  0.11703723471E+03  0.47000000000E+01 0.  1.
         11    1    6    6    0    0  0.19786641417E+02 -0.16105031864E+02 -0.86317215470E+00  0.25527011107E+02  0.00000000000E+00 0. -1.
        -12    1    6    6    0    0 -0.60046374206E+02  0.25061418058E+02 -0.13805415187E+00  0.65066587349E+02  0.00000000000E+00 0.  1.
</event>
<event>
12    1  0.1345781E-002  0.1963092E+03  0.7818608E-02  0.1152891E+00
         -2   -1    0    0    0  501 -0.00000000000E+00  0.00000000000E+00  0.20167493531E+02  0.20167493531E+02  0.00000000000E+00 0. -1.
          2   -1    0    0  502    0  0.00000000000E+00 -0.00000000000E+00 -0.20050892010E+04  0.20050892010E+04  0.00000000000E+00 0.  1.
          6    2    1    2  502    0 -0.11752930733E+02 -0.94871487901E+02 -0.78414824916E+03  0.80890291538E+03  0.17405952794E+03 0.  0.
         24    2    3    3    0    0 -0.99585447456E+01 -0.77594513631E+02 -0.78330945353E+03  0.79088883092E+03  0.76232287904E+02 0.  0.
         -6    2    1    2    0  501  0.11752930733E+02  0.94871487901E+02 -0.12007734583E+04  0.12163537791E+04  0.16888128155E+03 0.  0.
        -24    2    5    5    0    0 -0.39503382535E+02 -0.16479468166E+02 -0.37003791575E+03  0.37660984392E+03  0.55451107693E+02 0.  0.
          5    1    3    3  502    0 -0.17943859876E+01 -0.17276974270E+02 -0.83879562205E+00  0.18014084464E+02  0.47000000000E+01 0. -1.
        -13    1    4    4    0    0 -0.26118282539E+02 -0.54642935255E+01 -0.96770611126E+02  0.10038214166E+03  0.00000000000E+00 0.  1.
         14    1    4    4    0    0  0.16159737793E+02 -0.72130220106E+02 -0.68653884241E+03  0.69050668926E+03  0.00000000000E+00 0. -1.
         -5    1    5    5    0  501  0.51256313268E+02  0.11135095607E+03 -0.83073554254E+03  0.83974393520E+03  0.47000000000E+01 0.  1.
         11    1    6    6    0    0 -0.47854390633E+02 -0.87899773587E+01 -0.18719188121E+03  0.19341175455E+03  0.00000000000E+00 0. -1.
        -12    1    6    6    0    0  0.83510080988E+01 -0.76894908072E+01 -0.18284603454E+03  0.18319808938E+03  0.00000000000E+00 0.  1.
</event>
<event>
12    1  0.1345781E-002  0.5213800E+03  0.7818608E-02  0.1008344E+00
          2   -1    0    0  502    0  0.00000000000E+00  0.00000000000E+00  0.24113667907E+04  0.24113667907E+04  0.00000000000E+00 0.  1.
         -2   -1    0    0    0  501 -0.00000000000E+00 -0.00000000000E+00 -0.11273171097E+03  0.11273171097E+03  0.00000000000E+00 0. -1.
          6    2    1    2  502    0 -0.46637753892E+03 -0.15743379262E+03  0.11502144428E+04  0.12627637431E+04  0.17113035581E+03 0.  0.
         24    2    3    3    0    0 -0.37016526673E+03 -0.13897720798E+03  0.10387578932E+04  0.11142979245E+04  0.79403494653E+02 0.  0.
         -6    2    1    2    0  501  0.46637753892E+03  0.15743379262E+03  0.11484206369E+04  0.12613347585E+04  0.17263257485E+03 0.  0.
        -24    2    5    5    0    0  0.23308590419E+03  0.13024337265E+03  0.50992030481E+03  0.58098994164E+03  0.78982404176E+02 0.  0.
          5    1    3    3  502    0 -0.96212272195E+02 -0.18456584639E+02  0.11145654962E+03  0.14846581859E+03  0.47000000000E+01 0. -1.
        -11    1    4    4    0    0 -0.23055506466E+03 -0.75745668396E+02  0.73567254193E+03  0.77466582025E+03  0.00000000000E+00 0.  1.
         12    1    4    4    0    0 -0.13961020206E+03 -0.63231539586E+02  0.30308535124E+03  0.33963210427E+03  0.00000000000E+00 0. -1.
         -5    1    5    5    0  501  0.23329163473E+03  0.27190419970E+02  0.63850033208E+03  0.68034481687E+03  0.47000000000E+01 0.  1.
         13    1    6    6    0    0  0.20484139245E+03  0.83862838983E+02  0.37352381323E+03  0.43418085043E+03  0.00000000000E+00 0. -1.
        -14    1    6    6    0    0  0.28244511739E+02  0.46380533668E+02  0.13639649158E+03  0.14680909121E+03  0.00000000000E+00 0.  1.
</event>
<event>
12    1  0.1345781E-002  0.3165907E+03  0.7818608E-02  0.1077229E+00
         -2   -1    0    0    0  501 -0.00000000000E+00  0.00000000000E+00  0.94354369053E+02  0.94354369053E+02  0.00000000000E+00 0.  1.
          2   -1    0    0  502    0  0.00000000000E+00 -0.00000000000E+00 -0.12082297120E+04  0.12082297120E+04  0.00000000000E+00 0. -1.
          6    2    1    2  502    0  0.89888175432E+02  0.25023559511E+03 -0.78345190392E+03  0.84503574716E+03  0.17201974040E+03 0.  0.
         24    2    3    3    0    0  0.10480703308E+03  0.10323432680E+03 -0.37856039790E+03  0.41400075225E+03  0.80292014470E+02 0.  0.
         -6    2    1    2    0  501 -0.89888175432E+02 -0.25023559511E+03 -0.33042343900E+03  0.45754833387E+03  0.17167728924E+03 0.  0.
        -24    2    5    5    0    0 -0.85671413772E+02 -0.27049430874E+03 -0.29748371125E+03  0.41836527348E+03  0.77628483159E+02 0.  0.
          5    1    3    3  502    0 -0.14918857652E+02  0.14700126830E+03 -0.40489150601E+03  0.43103499491E+03  0.47000000000E+01 0. -1.
        -11    1    4    4    0    0  0.33762322657E+02  0.20026805852E+02 -0.32205702283E+02  0.50775728881E+02  0.00000000000E+00 0.  1.
         12    1    4    4    0    0  0.71044710426E+02  0.83207520952E+02 -0.34635469562E+03  0.36322502337E+03  0.00000000000E+00 0. -1.
         -5    1    5    5    0  501 -0.42167616595E+01  0.20258713630E+02 -0.32939727750E+02  0.39183060384E+02  0.47000000000E+01 0.  1.
         13    1    6    6    0    0 -0.12268373319E+02 -0.94844086256E+01 -0.46050242576E+02  0.48591067411E+02  0.00000000000E+00 0. -1.
        -14    1    6    6    0    0 -0.73403040453E+02 -0.26100990011E+03 -0.25143346868E+03  0.36977420607E+03  0.00000000000E+00 0.  1.
</event>
<event>
12    1  0.1345781E-002  0.2338228E+03  0.7818608E-02  0.1123978E+00
         -2   -1    0    0    0  501 -0.00000000000E+00  0.00000000000E+00  0.10965017086E+03  0.10965017086E+03  0.00000000000E+00 0. -1.
          2   -1    0    0  502    0  0.00000000000E+00 -0.00000000000E+00 -0.64033695683E+03  0.64033695683E+03  0.00000000000E+00 0.  1.
          6    2    1    2  502    0 -0.81801331946E+02 -0.13630699558E+03 -0.44260768535E+03  0.50102747529E+03  0.17278863653E+03 0.  0.
         24    2    3    3    0    0 -0.62597835376E+02 -0.54263551913E+02 -0.37762399493E+03  0.39451517107E+03  0.78608629317E+02 0.  0.
         -6    2    1    2    0  501  0.81801331946E+02  0.13630699558E+03 -0.88079100616E+02  0.24895965239E+03  0.17015265381E+03 0.  0.
        -24    2    5    5    0    0  0.11343508051E+03  0.88669143886E+02 -0.98017464367E+02  0.19072804554E+03  0.77717626478E+02 0.  0.
          5    1    3    3  502    0 -0.19203496570E+02 -0.82043443665E+02 -0.64983690428E+02  0.10651230422E+03  0.47000000000E+01 0. -1.
        -11    1    4    4    0    0 -0.62744294349E+02 -0.51517569554E+02 -0.18689264452E+03  0.20376399835E+03  0.00000000000E+00 0.  1.
         12    1    4    4    0    0  0.14645897310E+00 -0.27459823593E+01 -0.19073135040E+03  0.19075117273E+03  0.00000000000E+00 0. -1.
         -5    1    5    5    0  501 -0.31633748567E+02  0.47637851691E+02  0.99383637508E+01  0.58231606849E+02  0.47000000000E+01 0.  1.
         11    1    6    6    0    0  0.10463854488E+03  0.73304909843E+02 -0.46015426270E+02  0.13579489805E+03  0.00000000000E+00 0. -1.
        -12    1    6    6    0    0  0.87965356356E+01  0.15364234044E+02 -0.52002038097E+02  0.54933147490E+02  0.00000000000E+00 0.  1.
</event>
<event>
12    1  0.1345781E-002  0.1852754E+03  0.7818608E-02  0.1162793E+00
          2   -1    0    0  502    0  0.00000000000E+00  0.00000000000E+00  0.87378795660E+03  0.87378795660E+03  0.00000000000E+00 0.  1.
         -2   -1    0    0    0  501 -0.00000000000E+00 -0.00000000000E+00 -0.14966985817E+03  0.14966985817E+03  0.00000000000E+00 0. -1.
          6    2    1    2  502    0  0.29217965407E+02  0.60111392703E+02 -0.78031767558E+02  0.19991137061E+03  0.17148915509E+03 0.  0.
         24    2    3    3    0    0 -0.15983277990E+02  0.24850652500E+02 -0.10673213901E+03  0.13562860833E+03  0.78296550346E+02 0.  0.
         -6    2    1    2    0  501 -0.29217965407E+02 -0.60111392703E+02  0.80214986600E+03  0.82354644416E+03  0.17411854910E+03 0.  0.
        -24    2    5    5    0    0  0.13980147458E+02  0.86746284095E+01  0.19522794972E+03  0.21119532257E+03  0.78859484044E+02 0.  0.
          5    1    3    3  502    0  0.45201243397E+02  0.35260740203E+02  0.28700371449E+02  0.64282762274E+02  0.47000000000E+01 0. -1.
        -13    1    4    4    0    0 -0.25071011724E+02  0.49308792236E+02 -0.56770419130E+02  0.79264071992E+02  0.00000000000E+00 0.  1.
         14    1    4    4    0    0  0.90877337343E+01 -0.24458139735E+02 -0.49961719877E+02  0.56364536340E+02  0.00000000000E+00 0. -1.
         -5    1    5    5    0  501 -0.43198112865E+02 -0.68786021113E+02  0.60692191628E+03  0.61235112159E+03  0.47000000000E+01 0.  1.
         13    1    6    6    0    0  0.19772619521E+02 -0.22020076784E+02  0.16532492446E+03  0.16795288301E+03  0.00000000000E+00 0. -1.
        -14    1    6    6    0    0 -0.57924720632E+01  0.30694705194E+02  0.29903025263E+02  0.43242439564E+02  0.00000000000E+00 0.  1.
</event>
<event>
12    1  0.1345781E-002  0.1819645E+03  0.7818608E-02  0.1165915E+00
         -2   -1    0    0    0  501 -0.00000000000E+00  0.00000000000E+00  0.48295249355E+02  0.48295249355E+02  0.00000000000E+00 0. -1.
          2   -1    0    0  502    0  0.00000000000E+00 -0.00000000000E+00 -0.78916184551E+03  0.78916184551E+03  0.00000000000E+00 0.  1.
          6    2    1    2  502    0 -0.13085101459E+02  0.48184119373E+02 -0.22319283246E+03  0.28953819059E+03  0.17755110280E+03 0.  0.
         24    2    3    3    0    0  0.15370982769E+02 -0.24232185477E+02 -0.46614622571E+02  0.96520512261E+02  0.79497297598E+02 0.  0.
         -6    2    1    2    0  501  0.13085101459E+02 -0.48184119373E+02 -0.51767376370E+03  0.54791890428E+03  0.17244149967E+03 0.  0.
        -24    2    5    5    0    0  0.75570499182E+02 -0.22897849707E+02 -0.32825595096E+03  0.34680943622E+03  0.79307022658E+02 0.  0.
          5    1    3    3  502    0 -0.28456084228E+02  0.72416304850E+02 -0.17657820989E+03  0.19301767832E+03  0.47000000000E+01 0. -1.
        -13    1    4    4    0    0  0.46098955508E+02 -0.16741434568E+01 -0.21676222760E+02  0.50968373413E+02  0.00000000000E+00 0.  1.
         14    1    4    4    0    0 -0.30727972739E+02 -0.22558042020E+02 -0.24938399811E+02  0.45552138848E+02  0.00000000000E+00 0. -1.
         -5    1    5    5    0  501 -0.62485397723E+02 -0.25286269666E+02 -0.18941781274E+03  0.20110946806E+03  0.47000000000E+01 0.  1.
         13    1    6    6    0    0  0.57718833385E+01  0.23316595871E+02 -0.40134565417E+02  0.46773514103E+02  0.00000000000E+00 0. -1.
        -14    1    6    6    0    0  0.69798615844E+02 -0.46214445578E+02 -0.28812138554E+03  0.30003592212E+03  0.00000000000E+00 0.  1.
</event>
<event>
12    1  0.1345781E-002  0.1960593E+03  0.7818608E-02  0.1153107E+00
          2   -1    0    0  502    0  0.00000000000E+00  0.00000000000E+00  0.38454338078E+04  0.38454338078E+04  0.00000000000E+00 0. -1.
         -2   -1    0    0    0  501 -0.00000000000E+00 -0.00000000000E+00 -0.10280497048E+02  0.10280497048E+02  0.00000000000E+00 0.  1.
          6    2    1    2  502    0 -0.62284013259E+02  0.69547731231E+02  0.22409317832E+04  0.22495168633E+04  0.17272717263E+03 0.  0.
         24    2    3    3    0    0 -0.53127358037E+02  0.11495222778E+03  0.17284640311E+04  0.17349386870E+04  0.79923775277E+02 0.  0.
         -6    2    1    2    0  501  0.62284013259E+02 -0.69547731231E+02  0.15942215276E+04  0.16061974416E+04  0.17208067017E+03 0.  0.
        -24    2    5    5    0    0  0.10946576766E+02 -0.79242444782E+02  0.60531134490E+03  0.61589700267E+03  0.80796664756E+02 0.  0.
          5    1    3    3  502    0 -0.91566552219E+01 -0.45404496552E+02  0.51246775204E+03  0.51457817630E+03  0.47000000000E+01 0. -1.
        -11    1    4    4    0    0 -0.56959390039E+02  0.75119040672E+02  0.15028004097E+04  0.15057544003E+04  0.00000000000E+00 0.  1.
         12    1    4    4    0    0  0.38320320021E+01  0.39833187111E+02  0.22566362138E+03  0.22918428672E+03  0.00000000000E+00 0. -1.
         -5    1    5    5    0  501  0.51337436492E+02  0.96947135512E+01  0.98891018268E+03  0.99030043889E+03  0.47000000000E+01 0.  1.
         13    1    6    6    0    0 -0.12054457479E+02 -0.58359683343E+02  0.54310482660E+03  0.54636436127E+03  0.00000000000E+00 0. -1.
        -14    1    6    6    0    0  0.23001034245E+02 -0.20882761439E+02  0.62206518299E+02  0.69532641403E+02  0.00000000000E+00 0.  1.
</event>
<event>
12    1  0.1345781E-002  0.1963610E+03  0.7818608E-02  0.1152846E+00
          2   -1    0    0  502    0  0.00000000000E+00  0.00000000000E+00  0.29523000852E+04  0.29523000852E+04  0.00000000000E+00 0.  1.
         -2   -1    0    0    0  501 -0.00000000000E+00 -0.00000000000E+00 -0.14670506890E+02  0.14670506890E+02  0.00000000000E+00 0. -1.
          6    2    1    2  502    0  0.96134307885E+01 -0.97227708316E+02  0.97149992581E+03  0.99097180752E+03  0.16931441796E+03 0.  0.
         24    2    3    3    0    0 -0.14997902574E+02 -0.12575785021E+03  0.62896588289E+03  0.64633961621E+03  0.78210252990E+02 0.  0.
         -6    2    1    2    0  501 -0.96134307885E+01  0.97227708316E+02  0.19661296525E+04  0.19759987846E+04  0.17134684380E+03 0.  0.
        -24    2    5    5    0    0 -0.42655425741E+02  0.11533532003E+03  0.11922861501E+04  0.12012242914E+04  0.79194780065E+02 0.  0.
          5    1    3    3  502    0  0.24611333362E+02  0.28530141889E+02  0.34253404292E+03  0.34463219131E+03  0.47000000000E+01 0. -1.
        -11    1    4    4    0    0  0.44908727668E+01 -0.10608914379E+03  0.58367748151E+03  0.59325751305E+03  0.00000000000E+00 0.  1.
         12    1    4    4    0    0 -0.19488775340E+02 -0.19668706414E+02  0.45288401377E+02  0.53082103157E+02  0.00000000000E+00 0. -1.
         -5    1    5    5    0  501  0.33041994953E+02 -0.18107611713E+02  0.77384350241E+03  0.77477449316E+03  0.47000000000E+01 0.  1.
         11    1    6    6    0    0 -0.16670911496E+02  0.11503627385E+03  0.10641575459E+04  0.10704870602E+04  0.00000000000E+00 0. -1.
        -12    1    6    6    0    0 -0.25984514246E+02  0.29904617832E+00  0.12812860416E+03  0.13073723117E+03  0.00000000000E+00 0.  1.
</event>
<event>
12    1  0.1345781E-002  0.1762655E+03  0.7818608E-02  0.1171467E+00
         -1   -1    0    0    0  501 -0.00000000000E+00  0.00000000000E+00  0.64067086200E+02  0.64067086200E+02  0.00000000000E+00 0.  1.
          1   -1    0    0  502    0  0.00000000000E+00 -0.00000000000E+00 -0.54981192778E+03  0.54981192778E+03  0.00000000000E+00 0. -1.
          6    2    1    2  502    0  0.42190703099E+02  0.13573515429E+01 -0.34755152056E+03  0.38942052479E+03  0.17051213402E+03 0.  0.
         24    2    3    3    0    0  0.43884935751E+02  0.64935406163E+02 -0.24127038533E+03  0.26547372506E+03  0.78245800557E+02 0.  0.
         -6    2    1    2    0  501 -0.42190703099E+02 -0.13573515429E+01 -0.13819332101E+03  0.22445848919E+03  0.17176239858E+03 0.  0.
        -24    2    5    5    0    0 -0.49732924983E+01 -0.13445641869E+02 -0.89621620510E+00  0.81616452649E+02  0.80342536778E+02 0.  0.
          5    1    3    3  502    0 -0.16942326519E+01 -0.63578054621E+02 -0.10628113524E+03  0.12394679972E+03  0.47000000000E+01 0. -1.
        -13    1    4    4    0    0 -0.63403820069E+01 -0.11896301706E+02 -0.68694842761E+02  0.70005027392E+02  0.00000000000E+00 0.  1.
         14    1    4    4    0    0  0.50225317758E+02  0.76831707870E+02 -0.17257554257E+03  0.19546869767E+03  0.00000000000E+00 0. -1.
         -5    1    5    5    0  501 -0.37217410601E+02  0.12088290326E+02 -0.13729710481E+03  0.14284203654E+03  0.47000000000E+01 0.  1.
         11    1    6    6    0    0 -0.40105937233E+01 -0.51836533512E+01 -0.40561916544E+02  0.41088005522E+02  0.00000000000E+00 0. -1.
        -12    1    6    6    0    0 -0.96269877501E+00 -0.82619885178E+01  0.39665700338E+02  0.40528447127E+02  0.00000000000E+00 0.  1.
</event>
<event>
12    1  0.1345781E-002  0.1942218E+03  0.7818608E-02  0.1154708E+00
         -3   -1    0    0    0  501 -0.00000000000E+00  0.00000000000E+00  0.90547823601E+03  0.90547823601E+03  0.00000000000E+00 0.  1.
          3   -1    0    0  502    0  0.00000000000E+00 -0.00000000000E+00 -0.42939879175E+02  0.42939879175E+02  0.00000000000E+00 0. -1.
          6    2    1    2  502    0 -0.44261538279E+02 -0.75717622255E+02  0.35287126580E+03  0.40355391075E+03  0.17505823763E+03 0.  0.
         24    2    3    3    0    0 -0.47135436034E+02  0.23721635600E+02  0.15420183327E+03  0.18131966786E+03  0.79461633777E+02 0.  0.
         -6    2    1    2    0  501  0.44261538279E+02  0.75717622255E+02  0.50966709104E+03  0.54486420444E+03  0.17153488130E+03 0.  0.
        -24    2    5    5    0    0  0.40154054542E+02  0.69616229648E+02  0.16720853964E+03  0.20229443368E+03  0.80657142536E+02 0.  0.
          5    1    3    3  502    0  0.28738977542E+01 -0.99439257855E+02  0.19866943253E+03  0.22223424289E+03  0.47000000000E+01 0. -1.
        -13    1    4    4    0    0 -0.34889525707E+02 -0.19677324066E+02  0.11426903493E+03  0.12108628506E+03  0.00000000000E+00 0.  1.
         14    1    4    4    0    0 -0.12245910327E+02  0.43398959666E+02  0.39932798344E+02  0.60233382799E+02  0.00000000000E+00 0. -1.
         -5    1    5    5    0  501  0.41074837369E+01  0.61013926070E+01  0.34245855139E+03  0.34256977076E+03  0.47000000000E+01 0.  1.
         11    1    6    6    0    0  0.54603557610E+02  0.22603931015E+02  0.12168735064E+03  0.13527859219E+03  0.00000000000E+00 0. -1.
        -12    1    6    6    0    0 -0.14449503068E+02  0.47012298633E+02  0.45521189007E+02  0.67015841487E+02  0.00000000000E+00 0.  1.
</event>
<event>
12    1  0.1345781E-002  0.1819360E+03  0.7818608E-02  0.1165942E+00
          1   -1    0    0  502    0  0.00000000000E+00  0.00000000000E+00  0.15258036389E+04  0.15258036389E+04  0.00000000000E+00 0.  1.
         -1   -1    0    0    0  501 -0.00000000000E+00 -0.00000000000E+00 -0.26711866751E+02  0.26711866751E+02  0.00000000000E+00 0. -1.
          6    2    1    2  502    0  0.52680288657E+02 -0.23614271081E+02  0.41238944640E+03  0.45065338488E+03  0.17230952147E+03 0.  0.
         24    2    3    3    0    0 -0.73655865291E+01 -0.66470917228E+02  0.28391748711E+03  0.30243282770E+03  0.79898942937E+02 0.  0.
         -6    2    1    2    0  501 -0.52680288657E+02  0.23614271081E+02  0.10867023258E+04  0.11018621208E+04  0.17275804409E+03 0.  0.
        -24    2    5    5    0    0  0.36524755578E+02 -0.34641502323E+01  0.57428395719E+03  0.58101141736E+03  0.80163242833E+02 0.  0.
          5    1    3    3  502    0  0.60045875186E+02  0.42856646146E+02  0.12847195929E+03  0.14822055717E+03  0.47000000000E+01 0. -1.
        -11    1    4    4    0    0 -0.99319551494E+01  0.39797895077E+01  0.15607300930E+03  0.15643933869E+03  0.00000000000E+00 0.  1.
         12    1    4    4    0    0  0.25663686203E+01 -0.70450706735E+02  0.12784447781E+03  0.14599348902E+03  0.00000000000E+00 0. -1.
         -5    1    5    5    0  501 -0.89205044235E+02  0.27078421314E+02  0.51241836859E+03  0.52085070346E+03  0.47000000000E+01 0.  1.
         11    1    6    6    0    0 -0.91641154021E+01 -0.14267586233E+02  0.28147681307E+02  0.32860873254E+02  0.00000000000E+00 0. -1.
        -12    1    6    6    0    0  0.45688870981E+02  0.10803436001E+02  0.54613627589E+03  0.54815054410E+03  0.00000000000E+00 0.  1.
</event>
<event>
12    1  0.1345781E-002  0.2175673E+03  0.7818608E-02  0.1135710E+00
         -2   -1    0    0    0  501 -0.00000000000E+00  0.00000000000E+00  0.36216344893E+02  0.36216344893E+02  0.00000000000E+00 0.  1.
          2   -1    0    0  502    0  0.00000000000E+00 -0.00000000000E+00 -0.13411284281E+04  0.13411284281E+04  0.00000000000E+00 0. -1.
          6    2    1    2  502    0  0.27015908098E+02  0.12991419393E+03 -0.76155860607E+03  0.79195964989E+03  0.17210758119E+03 0.  0.
         24    2    3    3    0    0  0.77122710833E+02  0.70037052662E+02 -0.56817983936E+03  0.58336098944E+03  0.81416293681E+02 0.  0.
         -6    2    1    2    0  501 -0.27015908098E+02 -0.12991419393E+03 -0.54335347713E+03  0.58538512309E+03  0.17272864312E+03 0.  0.
        -24    2    5    5    0    0 -0.60612528417E+02 -0.10290354073E+03 -0.51221996388E+03  0.53200259851E+03  0.79965343310E+02 0.  0.
          5    1    3    3  502    0 -0.50106802735E+02  0.59877141272E+02 -0.19337876671E+03  0.20859866045E+03  0.47000000000E+01 0. -1.
        -11    1    4    4    0    0  0.41939548944E+02  0.44752753808E+02 -0.13813373024E+03  0.15113789124E+03  0.00000000000E+00 0.  1.
         12    1    4    4    0    0  0.35183161889E+02  0.25284298854E+02 -0.43004610912E+03  0.43222309821E+03  0.00000000000E+00 0. -1.
         -5    1    5    5    0  501  0.33596620319E+02 -0.27010653201E+02 -0.31133513247E+02  0.53382524578E+02  0.47000000000E+01 0.  1.
         13    1    6    6    0    0 -0.84653607039E+01 -0.39863636283E+02 -0.32685712248E+03  0.32938784183E+03  0.00000000000E+00 0. -1.
        -14    1    6    6    0    0 -0.52147167713E+02 -0.63039904450E+02 -0.18536284140E+03  0.20261475668E+03  0.00000000000E+00 0.  1.
</event>
<event>
12    1  0.1345781E-002  0.2126177E+03  0.7818608E-02  0.1139510E+00
          2   -1    0    0  502    0  0.00000000000E+00  0.00000000000E+00  0.17500236942E+04  0.17500236942E+04  0.00000000000E+00 0.  1.
         -2   -1    0    0    0  501 -0.00000000000E+00 -0.00000000000E+00 -0.26636797328E+02  0.26636797328E+02  0.00000000000E+00 0. -1.
          6    2    1    2  502    0  0.10509860648E+03 -0.67410940357E+02  0.10140767628E+04  0.10360207054E+04  0.17145631845E+03 0.  0.
         24    2    3    3    0    0  0.34627511979E+02  0.34029537992E+02  0.46217127561E+03  0.47044303378E+03  0.73193483267E+02 0.  0.
         -6    2    1    2    0  501 -0.10509860648E+03  0.67410940357E+02  0.70931013404E+03  0.74063978613E+03  0.17273237849E+03 0.  0.
        -24    2    5    5    0    0 -0.18360363082E+02 -0.20783932350E+02  0.21112494743E+03  0.22730516953E+03  0.79528748835E+02 0.  0.
          5    1    3    3  502    0  0.70471094501E+02 -0.10144047835E+03  0.55190548723E+03  0.56557767163E+03  0.47000000000E+01 0. -1.
        -13    1    4    4    0    0 -0.11270069989E+02  0.35059725479E+02  0.13004468205E+03  0.13515849273E+03  0.00000000000E+00 0.  1.
         14    1    4    4    0    0  0.45897581967E+02 -0.10301874876E+01  0.33212659356E+03  0.33528454104E+03  0.00000000000E+00 0. -1.
         -5    1    5    5    0  501 -0.86738243398E+02  0.88194872707E+02  0.49818518661E+03  0.51333461660E+03  0.47000000000E+01 0.  1.
         13    1    6    6    0    0  0.28952738432E+02 -0.12468110469E+02  0.12257986181E+03  0.12656831105E+03  0.00000000000E+00 0. -1.
        -14    1    6    6    0    0 -0.47313101514E+02 -0.83158218812E+01  0.88545085623E+02  0.10073685848E+03  0.00000000000E+00 0.  1.
</event>
<event>
12    1  0.1345781E-002  0.1876086E+03  0.7818608E-02  0.1160636E+00
          2   -1    0    0  502    0  0.00000000000E+00  0.00000000000E+00  0.58457264256E+03  0.58457264256E+03  0.00000000000E+00 0.  1.
         -2   -1    0    0    0  501 -0.00000000000E+00 -0.00000000000E+00 -0.65379657585E+02  0.65379657585E+02  0.00000000000E+00 0. -1.
          6    2    1    2  502    0  0.68748121373E+02  0.13105516027E+01  0.34747114252E+03  0.39363443716E+03  0.17170862964E+03 0.  0.
         24    2    3    3    0    0  0.44582869032E+01 -0.39265357318E+02  0.26139779961E+03  0.27869837858E+03  0.88217526463E+02 0.  0.
         -6    2    1    2    0  501 -0.68748121373E+02 -0.13105516027E+01  0.17172184246E+03  0.25631786299E+03  0.17743289992E+03 0.  0.
        -24    2    5    5    0    0  0.19640747800E+02 -0.30792176568E+02  0.11780446820E+03  0.14856382988E+03  0.82821505118E+02 0.  0.
          5    1    3    3  502    0  0.64289834470E+02  0.40575908921E+02  0.86073342908E+02  0.11493605857E+03  0.47000000000E+01 0. -1.
        -13    1    4    4    0    0  0.24068641986E+02 -0.13394757053E+02  0.23567600275E+03  0.23728020843E+03  0.00000000000E+00 0.  1.
         14    1    4    4    0    0 -0.19610355083E+02 -0.25870600265E+02  0.25721796866E+02  0.41418170150E+02  0.00000000000E+00 0. -1.
         -5    1    5    5    0  501 -0.88388869174E+02  0.29481624966E+02  0.53917374263E+02  0.10775403311E+03  0.47000000000E+01 0.  1.
         13    1    6    6    0    0  0.73690281310E+01 -0.58816824619E+02  0.85839764369E+02  0.10431771940E+03  0.00000000000E+00 0. -1.
        -14    1    6    6    0    0  0.12271719669E+02  0.28024648050E+02  0.31964703828E+02  0.44246110482E+02  0.00000000000E+00 0.  1.
</event>
<event>
12    1  0.1345781E-002  0.1775248E+03  0.7818608E-02  0.1170220E+00
         -2   -1    0    0    0  501 -0.00000000000E+00  0.00000000000E+00  0.31126973017E+02  0.31126973017E+02  0.00000000000E+00 0.  1.
          2   -1    0    0  502    0  0.00000000000E+00 -0.00000000000E+00 -0.11068560122E+04  0.11068560122E+04  0.00000000000E+00 0. -1.
          6    2    1    2  502    0 -0.26028845537E+02  0.33393329004E+02 -0.37482606487E+03  0.41521892532E+03  0.17354988281E+03 0.  0.
         24    2    3    3    0    0 -0.64489531793E+02  0.17768183681E+02 -0.35287746009E+03  0.36802569694E+03  0.80285762791E+02 0.  0.
         -6    2    1    2    0  501  0.26028845537E+02 -0.33393329004E+02 -0.70090297427E+03  0.72276405984E+03  0.17126088766E+03 0.  0.
        -24    2    5    5    0    0 -0.19681101228E+02 -0.17690953285E+02 -0.16944694011E+03  0.18909415242E+03  0.79649340213E+02 0.  0.
          5    1    3    3  502    0  0.38460686255E+02  0.15625145324E+02 -0.21948604772E+02  0.47193228381E+02  0.47000000000E+01 0. -1.
        -13    1    4    4    0    0  0.16932974737E+02  0.12093795941E+02 -0.46145333317E+02  0.50619930074E+02  0.00000000000E+00 0.  1.
         14    1    4    4    0    0 -0.81422506530E+02  0.56743877398E+01 -0.30673212678E+03  0.31740576687E+03  0.00000000000E+00 0. -1.
         -5    1    5    5    0  501  0.45709946765E+02 -0.15702375719E+02 -0.53145603416E+03  0.53366990742E+03  0.47000000000E+01 0.  1.
         13    1    6    6    0    0 -0.20176073979E+01  0.27655369458E+01 -0.16062815007E+03  0.16066462439E+03  0.00000000000E+00 0. -1.
        -14    1    6    6    0    0 -0.17663493830E+02 -0.20456490231E+02 -0.88187900368E+01  0.28429528040E+02  0.00000000000E+00 0.  1.
</event>
<event>
12    1  0.1345781E-002  0.1992707E+03  0.7818608E-02  0.1150356E+00
         -2   -1    0    0    0  501 -0.00000000000E+00  0.00000000000E+00  0.33067161269E+03  0.33067161269E+03  0.00000000000E+00 0. -1.
          2   -1    0    0  502    0  0.00000000000E+00 -0.00000000000E+00 -0.18986328605E+03  0.18986328605E+03  0.00000000000E+00 0.  1.
          6    2    1    2  502    0 -0.13495121333E+01  0.96941967919E+02  0.22860305246E+03  0.30454905119E+03  0.17632697654E+03 0.  0.
         24    2    3    3    0    0 -0.64553724217E+02  0.85556014150E+02  0.17828315099E+03  0.22282638082E+03  0.79873019181E+02 0.  0.
         -6    2    1    2    0  501  0.13495121333E+01 -0.96941967919E+02 -0.87794725815E+02  0.21598584756E+03  0.17187904508E+03 0.  0.
        -24    2    5    5    0    0  0.35823023100E+02 -0.14593045528E+02 -0.90764286527E+02  0.12653934808E+03  0.79232600249E+02 0.  0.
          5    1    3    3  502    0  0.63204212084E+02  0.11385953770E+02  0.50319901471E+02  0.81722670370E+02  0.47000000000E+01 0.  1.
        -13    1    4    4    0    0 -0.45830068695E+02 -0.26051385836E+00  0.60923637064E+02  0.76237475150E+02  0.00000000000E+00 0.  1.
         14    1    4    4    0    0 -0.18723655522E+02  0.85816528008E+02  0.11735951393E+03  0.14658890567E+03  0.00000000000E+00 0. -1.
         -5    1    5    5    0  501 -0.34473510967E+02 -0.82348922392E+02  0.29695607121E+01  0.89446499475E+02  0.47000000000E+01 0.  1.
         11    1    6    6    0    0 -0.18288458204E+02 -0.12250790695E+02 -0.14178110054E+01  0.22058099741E+02  0.00000000000E+00 0. -1.
        -12    1    6    6    0    0  0.54111481304E+02 -0.23422548330E+01 -0.89346475521E+02  0.10448124834E+03  0.00000000000E+00 0.  1.
</event>
<event>
12    1  0.1345781E-002  0.2111143E+03  0.7818608E-02  0.1140687E+00
          2   -1    0    0  502    0  0.00000000000E+00  0.00000000000E+00  0.62789457131E+03  0.62789457131E+03  0.00000000000E+00 0. -1.
         -2   -1    0    0    0  501 -0.00000000000E+00 -0.00000000000E+00 -0.78020189132E+02  0.78020189132E+02  0.00000000000E+00 0.  1.
          6    2    1    2  502    0 -0.65341745069E+02 -0.10267089618E+03  0.16885579767E+03  0.27028907144E+03  0.17243272649E+03 0.  0.
         24    2    3    3    0    0 -0.22028095802E+02  0.42001965268E+01  0.29588901388E+02  0.89416571960E+02  0.81344585561E+02 0.  0.
         -6    2    1    2    0  501  0.65341745069E+02  0.10267089618E+03  0.38101858450E+03  0.43562568900E+03  0.17257961237E+03 0.  0.
        -24    2    5    5    0    0  0.95444323402E+01 -0.87219698077E+01  0.96174477734E+02  0.12469166728E+03  0.78302699667E+02 0.  0.
          5    1    3    3  502    0 -0.43313649267E+02 -0.10687109270E+03  0.13926689628E+03  0.18087249948E+03  0.47000000000E+01 0. -1.
        -11    1    4    4    0    0  0.13604347075E+00 -0.32937600322E+02 -0.59107192173E+01  0.33464019850E+02  0.00000000000E+00 0.  1.
         12    1    4    4    0    0 -0.22164139273E+02  0.37137796849E+02  0.35499620605E+02  0.55952552110E+02  0.00000000000E+00 0. -1.
         -5    1    5    5    0  501  0.55797312729E+02  0.11139286598E+03  0.28484410677E+03  0.31093402172E+03  0.47000000000E+01 0.  1.
         11    1    6    6    0    0 -0.11280790455E+02 -0.18321661991E+02  0.99249676925E+02  0.10155509786E+03  0.00000000000E+00 0. -1.
        -12    1    6    6    0    0  0.20825222795E+02  0.95996921828E+01 -0.30751991907E+01  0.23136569420E+02  0.00000000000E+00 0.  1.
</event>
<event>
12    1  0.1345781E-002  0.2066817E+03  0.7818608E-02  0.1144221E+00
          2   -1    0    0  502    0  0.00000000000E+00  0.00000000000E+00  0.12216078672E+04  0.12216078672E+04  0.00000000000E+00 0. -1.
         -2   -1    0    0    0  501 -0.00000000000E+00 -0.00000000000E+00 -0.34985759924E+02  0.34985759924E+02  0.00000000000E+00 0.  1.
          6    2    1    2  502    0 -0.87329135420E+02  0.72582375028E+02  0.57767377587E+03  0.61334326647E+03  0.17201276737E+03 0.  0.
         24    2    3    3    0    0 -0.93349642994E+02  0.66287849197E+02  0.25422546276E+03  0.28974356186E+03  0.78819483180E+02 0.  0.
         -6    2    1    2    0  501  0.87329135420E+02 -0.72582375028E+02  0.60894833145E+03  0.64325036070E+03  0.17337351904E+03 0.  0.
        -24    2    5    5    0    0 -0.13514605270E+02  0.14463186179E+02  0.22213411294E+03  0.23411258512E+03  0.71227172273E+02 0.  0.
          5    1    3    3  502    0  0.60205075746E+01  0.62945258311E+01  0.32344831311E+03  0.32359970460E+03  0.47000000000E+01 0. -1.
        -13    1    4    4    0    0 -0.25654911048E+02  0.66523126214E+02  0.12914671543E+03  0.14752076088E+03  0.00000000000E+00 0.  1.
         14    1    4    4    0    0 -0.67694731947E+02 -0.23527701755E+00  0.12507874732E+03  0.14222280099E+03  0.00000000000E+00 0. -1.
         -5    1    5    5    0  501  0.10084374069E+03 -0.87045561207E+02  0.38681421851E+03  0.40913777558E+03  0.47000000000E+01 0.  1.
         13    1    6    6    0    0 -0.21302393615E+02  0.24836351073E+02  0.40729841750E+02  0.52245155922E+02  0.00000000000E+00 0. -1.
        -14    1    6    6    0    0  0.77877883450E+01 -0.10373164894E+02  0.18140427119E+03  0.18186742920E+03  0.00000000000E+00 0.  1.
</event>
<event>
12    1  0.1345781E-002  0.2375233E+03  0.7818608E-02  0.1121454E+00
          2   -1    0    0  502    0  0.00000000000E+00  0.00000000000E+00  0.35935786302E+03  0.35935786302E+03  0.00000000000E+00 0.  1.
         -2   -1    0    0    0  501 -0.00000000000E+00 -0.00000000000E+00 -0.16235368654E+03  0.16235368654E+03  0.00000000000E+00 0. -1.
          6    2    1    2  502    0  0.25036075656E+02 -0.16195686267E+03  0.51124571400E+02  0.24299920632E+03  0.17198273757E+03 0.  0.
         24    2    3    3    0    0 -0.20695335985E+02 -0.16863315909E+03  0.55821705363E+02  0.19630779371E+03  0.80964484831E+02 0.  0.
         -6    2    1    2    0  501 -0.25036075656E+02  0.16195686267E+03  0.14587960508E+03  0.27871234324E+03  0.17188042542E+03 0.  0.
        -24    2    5    5    0    0  0.38606784052E+02  0.42912914645E+02  0.33628511258E+02  0.10308696575E+03  0.78511424132E+02 0.  0.
          5    1    3    3  502    0  0.45731411640E+02  0.66762964175E+01 -0.46971339631E+01  0.46691412615E+02  0.47000000000E+01 0. -1.
        -11    1    4    4    0    0  0.69105716074E+01 -0.66012936450E+02  0.60676687342E+02  0.89928439136E+02  0.00000000000E+00 0.  1.
         12    1    4    4    0    0 -0.27605907592E+02 -0.10262022264E+03 -0.48549819784E+01  0.10637935457E+03  0.00000000000E+00 0. -1.
         -5    1    5    5    0  501 -0.63642859708E+02  0.11904394803E+03  0.11225109382E+03  0.17562537749E+03  0.47000000000E+01 0.  1.
         13    1    6    6    0    0  0.80277548539E+01 -0.23189855827E+02  0.67369907009E+01  0.25448011808E+02  0.00000000000E+00 0. -1.
        -14    1    6    6    0    0  0.30579029198E+02  0.66102770472E+02  0.26891520557E+02  0.77638953939E+02  0.00000000000E+00 0.  1.
</event>
<event>
12    1  0.1345781E-002  0.2048692E+03  0.7818608E-02  0.1145695E+00
          2   -1    0    0  502    0  0.00000000000E+00  0.00000000000E+00  0.23693330466E+03  0.23693330466E+03  0.00000000000E+00 0.  1.
         -2   -1    0    0    0  501 -0.00000000000E+00 -0.00000000000E+00 -0.57816496352E+03  0.57816496352E+03  0.00000000000E+00 0. -1.
          6    2    1    2  502    0  0.92686771164E+01  0.10976559122E+03  0.16883358534E+03  0.26538450159E+03  0.17259710528E+03 0.  0.
         24    2    3    3    0    0 -0.41914995146E+02  0.58930279716E+02  0.16250737953E+03  0.19281654666E+03  0.74430689770E+02 0.  0.
         -6    2    1    2    0  501 -0.92686771164E+01 -0.10976559122E+03 -0.51006524421E+03  0.54971376659E+03  0.17287069862E+03 0.  0.
        -24    2    5    5    0    0 -0.73024580340E+02 -0.71598650387E+02 -0.31006109972E+03  0.33630036875E+03  0.80629376700E+02 0.  0.
          5    1    3    3  502    0  0.51183672262E+02  0.50835311507E+02  0.63262058147E+01  0.72567954927E+02  0.47000000000E+01 0. -1.
        -11    1    4    4    0    0 -0.12185301160E+02  0.37206958408E+02  0.16930547904E+02  0.42655395564E+02  0.00000000000E+00 0.  1.
         12    1    4    4    0    0 -0.29729693986E+02  0.21723321308E+02  0.14557683162E+03  0.15016115110E+03  0.00000000000E+00 0. -1.
         -5    1    5    5    0  501  0.63755903224E+02 -0.38166940836E+02 -0.20000414448E+03  0.21341339784E+03  0.47000000000E+01 0.  1.
         11    1    6    6    0    0  0.43473300374E+01 -0.11151956385E+02 -0.13544742323E+03  0.13597525462E+03  0.00000000000E+00 0. -1.
        -12    1    6    6    0    0 -0.77371910377E+02 -0.60446694002E+02 -0.17461367649E+03  0.20032511413E+03  0.00000000000E+00 0.  1.
</event>
<event>
12    1  0.1345781E-002  0.1868905E+03  0.7818608E-02  0.1161296E+00
         -2   -1    0    0    0  501 -0.00000000000E+00  0.00000000000E+00  0.76307057628E+02  0.76307057628E+02  0.00000000000E+00 0. -1.
          2   -1    0    0  502    0  0.00000000000E+00 -0.00000000000E+00 -0.47618174749E+03  0.47618174749E+03  0.00000000000E+00 0.  1.
          6    2    1    2  502    0 -0.58733074010E+02  0.41584425306E+02 -0.14634596763E+03  0.23796658196E+03  0.17329775959E+03 0.  0.
         24    2    3    3    0    0  0.25111052469E+02  0.55636814368E+01 -0.11322976858E+03  0.14077551152E+03  0.79594250072E+02 0.  0.
         -6    2    1    2    0  501  0.58733074010E+02 -0.41584425306E+02 -0.25352872223E+03  0.31452222316E+03  0.17166414143E+03 0.  0.
        -24    2    5    5    0    0  0.51656190620E+02 -0.55095483631E+01 -0.36720390813E+02  0.94568997224E+02  0.69972787439E+02 0.  0.
          5    1    3    3  502    0 -0.83844126479E+02  0.36020743870E+02 -0.33116199051E+02  0.97191070441E+02  0.47000000000E+01 0. -1.
        -11    1    4    4    0    0  0.49743707926E+01  0.40002140725E+02 -0.36899191129E+02  0.54648567533E+02  0.00000000000E+00 0.  1.
         12    1    4    4    0    0  0.20136681676E+02 -0.34438459288E+02 -0.76330577448E+02  0.86126943987E+02  0.00000000000E+00 0. -1.
         -5    1    5    5    0  501  0.70768833899E+01 -0.36074876943E+02 -0.21680833142E+03  0.21995322593E+03  0.47000000000E+01 0.  1.
         11    1    6    6    0    0  0.36812938403E+02 -0.15031294922E+02 -0.55844856711E+02  0.68554943527E+02  0.00000000000E+00 0. -1.
        -12    1    6    6    0    0  0.14843252217E+02  0.95217465591E+01  0.19124465897E+02  0.26014053698E+02  0.00000000000E+00 0.  1.
</event>
<event>
12    1  0.1345781E-002  0.2057646E+03  0.7818608E-02  0.1144965E+00
         -2   -1    0    0    0  501 -0.00000000000E+00  0.00000000000E+00  0.13275651559E+03  0.13275651559E+03  0.00000000000E+00 0.  1.
          2   -1    0    0  502    0  0.00000000000E+00 -0.00000000000E+00 -0.37668798686E+03  0.37668798686E+03  0.00000000000E+00 0. -1.
          6    2    1    2  502    0 -0.91794406955E+02 -0.69274522429E+02 -0.22635493964E+02  0.20782726094E+03  0.17162351877E+03 0.  0.
         24    2    3    3    0    0 -0.92843953186E+01 -0.36180438399E+02 -0.60508871693E+02  0.11108221890E+03  0.85338805258E+02 0.  0.
         -6    2    1    2    0  501  0.91794406955E+02  0.69274522429E+02 -0.22129597731E+03  0.30161724151E+03  0.16963454306E+03 0.  0.
        -24    2    5    5    0    0 -0.14389621132E+02  0.61959538526E+02 -0.98668521052E+02  0.13917297464E+03  0.74750212136E+02 0.  0.
          5    1    3    3  502    0 -0.82510011637E+02 -0.33094084030E+02  0.37873377729E+02  0.96745042037E+02  0.47000000000E+01 0. -1.
        -11    1    4    4    0    0 -0.24695074359E+02 -0.40532535438E+02  0.10500589623E+01  0.47474580045E+02  0.00000000000E+00 0.  1.
         12    1    4    4    0    0  0.15410679040E+02  0.43520970394E+01 -0.61558930656E+02  0.63607638854E+02  0.00000000000E+00 0. -1.
         -5    1    5    5    0  501  0.10618402809E+03  0.73149839038E+01 -0.12262745626E+03  0.16244426687E+03  0.47000000000E+01 0.  1.
         11    1    6    6    0    0  0.22671640532E+02  0.44740754735E+02 -0.79582591946E+02  0.94069800465E+02  0.00000000000E+00 0. -1.
        -12    1    6    6    0    0 -0.37061261663E+02  0.17218783790E+02 -0.19085929106E+02  0.45103174180E+02  0.00000000000E+00 0.  1.
</event>
<event>
12    1  0.1345781E-002  0.1764018E+03  0.7818608E-02  0.1171331E+00
          1   -1    0    0  502    0  0.00000000000E+00  0.00000000000E+00  0.35663657456E+03  0.35663657456E+03  0.00000000000E+00 0.  1.
         -1   -1    0    0    0  501 -0.00000000000E+00 -0.00000000000E+00 -0.97329083698E+02  0.97329083698E+02  0.00000000000E+00 0. -1.
          6    2    1    2  502    0 -0.22034374701E+02  0.41138560185E+02  0.20147160249E+03  0.26661492789E+03  0.16827007566E+03 0.  0.
         24    2    3    3    0    0 -0.39074439230E+02 -0.37360139872E+02  0.11731222901E+03  0.15017910928E+03  0.76609489873E+02 0.  0.
         -6    2    1    2    0  501  0.22034374701E+02 -0.41138560185E+02  0.57835888368E+02  0.18735073036E+03  0.17198084597E+03 0.  0.
        -24    2    5    5    0    0  0.81073705767E+02 -0.18016854204E+02  0.30209254852E+02  0.11802846280E+03  0.78234047258E+02 0.  0.
          5    1    3    3  502    0  0.17040064529E+02  0.78498700057E+02  0.84159373482E+02  0.11643581861E+03  0.47000000000E+01 0. -1.
        -11    1    4    4    0    0 -0.27217523606E+02 -0.42012256209E+02  0.12544719568E+03  0.13506599189E+03  0.00000000000E+00 0.  1.
         12    1    4    4    0    0 -0.11856915623E+02  0.46521163374E+01 -0.81349666706E+01  0.15113117390E+02  0.00000000000E+00 0. -1.
         -5    1    5    5    0  501 -0.59039331067E+02 -0.23121705981E+02  0.27626633516E+02  0.69322267560E+02  0.47000000000E+01 0.  1.
         13    1    6    6    0    0  0.26194846535E+02  0.11388631141E+02 -0.22572303458E+02  0.36405765857E+02  0.00000000000E+00 0. -1.
        -14    1    6    6    0    0  0.54878859233E+02 -0.29405485345E+02  0.52781558309E+02  0.81622696945E+02  0.00000000000E+00 0.  1.
</event>
<event>
12    1  0.1345781E-002  0.3065535E+03  0.7818608E-02  0.1082010E+00
          1   -1    0    0  502    0  0.00000000000E+00  0.00000000000E+00  0.14633095433E+04  0.14633095433E+04  0.00000000000E+00 0.  1.
         -1   -1    0    0    0  501 -0.00000000000E+00 -0.00000000000E+00 -0.92184113590E+02  0.92184113590E+02  0.00000000000E+00 0. -1.
          6    2    1    2  502    0 -0.16111280912E+03 -0.19626602174E+03  0.11137857655E+04  0.11551804851E+04  0.17159700815E+03 0.  0.
         24    2    3    3    0    0 -0.54091151180E+02 -0.18696561424E+02  0.39549189035E+03  0.40754907220E+03  0.80043718487E+02 0.  0.
         -6    2    1    2    0  501  0.16111280912E+03  0.19626602174E+03  0.25733966421E+03  0.40031317178E+03  0.17189893593E+03 0.  0.
        -24    2    5    5    0    0  0.19979432804E+02  0.52788523794E+02  0.44805029422E+02  0.10757184687E+03  0.79864920947E+02 0.  0.
          5    1    3    3  502    0 -0.10702165794E+03 -0.17756946031E+03  0.71829387518E+03  0.74763141295E+03  0.47000000000E+01 0. -1.
        -13    1    4    4    0    0 -0.21806345259E+02  0.45020023562E+01  0.33127405328E+03  0.33202150999E+03  0.00000000000E+00 0.  1.
         14    1    4    4    0    0 -0.32284805922E+02 -0.23198563781E+02  0.64217837073E+02  0.75527562209E+02  0.00000000000E+00 0. -1.
         -5    1    5    5    0  501  0.14113337631E+03  0.14347749794E+03  0.21253463479E+03  0.29274132491E+03  0.47000000000E+01 0.  1.
         11    1    6    6    0    0 -0.25708173901E+02  0.42751173814E+02  0.14943404280E+02  0.52075698740E+02  0.00000000000E+00 0. -1.
        -12    1    6    6    0    0  0.45687606706E+02  0.10037349980E+02  0.29861625142E+02  0.55496148130E+02  0.00000000000E+00 0.  1.
</event>
<event>
12    1  0.1345781E-002  0.2122347E+03  0.7818608E-02  0.1139808E+00
         -4   -1    0    0    0  501 -0.00000000000E+00  0.00000000000E+00  0.10951535683E+03  0.10951535683E+03  0.00000000000E+00 0. -1.
          4   -1    0    0  502    0  0.00000000000E+00 -0.00000000000E+00 -0.42344254467E+03  0.42344254467E+03  0.00000000000E+00 0.  1.
          6    2    1    2  502    0 -0.11265417194E+03  0.50121352732E+02 -0.20163823557E+03  0.29229951250E+03  0.17198230871E+03 0.  0.
         24    2    3    3    0    0 -0.13009321610E+03  0.28466403715E+02 -0.21144708792E+03  0.26244384868E+03  0.80201756263E+02 0.  0.
         -6    2    1    2    0  501  0.11265417194E+03 -0.50121352732E+02 -0.11228895227E+03  0.24065838900E+03  0.17350659624E+03 0.  0.
        -24    2    5    5    0    0  0.33751837970E+02 -0.14074522135E+01 -0.11958404389E+03  0.14752444904E+03  0.79510703830E+02 0.  0.
          5    1    3    3  502    0  0.17439044153E+02  0.21654949018E+02  0.98088523421E+01  0.29855663821E+02  0.47000000000E+01 0. -1.
        -11    1    4    4    0    0 -0.12580682939E+03  0.47700571329E+02 -0.17222918629E+03  0.21855341553E+03  0.00000000000E+00 0.  1.
         12    1    4    4    0    0 -0.42863867030E+01 -0.19234167615E+02 -0.39217901620E+02  0.43890433152E+02  0.00000000000E+00 0. -1.
         -5    1    5    5    0  501  0.78902333974E+02 -0.48713900519E+02  0.72950916241E+01  0.93133939958E+02  0.47000000000E+01 0.  1.
         13    1    6    6    0    0  0.16072528556E+02  0.91631212216E+01  0.66205271185E+01  0.19649945141E+02  0.00000000000E+00 0. -1.
        -14    1    6    6    0    0  0.17679309414E+02 -0.10570573435E+02 -0.12620457101E+03  0.12787450390E+03  0.00000000000E+00 0.  1.
</event>
<event>
12    1  0.1345781E-002  0.1954858E+03  0.7818608E-02  0.1153605E+00
         -2   -1    0    0    0  501 -0.00000000000E+00  0.00000000000E+00  0.26853391276E+02  0.26853391276E+02  0.00000000000E+00 0.  1.
          2   -1    0    0  502    0  0.00000000000E+00 -0.00000000000E+00 -0.14264403305E+04  0.14264403305E+04  0.00000000000E+00 0. -1.
          6    2    1    2  502    0  0.92027081335E+02  0.20014720942E+02 -0.66729655192E+03  0.69554921742E+03  0.17214660290E+03 0.  0.
         24    2    3    3    0    0  0.28007055349E+02 -0.65379297024E+02 -0.28681047844E+03  0.30034997128E+03  0.53768086053E+02 0.  0.
         -6    2    1    2    0  501 -0.92027081335E+02 -0.20014720942E+02 -0.73229038734E+03  0.75774450440E+03  0.17046392521E+03 0.  0.
        -24    2    5    5    0    0 -0.12481083881E+03 -0.27263401216E+02 -0.52064396282E+03  0.54339988204E+03  0.88838377143E+02 0.  0.
          5    1    3    3  502    0  0.64020025986E+02  0.85394017966E+02 -0.38048607348E+03  0.39519924614E+03  0.47000000000E+01 0. -1.
        -13    1    4    4    0    0  0.37865326094E+02 -0.21896629206E+02 -0.16256291107E+03  0.16834472177E+03  0.00000000000E+00 0.  1.
         14    1    4    4    0    0 -0.98582707453E+01 -0.43482667818E+02 -0.12424756737E+03  0.13200524952E+03  0.00000000000E+00 0. -1.
         -5    1    5    5    0  501  0.32783757473E+02  0.72486802731E+01 -0.21164642452E+03  0.21434462236E+03  0.47000000000E+01 0.  1.
         11    1    6    6    0    0 -0.64222436129E+02 -0.50791984092E+02 -0.37617746326E+03  0.38498549429E+03  0.00000000000E+00 0. -1.
        -12    1    6    6    0    0 -0.60588402679E+02  0.23528582877E+02 -0.14446649956E+03  0.15841438775E+03  0.00000000000E+00 0.  1.
</event>
<event>
12    1  0.1345781E-002  0.2072545E+03  0.7818608E-02  0.1143759E+00
         -2   -1    0    0    0  501 -0.00000000000E+00  0.00000000000E+00  0.50312229082E+02  0.50312229082E+02  0.00000000000E+00 0. -1.
          2   -1    0    0  502    0  0.00000000000E+00 -0.00000000000E+00 -0.91227146715E+03  0.91227146715E+03  0.00000000000E+00 0.  1.
          6    2    1    2  502    0 -0.77751882579E+02  0.81985357789E+02 -0.30669006781E+03  0.36945698238E+03  0.17225768487E+03 0.  0.
         24    2    3    3    0    0 -0.89906117333E+02  0.82322729537E+02 -0.31945337918E+03  0.35121331610E+03  0.80250795640E+02 0.  0.
         -6    2    1    2    0  501  0.77751882579E+02 -0.81985357789E+02 -0.55526917026E+03  0.59312671386E+03  0.17523838938E+03 0.  0.
        -24    2    5    5    0    0 -0.15137189690E+02 -0.11260882412E+01 -0.16873163750E+03  0.18741751325E+03  0.80153329289E+02 0.  0.
          5    1    3    3  502    0  0.12154234754E+02 -0.33737174789E+00  0.12763311372E+02  0.18243666280E+02  0.47000000000E+01 0. -1.
        -13    1    4    4    0    0 -0.41413423180E+02 -0.13923720970E+01 -0.15471185089E+03  0.16016481238E+03  0.00000000000E+00 0.  1.
         14    1    4    4    0    0 -0.48492694153E+02  0.83715101634E+02 -0.16474152829E+03  0.19104850371E+03  0.00000000000E+00 0. -1.
         -5    1    5    5    0  501  0.92889072268E+02 -0.80859269548E+02 -0.38653753277E+03  0.40570920061E+03  0.47000000000E+01 0.  1.
         13    1    6    6    0    0  0.26900949445E+02  0.20795471763E+02 -0.64637926559E+02  0.73035431653E+02  0.00000000000E+00 0. -1.
        -14    1    6    6    0    0 -0.42038139135E+02 -0.21921560004E+02 -0.10409371094E+03  0.11438208160E+03  0.00000000000E+00 0.  1.
</event>
<event>
12    1  0.1345781E-002  0.1754521E+03  0.7818608E-02  0.1172279E+00
         -2   -1    0    0    0  501 -0.00000000000E+00  0.00000000000E+00  0.17752319791E+03  0.17752319791E+03  0.00000000000E+00 0.  1.
          2   -1    0    0  502    0  0.00000000000E+00 -0.00000000000E+00 -0.18355324439E+03  0.18355324439E+03  0.00000000000E+00 0. -1.
          6    2    1    2  502    0 -0.13922145752E+02  0.42847804342E+02 -0.45322725735E+02  0.17852776346E+03  0.16669808751E+03 0.  0.
         24    2    3    3    0    0 -0.46739684730E+02  0.33412444127E+02 -0.81608861759E+02  0.12847988084E+03  0.80907872996E+02 0.  0.
         -6    2    1    2    0  501  0.13922145752E+02 -0.42847804342E+02  0.39292679255E+02  0.18254867883E+03  0.17248288327E+03 0.  0.
        -24    2    5    5    0    0  0.34191166824E+02 -0.85480922038E+02  0.52106416626E+02  0.13340910410E+03  0.81282756356E+02 0.  0.
          5    1    3    3  502    0  0.32817538978E+02  0.94353602145E+01  0.36286136024E+02  0.50047882617E+02  0.47000000000E+01 0. -1.
        -13    1    4    4    0    0 -0.11972022942E+02  0.49547237413E+02 -0.17700854190E+02  0.53959042872E+02  0.00000000000E+00 0.  1.
         14    1    4    4    0    0 -0.34767661788E+02 -0.16134793286E+02 -0.63908007569E+02  0.74520837972E+02  0.00000000000E+00 0. -1.
         -5    1    5    5    0  501 -0.20269021072E+02  0.42633117697E+02 -0.12813737371E+02  0.49139574735E+02  0.47000000000E+01 0.  1.
         11    1    6    6    0    0 -0.25173221805E+02 -0.40583515358E+02  0.13862190279E+02  0.49727991455E+02  0.00000000000E+00 0. -1.
        -12    1    6    6    0    0  0.59364388629E+02 -0.44897406680E+02  0.38244226347E+02  0.83681112641E+02  0.00000000000E+00 0.  1.
</event>
<event>
12    1  0.1345781E-002  0.2426411E+03  0.7818608E-02  0.1118046E+00
         -1   -1    0    0    0  501 -0.00000000000E+00  0.00000000000E+00  0.38109941408E+03  0.38109941408E+03  0.00000000000E+00 0.  1.
          1   -1    0    0  502    0  0.00000000000E+00 -0.00000000000E+00 -0.16511031935E+03  0.16511031935E+03  0.00000000000E+00 0. -1.
          6    2    1    2  502    0 -0.51572803461E+01 -0.16790819275E+03  0.39566435507E+02  0.24778093459E+03  0.17779237890E+03 0.  0.
         24    2    3    3    0    0 -0.54348649194E+02 -0.15624140414E+03  0.48517338109E+00  0.18370800915E+03  0.79895213839E+02 0.  0.
         -6    2    1    2    0  501  0.51572803461E+01  0.16790819275E+03  0.17642265922E+03  0.29842879884E+03  0.17238049356E+03 0.  0.
        -24    2    5    5    0    0  0.31081145308E+02  0.15765524939E+03  0.70326687637E+02  0.18863073507E+03  0.69386569052E+02 0.  0.
          5    1    3    3  502    0  0.49191368848E+02 -0.11666788611E+02  0.39081262126E+02  0.64072925444E+02  0.47000000000E+01 0. -1.
        -11    1    4    4    0    0  0.19553684047E+02 -0.52642518385E+02  0.49373567814E+01  0.56373387282E+02  0.00000000000E+00 0.  1.
         12    1    4    4    0    0 -0.73902333241E+02 -0.10359888576E+03 -0.44521834003E+01  0.12733462186E+03  0.00000000000E+00 0. -1.
         -5    1    5    5    0  501 -0.25923864962E+02  0.10252943364E+02  0.10609597159E+03  0.10979806378E+03  0.47000000000E+01 0.  1.
         13    1    6    6    0    0  0.15695446063E+02  0.37958122877E+01 -0.46232129071E+01  0.16796705499E+02  0.00000000000E+00 0. -1.
        -14    1    6    6    0    0  0.15385699245E+02  0.15385943710E+03  0.74949900544E+02  0.17183402957E+03  0.00000000000E+00 0.  1.
</event>
<event>
12    1  0.1345781E-002  0.3507553E+03  0.7818608E-02  0.1062305E+00
          1   -1    0    0  502    0  0.00000000000E+00  0.00000000000E+00  0.17528672068E+04  0.17528672068E+04  0.00000000000E+00 0.  1.
         -1   -1    0    0    0  501 -0.00000000000E+00 -0.00000000000E+00 -0.13240316532E+03  0.13240316532E+03  0.00000000000E+00 0. -1.
          6    2    1    2  502    0  0.18671114550E+03 -0.24157755534E+03  0.14566695014E+04  0.14983559952E+04  0.17310079445E+03 0.  0.
         24    2    3    3    0    0  0.32564189387E+02 -0.10979201856E+03  0.76543058159E+03  0.77796579121E+03  0.78943544997E+02 0.  0.
         -6    2    1    2    0  501 -0.18671114550E+03  0.24157755534E+03  0.16379454011E+03  0.38691437691E+03  0.17220138383E+03 0.  0.
        -24    2    5    5    0    0 -0.98829274096E+02  0.13114618508E+03  0.16434235030E+03  0.24570283009E+03  0.79968277030E+02 0.  0.
          5    1    3    3  502    0  0.15414695611E+03 -0.13178553678E+03  0.69123891983E+03  0.72039020404E+03  0.47000000000E+01 0. -1.
        -11    1    4    4    0    0  0.24648447266E+02 -0.70967645410E+02  0.67585968290E+03  0.68002225230E+03  0.00000000000E+00 0.  1.
         12    1    4    4    0    0  0.79157421211E+01 -0.38824373147E+02  0.89570898684E+02  0.97943538913E+02  0.00000000000E+00 0. -1.
         -5    1    5    5    0  501 -0.87881871405E+02  0.11043137026E+03 -0.54781019721E+00  0.14121154682E+03  0.47000000000E+01 0.  1.
         13    1    6    6    0    0 -0.76070270651E+02  0.13487989938E+03  0.12068000954E+03  0.19632355446E+03  0.00000000000E+00 0. -1.
        -14    1    6    6    0    0 -0.22759003445E+02 -0.37337143051E+01  0.43662340762E+02  0.49379275624E+02  0.00000000000E+00 0.  1.
</event>
<event>
12    1  0.1345781E-002  0.1762764E+03  0.7818608E-02  0.1171456E+00
         -1   -1    0    0    0  501 -0.00000000000E+00  0.00000000000E+00  0.49717112740E+03  0.49717112740E+03  0.00000000000E+00 0. -1.
          1   -1    0    0  502    0  0.00000000000E+00 -0.00000000000E+00 -0.62693500895E+02  0.62693500895E+02  0.00000000000E+00 0.  1.
          6    2    1    2  502    0  0.34751742584E+02 -0.15978466630E+01  0.20043617771E+03  0.26619222903E+03  0.17167820111E+03 0.  0.
         24    2    3    3    0    0  0.32598841359E+02  0.22122379550E+01  0.27771619641E+02  0.93408284923E+02  0.82983530776E+02 0.  0.
         -6    2    1    2    0  501 -0.34751742584E+02  0.15978466630E+01  0.23404144879E+03  0.29367239926E+03  0.17394781289E+03 0.  0.
        -24    2    5    5    0    0 -0.67639118883E+02  0.44071864292E+02  0.11075368452E+03  0.15910797413E+03  0.80818247752E+02 0.  0.
          5    1    3    3  502    0  0.21529012259E+01 -0.38100846179E+01  0.17266455807E+03  0.17278394411E+03  0.47000000000E+01 0. -1.
        -13    1    4    4    0    0  0.35660198634E+02 -0.34413951782E+02  0.27451609039E+02  0.56652984764E+02  0.00000000000E+00 0.  1.
         14    1    4    4    0    0 -0.30613572755E+01  0.36626189736E+02  0.32001060201E+00  0.36755300159E+02  0.00000000000E+00 0. -1.
         -5    1    5    5    0  501  0.32887376299E+02 -0.42474017629E+02  0.12328776427E+03  0.13456442514E+03  0.47000000000E+01 0.  1.
         13    1    6    6    0    0 -0.56871859419E+02  0.22350939337E+02  0.18682322445E+02  0.63898372866E+02  0.00000000000E+00 0. -1.
        -14    1    6    6    0    0 -0.10767259465E+02  0.21720924955E+02  0.92071362077E+02  0.95209601260E+02  0.00000000000E+00 0.  1.
</event>
<event>
12    1  0.1345781E-002  0.1817518E+03  0.7818608E-02  0.1166118E+00
          2   -1    0    0  502    0  0.00000000000E+00  0.00000000000E+00  0.57485535845E+03  0.57485535845E+03  0.00000000000E+00 0. -1.
         -2   -1    0    0    0  501 -0.00000000000E+00 -0.00000000000E+00 -0.64933720305E+02  0.64933720305E+02  0.00000000000E+00 0.  1.
          6    2    1    2  502    0  0.81567197037E+01  0.55833096188E+02  0.14584107122E+03  0.23263710527E+03  0.17223976889E+03 0.  0.
         24    2    3    3    0    0 -0.57113022211E+01 -0.13469666895E+02  0.11818575792E+02  0.81047810514E+02  0.78835385177E+02 0.  0.
         -6    2    1    2    0  501 -0.81567197037E+01 -0.55833096188E+02  0.36408056692E+03  0.40715197348E+03  0.17330378990E+03 0.  0.
        -24    2    5    5    0    0 -0.24076736420E+02 -0.43477595461E+02  0.65463346767E+02  0.10781864840E+03  0.69781234082E+02 0.  0.
          5    1    3    3  502    0  0.13868021925E+02  0.69302763083E+02  0.13402249543E+03  0.15158929476E+03  0.47000000000E+01 0. -1.
        -11    1    4    4    0    0  0.29333867123E+02  0.10994745204E+02  0.20496463400E+02  0.37436148231E+02  0.00000000000E+00 0.  1.
         12    1    4    4    0    0 -0.35045169344E+02 -0.24464412099E+02 -0.86778876081E+01  0.43611662283E+02  0.00000000000E+00 0. -1.
         -5    1    5    5    0  501  0.15920016716E+02 -0.12355500728E+02  0.29861722015E+03  0.29933332508E+03  0.47000000000E+01 0.  1.
         11    1    6    6    0    0 -0.29259951743E+02 -0.67697363342E+01  0.64024744902E+02  0.70718753282E+02  0.00000000000E+00 0. -1.
        -12    1    6    6    0    0  0.51832153229E+01 -0.36707859126E+02  0.14386018650E+01  0.37099895122E+02  0.00000000000E+00 0.  1.
</event>
<event>
12    1  0.1345781E-002  0.1918407E+03  0.7818608E-02  0.1156812E+00
          2   -1    0    0  502    0  0.00000000000E+00  0.00000000000E+00  0.17315643421E+04  0.17315643421E+04  0.00000000000E+00 0.  1.
         -2   -1    0    0    0  501 -0.00000000000E+00 -0.00000000000E+00 -0.27850753514E+02  0.27850753514E+02  0.00000000000E+00 0. -1.
          6    2    1    2  502    0  0.56471633026E+02 -0.69805021370E+02  0.12773397288E+04  0.12915502662E+04  0.16865207104E+03 0.  0.
         24    2    3    3    0    0  0.98120602161E+02 -0.39072720582E+02  0.74606014255E+03  0.75773456797E+03  0.80010056404E+02 0.  0.
         -6    2    1    2    0  501 -0.56471633026E+02  0.69805021370E+02  0.42637385979E+03  0.46786482940E+03  0.17041433017E+03 0.  0.
        -24    2    5    5    0    0 -0.22666866510E+02 -0.29541965044E+02  0.19510922225E+03  0.21386087564E+03  0.79261283009E+02 0.  0.
          5    1    3    3  502    0 -0.41648969135E+02 -0.30732300788E+02  0.53127958623E+03  0.53381569823E+03  0.47000000000E+01 0. -1.
        -11    1    4    4    0    0  0.28435929981E+02 -0.51471771341E+02  0.41877383918E+03  0.42288234031E+03  0.00000000000E+00 0.  1.
         12    1    4    4    0    0  0.69684672179E+02  0.12399050759E+02  0.32728630337E+03  0.33485222766E+03  0.00000000000E+00 0. -1.
         -5    1    5    5    0  501 -0.33804766516E+02  0.99346986414E+02  0.23126463754E+03  0.25400395376E+03  0.47000000000E+01 0.  1.
         13    1    6    6    0    0 -0.91664341834E+01  0.82358507738E+01 -0.21972517386E+01  0.12517214898E+02  0.00000000000E+00 0. -1.
        -14    1    6    6    0    0 -0.13500432327E+02 -0.37777815818E+02  0.19730647399E+03  0.20134366074E+03  0.00000000000E+00 0.  1.
</event>
<event>
12    1  0.1345781E-002  0.2239334E+03  0.7818608E-02  0.1130984E+00
         -2   -1    0    0    0  501 -0.00000000000E+00  0.00000000000E+00  0.19767219642E+02  0.19767219642E+02  0.00000000000E+00 0. -1.
          2   -1    0    0  502    0  0.00000000000E+00 -0.00000000000E+00 -0.25691910890E+04  0.25691910890E+04  0.00000000000E+00 0.  1.
          6    2    1    2  502    0  0.13454179148E+03 -0.47885699357E+02 -0.11287237011E+04  0.11506980499E+04  0.17232026848E+03 0.  0.
         24    2    3    3    0    0  0.10630528697E+03  0.10289837996E+02 -0.97097961416E+03  0.98014899457E+03  0.80522951012E+02 0.  0.
         -6    2    1    2    0  501 -0.13454179148E+03  0.47885699357E+02 -0.14207001683E+04  0.14382602587E+04  0.17265303275E+03 0.  0.
        -24    2    5    5    0    0 -0.10366858300E+03  0.17057519454E+02 -0.13397956420E+04  0.13462213319E+04  0.78875712300E+02 0.  0.
          5    1    3    3  502    0  0.28236504515E+02 -0.58175537353E+02 -0.15774408691E+03  0.17054905537E+03  0.47000000000E+01 0. -1.
        -13    1    4    4    0    0  0.47040531909E+02  0.37585458998E+02 -0.29856006743E+03  0.30457116120E+03  0.00000000000E+00 0.  1.
         14    1    4    4    0    0  0.59264755060E+02 -0.27295621002E+02 -0.67241954673E+03  0.67557783337E+03  0.00000000000E+00 0. -1.
         -5    1    5    5    0  501 -0.30873208487E+02  0.30828179903E+02 -0.80904526323E+02  0.92038926862E+02  0.47000000000E+01 0.  1.
         11    1    6    6    0    0 -0.61506610658E+02  0.24358755019E+02 -0.39851275183E+03  0.40396636676E+03  0.00000000000E+00 0. -1.
        -12    1    6    6    0    0 -0.42161972339E+02 -0.73012355658E+01 -0.94128289016E+03  0.94225496510E+03  0.00000000000E+00 0.  1.
</event>
<event>
12    1  0.1345781E-002  0.1843576E+03  0.7818608E-02  0.1163651E+00
         -1   -1    0    0    0  501 -0.00000000000E+00  0.00000000000E+00  0.21845503966E+03  0.21845503966E+03  0.00000000000E+00 0.  1.
          1   -1    0    0  502    0  0.00000000000E+00 -0.00000000000E+00 -0.15582716854E+03  0.15582716854E+03  0.00000000000E+00 0. -1.
          6    2    1    2  502    0 -0.17375107810E+02 -0.64560518232E+02  0.38768158072E+02  0.18861910760E+03  0.17205883524E+03 0.  0.
         24    2    3    3    0    0  0.52924218147E+02 -0.62418873381E+02  0.22949917417E+02  0.11637723186E+03  0.79497627416E+02 0.  0.
         -6    2    1    2    0  501  0.17375107810E+02  0.64560518232E+02  0.23859713047E+02  0.18566310059E+03  0.17155624771E+03 0.  0.
        -24    2    5    5    0    0 -0.44307023468E+02  0.68946570677E+02 -0.11427293991E+02  0.11431055586E+03  0.78864302415E+02 0.  0.
          5    1    3    3  502    0 -0.70299325958E+02 -0.21416448515E+01  0.15818240655E+02  0.72241875738E+02  0.47000000000E+01 0. -1.
        -13    1    4    4    0    0  0.38174347899E+01  0.73668083480E+01  0.29643993600E+02  0.30783258927E+02  0.00000000000E+00 0.  1.
         14    1    4    4    0    0  0.49106783358E+02 -0.69785681729E+02 -0.66940761828E+01  0.85593972930E+02  0.00000000000E+00 0. -1.
         -5    1    5    5    0  501  0.61682131278E+02 -0.43860524448E+01  0.35287007038E+02  0.71352544739E+02  0.47000000000E+01 0.  1.
         11    1    6    6    0    0 -0.38690338529E+02  0.70156424906E+02 -0.36893481106E+02  0.88204281071E+02  0.00000000000E+00 0. -1.
        -12    1    6    6    0    0 -0.56166849385E+01 -0.12098542286E+01  0.25466187115E+02  0.26106274785E+02  0.00000000000E+00 0.  1.
</event>
<event>
12    1  0.1345781E-002  0.2546586E+03  0.7818608E-02  0.1110396E+00
         -2   -1    0    0    0  501 -0.00000000000E+00  0.00000000000E+00  0.17558384623E+03  0.17558384623E+03  0.00000000000E+00 0.  1.
          2   -1    0    0  502    0  0.00000000000E+00 -0.00000000000E+00 -0.38674747467E+03  0.38674747467E+03  0.00000000000E+00 0. -1.
          6    2    1    2  502    0  0.27810289110E+02  0.18544769213E+03 -0.16526601463E+03  0.30367350971E+03  0.17245430181E+03 0.  0.
         24    2    3    3    0    0  0.48293065680E+02  0.11194590113E+03 -0.17441839281E+03  0.22668056560E+03  0.78090960410E+02 0.  0.
         -6    2    1    2    0  501 -0.27810289110E+02 -0.18544769213E+03 -0.45897613800E+02  0.25865781119E+03  0.17214242255E+03 0.  0.
        -24    2    5    5    0    0 -0.44223154053E+02 -0.14825737978E+03 -0.92257080686E+02  0.19682099660E+03  0.79317071014E+02 0.  0.
          5    1    3    3  502    0 -0.20482776570E+02  0.73501791003E+02  0.91523781804E+01  0.76992944111E+02  0.47000000000E+01 0. -1.
        -13    1    4    4    0    0  0.31154445185E+01 -0.33084017874E+01 -0.53295771892E+02  0.53489165431E+02  0.00000000000E+00 0.  1.
         14    1    4    4    0    0  0.45177621161E+02  0.11525430291E+03 -0.12112262092E+03  0.17319140017E+03  0.00000000000E+00 0. -1.
         -5    1    5    5    0  501  0.16412864943E+02 -0.37190312352E+02  0.46359466886E+02  0.61836814588E+02  0.47000000000E+01 0.  1.
         13    1    6    6    0    0 -0.33428769572E+02 -0.15653251321E+03 -0.82426772371E+02  0.18003911556E+03  0.00000000000E+00 0. -1.
        -14    1    6    6    0    0 -0.10794384481E+02  0.82751334378E+01 -0.98303083153E+01  0.16781881042E+02  0.00000000000E+00 0.  1.
</event>
<event>
12    1  0.1345781E-002  0.2832798E+03  0.7818608E-02  0.1093911E+00
         -2   -1    0    0    0  501 -0.00000000000E+00  0.00000000000E+00  0.41694911596E+02  0.41694911596E+02  0.00000000000E+00 0. -1.
          2   -1    0    0  502    0  0.00000000000E+00 -0.00000000000E+00 -0.22033590030E+04  0.22033590030E+04  0.00000000000E+00 0.  1.
          6    2    1    2  502    0 -0.19859840245E+03  0.10051188662E+03 -0.67339993261E+03  0.72959957094E+03  0.17118440310E+03 0.  0.
         24    2    3    3    0    0 -0.73054273178E+02 -0.78738971486E+01 -0.33820998519E+03  0.35558994891E+03  0.81604488827E+02 0.  0.
         -6    2    1    2    0  501  0.19859840245E+03 -0.10051188662E+03 -0.14882641588E+04  0.15154543437E+04  0.17924200558E+03 0.  0.
        -24    2    5    5    0    0  0.46392635446E+02  0.12474006349E+02 -0.39780146925E+03  0.40862853316E+03  0.80146064857E+02 0.  0.
          5    1    3    3  502    0 -0.12554412927E+03  0.10838578377E+03 -0.33518994742E+03  0.37400962203E+03  0.47000000000E+01 0. -1.
        -11    1    4    4    0    0 -0.30497117205E+02 -0.43529840733E+02 -0.13994612058E+03  0.14969915784E+03  0.00000000000E+00 0.  1.
         12    1    4    4    0    0 -0.42557155974E+02  0.35655943585E+02 -0.19826386462E+03  0.20589079108E+03  0.00000000000E+00 0. -1.
         -5    1    5    5    0  501  0.15220576700E+03 -0.11298589297E+03 -0.10904626896E+04  0.11068258105E+04  0.47000000000E+01 0.  1.
         13    1    6    6    0    0  0.18520037671E+02  0.34319713900E+02 -0.32846393905E+03  0.33077090836E+03  0.00000000000E+00 0. -1.
        -14    1    6    6    0    0  0.27872597775E+02 -0.21845707552E+02 -0.69337530203E+02  0.77857624802E+02  0.00000000000E+00 0.  1.
</event>
<event>
12    1  0.1345781E-002  0.2571582E+03  0.7818608E-02  0.1108863E+00
          2   -1    0    0  502    0  0.00000000000E+00  0.00000000000E+00  0.16020891673E+04  0.16020891673E+04  0.00000000000E+00 0.  1.
         -2   -1    0    0    0  501 -0.00000000000E+00 -0.00000000000E+00 -0.41703671583E+02  0.41703671583E+02  0.00000000000E+00 0. -1.
          6    2    1    2  502    0 -0.91150139255E+02 -0.17329093636E+03  0.87120384523E+03  0.90916659736E+03  0.17102533527E+03 0.  0.
         24    2    3    3    0    0  0.73907476059E+01 -0.45219504238E+02  0.48484297676E+03  0.49034753286E+03  0.57171357785E+02 0.  0.
         -6    2    1    2    0  501  0.91150139255E+02  0.17329093636E+03  0.68918165045E+03  0.73462624149E+03  0.16237694064E+03 0.  0.
        -24    2    5    5    0    0  0.15368305364E+02  0.15107154128E+03  0.52641341058E+03  0.55365061391E+03  0.79744141177E+02 0.  0.
          5    1    3    3  502    0 -0.98540886861E+02 -0.12807143212E+03  0.38636086847E+03  0.41881906451E+03  0.47000000000E+01 0. -1.
        -13    1    4    4    0    0  0.15682919747E+02 -0.52872848606E+02  0.29121810096E+03  0.29639412008E+03  0.00000000000E+00 0.  1.
         14    1    4    4    0    0 -0.82921721415E+01  0.76533443672E+01  0.19362487580E+03  0.19395341278E+03  0.00000000000E+00 0. -1.
         -5    1    5    5    0  501  0.75781833891E+02  0.22219395081E+02  0.16276823988E+03  0.18097562758E+03  0.47000000000E+01 0.  1.
         11    1    6    6    0    0 -0.25636821758E+02  0.62259625345E+02  0.29167195896E+03  0.29934267859E+03  0.00000000000E+00 0. -1.
        -12    1    6    6    0    0  0.41005127122E+02  0.88811915932E+02  0.23474145161E+03  0.25430793532E+03  0.00000000000E+00 0.  1.
</event>
<event>
12    1  0.1345781E-002  0.2315720E+03  0.7818608E-02  0.1125538E+00
         -1   -1    0    0    0  501 -0.00000000000E+00  0.00000000000E+00  0.25416082394E+03  0.25416082394E+03  0.00000000000E+00 0. -1.
          1   -1    0    0  502    0  0.00000000000E+00 -0.00000000000E+00 -0.26688421374E+03  0.26688421374E+03  0.00000000000E+00 0.  1.
          6    2    1    2  502    0 -0.13167153794E+03  0.73849416940E+02 -0.12560220905E+03  0.26429836336E+03  0.17688012797E+03 0.  0.
         24    2    3    3    0    0 -0.11942058189E+03 -0.14023339910E+02 -0.72822930548E+02  0.16095694108E+03  0.78396608506E+02 0.  0.
         -6    2    1    2    0  501  0.13167153794E+03 -0.73849416940E+02  0.11287881925E+03  0.25674667432E+03  0.17431608259E+03 0.  0.
        -24    2    5    5    0    0  0.55809048678E+02 -0.10930832060E+03  0.70745289454E+02  0.16288627021E+03  0.80399516022E+02 0.  0.
          5    1    3    3  502    0 -0.12250956044E+02  0.87872756849E+02 -0.52779278507E+02  0.10334142229E+03  0.47000000000E+01 0. -1.
        -11    1    4    4    0    0 -0.47162356789E+02  0.32787043913E+02 -0.29850390123E+02  0.64732711491E+02  0.00000000000E+00 0.  1.
         12    1    4    4    0    0 -0.72258225106E+02 -0.46810383823E+02 -0.42972540424E+02  0.96224229587E+02  0.00000000000E+00 0. -1.
         -5    1    5    5    0  501  0.75862489260E+02  0.35458903660E+02  0.42133529800E+02  0.93860404106E+02  0.47000000000E+01 0.  1.
         13    1    6    6    0    0  0.54912579325E+02 -0.29943942297E+02  0.51985995613E+02  0.81330036200E+02  0.00000000000E+00 0. -1.
        -14    1    6    6    0    0  0.89646935330E+00 -0.79364378302E+02  0.18759293841E+02  0.81556234010E+02  0.00000000000E+00 0.  1.
</event>
<event>
12    1  0.1345781E-002  0.1727697E+03  0.7818608E-02  0.1174990E+00
          2   -1    0    0  502    0  0.00000000000E+00  0.00000000000E+00  0.79515497302E+03  0.79515497302E+03  0.00000000000E+00 0. -1.
         -2   -1    0    0    0  501 -0.00000000000E+00 -0.00000000000E+00 -0.38677925298E+02  0.38677925298E+02  0.00000000000E+00 0.  1.
          6    2    1    2  502    0  0.48074126733E+01  0.14413672150E+02  0.44809877830E+03  0.47997261391E+03  0.17131937962E+03 0.  0.
         24    2    3    3    0    0  0.33783668560E+02  0.60316506998E+02  0.22536758619E+03  0.25067375306E+03  0.85248837466E+02 0.  0.
         -6    2    1    2    0  501 -0.48074126733E+01 -0.14413672150E+02  0.30837826942E+03  0.35386028440E+03  0.17288458191E+03 0.  0.
        -24    2    5    5    0    0  0.60257853079E+02 -0.23649946089E+02  0.23231545417E+03  0.25323007310E+03  0.77231281649E+02 0.  0.
          5    1    3    3  502    0 -0.28976255886E+02 -0.45902834848E+02  0.22273119211E+03  0.22929886085E+03  0.47000000000E+01 0. -1.
        -13    1    4    4    0    0  0.48984003113E+02  0.11396253368E+02  0.64155770103E+02  0.81518525436E+02  0.00000000000E+00 0.  1.
         14    1    4    4    0    0 -0.15200334553E+02  0.48920253630E+02  0.16121181609E+03  0.16915522762E+03  0.00000000000E+00 0. -1.
         -5    1    5    5    0  501 -0.65065265752E+02  0.92362739386E+01  0.76062815251E+02  0.10063021131E+03  0.47000000000E+01 0.  1.
         11    1    6    6    0    0  0.11065340171E+02 -0.30856856426E+02  0.17185232057E+03  0.17495087146E+03  0.00000000000E+00 0. -1.
        -12    1    6    6    0    0  0.49192512908E+02  0.72069103376E+01  0.60463133606E+02  0.78279201633E+02  0.00000000000E+00 0.  1.
</event>
<event>
12    1  0.1345781E-002  0.1886023E+03  0.7818608E-02  0.1159728E+00
          2   -1    0    0  502    0  0.00000000000E+00  0.00000000000E+00  0.86915542278E+03  0.86915542278E+03  0.00000000000E+00 0. -1.
         -2   -1    0    0    0  501 -0.00000000000E+00 -0.00000000000E+00 -0.60087792925E+02  0.60087792925E+02  0.00000000000E+00 0.  1.
          6    2    1    2  502    0  0.41630144723E+02 -0.65112931412E+02  0.14278869175E+03  0.23690232813E+03  0.17251475239E+03 0.  0.
         24    2    3    3    0    0  0.37226516177E+02 -0.10348854670E+03  0.14270107503E+03  0.19798989477E+03  0.82101819786E+02 0.  0.
         -6    2    1    2    0  501 -0.41630144723E+02  0.65112931412E+02  0.66627893811E+03  0.69234088758E+03  0.17156782468E+03 0.  0.
        -24    2    5    5    0    0 -0.88715960681E+02  0.28891203689E+02  0.41946405298E+03  0.43843388660E+03  0.86999757775E+02 0.  0.
          5    1    3    3  502    0  0.44036285460E+01  0.38375615285E+02  0.87616718090E-01  0.38912433354E+02  0.47000000000E+01 0. -1.
        -13    1    4    4    0    0  0.54863188476E+02 -0.33241151706E+02  0.76822077908E+02  0.10008284204E+03  0.00000000000E+00 0.  1.
         14    1    4    4    0    0 -0.17636672298E+02 -0.70247394991E+02  0.65878997124E+02  0.97907052732E+02  0.00000000000E+00 0. -1.
         -5    1    5    5    0  501  0.47085815958E+02  0.36221727723E+02  0.24681488513E+03  0.25390700098E+03  0.47000000000E+01 0.  1.
         13    1    6    6    0    0 -0.64675162854E+02  0.18462293038E+02  0.40044516101E+03  0.40605425737E+03  0.00000000000E+00 0. -1.
        -14    1    6    6    0    0 -0.24040797827E+02  0.10428910651E+02  0.19018891968E+02  0.32379629232E+02  0.00000000000E+00 0.  1.
</event>
<event>
12    1  0.1345781E-002  0.1909021E+03  0.7818608E-02  0.1157650E+00
         -2   -1    0    0    0  501 -0.00000000000E+00  0.00000000000E+00  0.14413220144E+03  0.14413220144E+03  0.00000000000E+00 0.  1.
          2   -1    0    0  502    0  0.00000000000E+00 -0.00000000000E+00 -0.25289251621E+03  0.25289251621E+03  0.00000000000E+00 0. -1.
          6    2    1    2  502    0  0.86907024373E+02  0.97606893942E+01 -0.55924744712E+02  0.19737491554E+03  0.16787250599E+03 0.  0.
         24    2    3    3    0    0  0.89833749698E+02 -0.47523938857E+01  0.17547550686E+02  0.12227855412E+03  0.80940968793E+02 0.  0.
         -6    2    1    2    0  501 -0.86907024373E+02 -0.97606893942E+01 -0.52835570056E+02  0.19964980211E+03  0.17152359627E+03 0.  0.
        -24    2    5    5    0    0  0.14854966912E+02 -0.14132669178E+02  0.60974031676E+01  0.81879676823E+02  0.79036072595E+02 0.  0.
          5    1    3    3  502    0 -0.29267253249E+01  0.14513083280E+02 -0.73472295398E+02  0.75096361419E+02  0.47000000000E+01 0. -1.
        -11    1    4    4    0    0 -0.71883121076E+01 -0.20805065920E+02 -0.16782507747E+01  0.22075758754E+02  0.00000000000E+00 0.  1.
         12    1    4    4    0    0  0.97022061806E+02  0.16052672035E+02  0.19225801460E+02  0.10020279536E+03  0.00000000000E+00 0. -1.
         -5    1    5    5    0  501 -0.10176199129E+03  0.43719797842E+01 -0.58932973223E+02  0.11777012529E+03  0.47000000000E+01 0.  1.
         11    1    6    6    0    0 -0.16102388037E+02  0.47062450451E+01 -0.27662505256E+02  0.32351968100E+02  0.00000000000E+00 0. -1.
        -12    1    6    6    0    0  0.30957354949E+02 -0.18838914224E+02  0.33759908424E+02  0.49527708723E+02  0.00000000000E+00 0.  1.
</event>
<event>
12    1  0.1345781E-002  0.3264813E+03  0.7818608E-02  0.1072704E+00
         -4   -1    0    0    0  501 -0.00000000000E+00  0.00000000000E+00  0.88367110698E+03  0.88367110698E+03  0.00000000000E+00 0. -1.
          4   -1    0    0  502    0  0.00000000000E+00 -0.00000000000E+00 -0.28471993878E+03  0.28471993878E+03  0.00000000000E+00 0.  1.
          6    2    1    2  502    0 -0.21830472842E+03  0.17093954760E+03  0.74306428280E+03  0.81170882472E+03  0.17276980168E+03 0.  0.
         24    2    3    3    0    0 -0.20923857229E+03  0.90510523289E+02  0.60492511698E+03  0.65153534917E+03  0.81184845247E+02 0.  0.
         -6    2    1    2    0  501  0.21830472842E+03 -0.17093954760E+03 -0.14411311460E+03  0.35668222103E+03  0.17197771255E+03 0.  0.
        -24    2    5    5    0    0  0.16044466179E+03 -0.18823038476E+03 -0.90337230552E+02  0.27568409719E+03  0.81656224352E+02 0.  0.
          5    1    3    3  502    0 -0.90661561306E+01  0.80429024307E+02  0.13813916582E+03  0.16017347556E+03  0.47000000000E+01 0. -1.
        -13    1    4    4    0    0 -0.16452559055E+03  0.76424006119E+02  0.37122281515E+03  0.41317753708E+03  0.00000000000E+00 0.  1.
         14    1    4    4    0    0 -0.44712981737E+02  0.14086517170E+02  0.23370230183E+03  0.23835781209E+03  0.00000000000E+00 0. -1.
         -5    1    5    5    0  501  0.57860066628E+02  0.17290837163E+02 -0.53775884053E+02  0.80998123840E+02  0.47000000000E+01 0.  1.
         13    1    6    6    0    0  0.15585277913E+02 -0.16764966696E+02  0.15372219162E+02  0.27572996172E+02  0.00000000000E+00 0. -1.
        -14    1    6    6    0    0  0.14485938388E+03 -0.17146541806E+03 -0.10570944971E+03  0.24811110102E+03  0.00000000000E+00 0.  1.
</event>
<event>
12    1  0.1345781E-002  0.3506582E+03  0.7818608E-02  0.1062345E+00
          2   -1    0    0  502    0  0.00000000000E+00  0.00000000000E+00  0.12254240241E+04  0.12254240241E+04  0.00000000000E+00 0.  1.
         -2   -1    0    0    0  501 -0.00000000000E+00 -0.00000000000E+00 -0.19941425112E+03  0.19941425112E+03  0.00000000000E+00 0. -1.
          6    2    1    2  502    0  0.41775828400E+00  0.30568796783E+03  0.10150436409E+04  0.10738566843E+04  0.17149133288E+03 0.  0.
         24    2    3    3    0    0  0.52509589850E+02  0.23491267443E+03  0.84827169919E+03  0.88528926500E+03  0.78936591355E+02 0.  0.
         -6    2    1    2    0  501 -0.41775828400E+00 -0.30568796783E+03  0.10966132035E+02  0.35098159089E+03  0.17211191968E+03 0.  0.
        -24    2    5    5    0    0 -0.53544998663E+02 -0.10992104070E+03  0.21649277425E+02  0.14779839025E+03  0.80162153647E+02 0.  0.
          5    1    3    3  502    0 -0.52091831566E+02  0.70775293394E+02  0.16677194172E+03  0.18856741929E+03  0.47000000000E+01 0. -1.
        -13    1    4    4    0    0  0.51487638388E+02  0.22200254488E+03  0.69368247349E+03  0.73015853132E+03  0.00000000000E+00 0.  1.
         14    1    4    4    0    0  0.10219514627E+01  0.12910129549E+02  0.15458922570E+03  0.15513073368E+03  0.00000000000E+00 0. -1.
         -5    1    5    5    0  501  0.53127240379E+02 -0.19576692713E+03 -0.10683145390E+02  0.20318320064E+03  0.47000000000E+01 0.  1.
         13    1    6    6    0    0 -0.52508225141E+02 -0.12043572497E+03  0.95439594841E+01  0.13173065217E+03  0.00000000000E+00 0. -1.
        -14    1    6    6    0    0 -0.10367735225E+01  0.10514684274E+02  0.12105317941E+02  0.16067738085E+02  0.00000000000E+00 0.  1.
</event>
<event>
12    1  0.1345781E-002  0.1930810E+03  0.7818608E-02  0.1155711E+00
          2   -1    0    0  502    0  0.00000000000E+00  0.00000000000E+00  0.10676230260E+04  0.10676230260E+04  0.00000000000E+00 0.  1.
         -2   -1    0    0    0  501 -0.00000000000E+00 -0.00000000000E+00 -0.51766980927E+02  0.51766980927E+02  0.00000000000E+00 0. -1.
          6    2    1    2  502    0  0.17863473292E+02 -0.83929709006E+02  0.18758150089E+03  0.26877363356E+03  0.17230538844E+03 0.  0.
         24    2    3    3    0    0 -0.21226532674E+02 -0.11043543296E+03  0.16652711792E+03  0.21685100832E+03  0.81526242795E+02 0.  0.
         -6    2    1    2    0  501 -0.17863473292E+02  0.83929709006E+02  0.82827454417E+03  0.85061637337E+03  0.17362659468E+03 0.  0.
        -24    2    5    5    0    0 -0.25342094681E+02 -0.57181466639E+01  0.21533211026E+03  0.23108979193E+03  0.79747446760E+02 0.  0.
          5    1    3    3  502    0  0.39090005965E+02  0.26505723958E+02  0.21054382978E+02  0.51922625236E+02  0.47000000000E+01 0. -1.
        -13    1    4    4    0    0 -0.18861344843E+02 -0.45695934009E+02  0.13701937433E+03  0.14566460674E+03  0.00000000000E+00 0.  1.
         14    1    4    4    0    0 -0.23651878304E+01 -0.64739498955E+02  0.29507743584E+02  0.71186401580E+02  0.00000000000E+00 0. -1.
         -5    1    5    5    0  501  0.74786213892E+01  0.89647855670E+02  0.61294243392E+03  0.61952658143E+03  0.47000000000E+01 0.  1.
         13    1    6    6    0    0  0.28799054646E+02  0.32710332125E+01  0.73128378204E+02  0.78662855946E+02  0.00000000000E+00 0. -1.
        -14    1    6    6    0    0 -0.54141149327E+02 -0.89891798764E+01  0.14220373205E+03  0.15242693599E+03  0.00000000000E+00 0.  1.
</event>
<event>
12    1  0.1345781E-002  0.2312701E+03  0.7818608E-02  0.1125749E+00
         -2   -1    0    0    0  501 -0.00000000000E+00  0.00000000000E+00  0.24890307991E+03  0.24890307991E+03  0.00000000000E+00 0.  1.
          2   -1    0    0  502    0  0.00000000000E+00 -0.00000000000E+00 -0.21506570555E+03  0.21506570555E+03  0.00000000000E+00 0. -1.
          6    2    1    2  502    0 -0.71987336710E+01 -0.15457840036E+03  0.10224236385E+02  0.23155766526E+03  0.17195381271E+03 0.  0.
         24    2    3    3    0    0 -0.49420011753E+02 -0.89366789038E+02  0.56580259151E+02  0.14096979951E+03  0.79008848257E+02 0.  0.
         -6    2    1    2    0  501  0.71987336710E+01  0.15457840036E+03  0.23613137973E+02  0.23241112020E+03  0.17178779026E+03 0.  0.
        -24    2    5    5    0    0  0.50978869489E+02  0.38267468250E+02 -0.64708181593E+01  0.10445773948E+03  0.82500324784E+02 0.  0.
          5    1    3    3  502    0  0.42221278082E+02 -0.65211611326E+02 -0.46356022766E+02  0.90587865751E+02  0.47000000000E+01 0. -1.
        -11    1    4    4    0    0 -0.52645208566E+02 -0.52616215316E+02  0.69546126048E+02  0.10186583209E+03  0.00000000000E+00 0.  1.
         12    1    4    4    0    0  0.32251968132E+01 -0.36750573721E+02 -0.12965866897E+02  0.39103967417E+02  0.00000000000E+00 0. -1.
         -5    1    5    5    0  501 -0.43780135818E+02  0.11631093211E+03  0.30083956132E+02  0.12795338072E+03  0.47000000000E+01 0.  1.
         11    1    6    6    0    0  0.40975275528E+02  0.16087426171E+02  0.35092488751E+02  0.56296192164E+02  0.00000000000E+00 0. -1.
        -12    1    6    6    0    0  0.10003593961E+02  0.22180042080E+02 -0.41563306910E+02  0.48161547318E+02  0.00000000000E+00 0.  1.
</event>
<event>
12    1  0.1345781E-002  0.2134103E+03  0.7818608E-02  0.1138894E+00
         -2   -1    0    0    0  501 -0.00000000000E+00  0.00000000000E+00  0.40168402267E+02  0.40168402267E+02  0.00000000000E+00 0.  1.
          2   -1    0    0  502    0  0.00000000000E+00 -0.00000000000E+00 -0.11416462531E+04  0.11416462531E+04  0.00000000000E+00 0. -1.
          6    2    1    2  502    0  0.12390538858E+03  0.21492941431E+02 -0.50280507443E+03  0.54636768641E+03  0.17288786547E+03 0.  0.
         24    2    3    3    0    0  0.10698959039E+02 -0.22907547764E+02 -0.28481226543E+03  0.29670780997E+03  0.79235563264E+02 0.  0.
         -6    2    1    2    0  501 -0.12390538858E+03 -0.21492941431E+02 -0.59867277645E+03  0.63544696900E+03  0.17195716126E+03 0.  0.
        -24    2    5    5    0    0 -0.12327209849E+03 -0.71349744301E+02 -0.44522999116E+03  0.47403792277E+03  0.78710932655E+02 0.  0.
          5    1    3    3  502    0  0.11320642954E+03  0.44400489196E+02 -0.21799280900E+03  0.24965987644E+03  0.47000000000E+01 0. -1.
        -13    1    4    4    0    0 -0.13484117105E+02  0.19875555302E+02 -0.37300717026E+02  0.44364429483E+02  0.00000000000E+00 0.  1.
         14    1    4    4    0    0  0.24183076144E+02 -0.42783103067E+02 -0.24751154841E+03  0.25234338049E+03  0.00000000000E+00 0. -1.
         -5    1    5    5    0  501 -0.63329008423E+00  0.49856802870E+02 -0.15344278529E+03  0.16140904623E+03  0.47000000000E+01 0.  1.
         11    1    6    6    0    0 -0.12088020790E+03 -0.35984758957E+02 -0.36927938325E+03  0.39022325716E+03  0.00000000000E+00 0. -1.
        -12    1    6    6    0    0 -0.23918905940E+01 -0.35364985345E+02 -0.75950607913E+02  0.83814665611E+02  0.00000000000E+00 0.  1.
</event>
<event>
12    1  0.1345781E-002  0.1934512E+03  0.7818608E-02  0.1155385E+00
          2   -1    0    0  502    0  0.00000000000E+00  0.00000000000E+00  0.12447554482E+04  0.12447554482E+04  0.00000000000E+00 0. -1.
         -2   -1    0    0    0  501 -0.00000000000E+00 -0.00000000000E+00 -0.71756050439E+02  0.71756050439E+02  0.00000000000E+00 0.  1.
          6    2    1    2  502    0  0.20085350612E+02 -0.87127372030E+02  0.10898064148E+04  0.11070600946E+04  0.17294343257E+03 0.  0.
         24    2    3    3    0    0  0.59032858690E+01  0.23460430688E+02  0.50578674061E+03  0.51247463984E+03  0.78897331465E+02 0.  0.
         -6    2    1    2    0  501 -0.20085350612E+02  0.87127372030E+02  0.83192982879E+02  0.20945140404E+03  0.17015938995E+03 0.  0.
        -24    2    5    5    0    0  0.29548930985E+02  0.51472699530E+02  0.10521810308E+03  0.14432066245E+03  0.78962182551E+02 0.  0.
          5    1    3    3  502    0  0.14182064743E+02 -0.11058780272E+03  0.58401967423E+03  0.59458545471E+03  0.47000000000E+01 0. -1.
        -13    1    4    4    0    0 -0.17265256333E+02 -0.19313063899E+02  0.29556382314E+03  0.29669691111E+03  0.00000000000E+00 0.  1.
         14    1    4    4    0    0  0.23168542202E+02  0.42773494587E+02  0.21022291747E+03  0.21577772873E+03  0.00000000000E+00 0. -1.
         -5    1    5    5    0  501 -0.49634281597E+02  0.35654672500E+02 -0.22025120203E+02  0.65130741595E+02  0.47000000000E+01 0.  1.
         11    1    6    6    0    0  0.40168717344E+02  0.65578569488E+02  0.99512870801E+02  0.12576520220E+03  0.00000000000E+00 0. -1.
        -12    1    6    6    0    0 -0.10619786359E+02 -0.14105869958E+02  0.57052322821E+01  0.18555460247E+02  0.00000000000E+00 0.  1.
</event>
<event>
12    1  0.1345781E-002  0.1837508E+03  0.7818608E-02  0.1164222E+00
          1   -1    0    0  502    0  0.00000000000E+00  0.00000000000E+00  0.31321694543E+03  0.31321694543E+03  0.00000000000E+00 0. -1.
         -1   -1    0    0    0  501 -0.00000000000E+00 -0.00000000000E+00 -0.13421545805E+03  0.13421545805E+03  0.00000000000E+00 0.  1.
          6    2    1    2  502    0  0.53582267034E+02  0.80818443372E+01  0.18991348682E+03  0.26647537504E+03  0.17890113885E+03 0.  0.
         24    2    3    3    0    0  0.35961202617E+02 -0.60801143144E+02  0.15220792585E+03  0.18585796251E+03  0.79912091924E+02 0.  0.
         -6    2    1    2    0  501 -0.53582267034E+02 -0.80818443372E+01 -0.10911999446E+02  0.18095702843E+03  0.17230786070E+03 0.  0.
        -24    2    5    5    0    0 -0.96795615910E+02 -0.21299990477E+02 -0.29574665900E+02  0.13183984175E+03  0.81755746930E+02 0.  0.
          5    1    3    3  502    0  0.17621064417E+02  0.68882987481E+02  0.37705560966E+02  0.80617412532E+02  0.47000000000E+01 0. -1.
        -13    1    4    4    0    0  0.21649258928E+01 -0.27610826451E+02  0.13393769089E+01  0.27727938472E+02  0.00000000000E+00 0.  1.
         14    1    4    4    0    0  0.33796276724E+02 -0.33190316694E+02  0.15086854894E+03  0.15813002404E+03  0.00000000000E+00 0. -1.
         -5    1    5    5    0  501  0.43213348876E+02  0.13218146139E+02  0.18662666455E+02  0.49117186683E+02  0.47000000000E+01 0.  1.
         11    1    6    6    0    0 -0.29787123776E+02 -0.38522692299E+02  0.13257515608E+02  0.50468131379E+02  0.00000000000E+00 0. -1.
        -12    1    6    6    0    0 -0.67008492135E+02  0.17222701822E+02 -0.42832181508E+02  0.81371710372E+02  0.00000000000E+00 0.  1.
</event>
<event>
12    1  0.1345781E-002  0.1740569E+03  0.7818608E-02  0.1173682E+00
          2   -1    0    0  502    0  0.00000000000E+00  0.00000000000E+00  0.14729633752E+04  0.14729633752E+04  0.00000000000E+00 0. -1.
         -2   -1    0    0    0  501 -0.00000000000E+00 -0.00000000000E+00 -0.20795576223E+02  0.20795576223E+02  0.00000000000E+00 0.  1.
          6    2    1    2  502    0 -0.12888049807E+02 -0.33510428112E+02  0.65011646938E+03  0.67314839656E+03  0.17084580596E+03 0.  0.
         24    2    3    3    0    0  0.18779862989E+02  0.38435871196E+02  0.26236900289E+03  0.27748526402E+03  0.79564933363E+02 0.  0.
         -6    2    1    2    0  501  0.12888049807E+02  0.33510428112E+02  0.80205132960E+03  0.82061055486E+03  0.16978308756E+03 0.  0.
        -24    2    5    5    0    0  0.18663805111E+02  0.54341545473E+02  0.25970695863E+03  0.27781519607E+03  0.80201232060E+02 0.  0.
          5    1    3    3  502    0 -0.31667912796E+02 -0.71946299308E+02  0.38774746649E+03  0.39566313254E+03  0.47000000000E+01 0. -1.
        -13    1    4    4    0    0 -0.28403163903E+02 -0.12516122932E+01  0.92666685518E+02  0.96929979149E+02  0.00000000000E+00 0.  1.
         14    1    4    4    0    0  0.47183026892E+02  0.39687483489E+02  0.16970231737E+03  0.18055528487E+03  0.00000000000E+00 0. -1.
         -5    1    5    5    0  501 -0.57757553046E+01 -0.20831117361E+02  0.54234437097E+03  0.54279535879E+03  0.47000000000E+01 0.  1.
         11    1    6    6    0    0  0.32939704256E+02  0.51777423129E+02  0.25542286862E+03  0.26269139209E+03  0.00000000000E+00 0. -1.
        -12    1    6    6    0    0 -0.14275899144E+02  0.25641223438E+01  0.42840900046E+01  0.15123803984E+02  0.00000000000E+00 0.  1.
</event>
<event>
12    1  0.1345781E-002  0.2011150E+03  0.7818608E-02  0.1148802E+00
         -1   -1    0    0    0  501 -0.00000000000E+00  0.00000000000E+00  0.38880618652E+03  0.38880618652E+03  0.00000000000E+00 0. -1.
          1   -1    0    0  502    0  0.00000000000E+00 -0.00000000000E+00 -0.10411248079E+03  0.10411248079E+03  0.00000000000E+00 0.  1.
          6    2    1    2  502    0 -0.10254192684E+03 -0.14320389176E+02  0.14976976311E+03  0.25133951852E+03  0.17326468574E+03 0.  0.
         24    2    3    3    0    0 -0.94690062562E+02 -0.47403326209E+02  0.16746327256E+03  0.21272238797E+03  0.77418236900E+02 0.  0.
         -6    2    1    2    0  501  0.10254192684E+03  0.14320389176E+02  0.13492394263E+03  0.24157914879E+03  0.17156950350E+03 0.  0.
        -24    2    5    5    0    0 -0.25270233299E+01 -0.22804658645E+02  0.90724685891E+02  0.12160657792E+03  0.77657922075E+02 0.  0.
          5    1    3    3  502    0 -0.78518642772E+01  0.33082937033E+02 -0.17693509452E+02  0.38617130552E+02  0.47000000000E+01 0. -1.
        -11    1    4    4    0    0 -0.33734640963E+02 -0.44458038334E+02  0.12908197893E+03  0.14062965711E+03  0.00000000000E+00 0.  1.
         12    1    4    4    0    0 -0.60955421599E+02 -0.29452878744E+01  0.38381293629E+02  0.72092730865E+02  0.00000000000E+00 0. -1.
         -5    1    5    5    0  501  0.10506895017E+03  0.37125047821E+02  0.44199256734E+02  0.11997257087E+03  0.47000000000E+01 0.  1.
         13    1    6    6    0    0 -0.43271893922E+01  0.98259921853E+01 -0.10632933571E+02  0.15110723569E+02  0.00000000000E+00 0. -1.
        -14    1    6    6    0    0  0.18001660622E+01 -0.32630650830E+02  0.10135761946E+03  0.10649585435E+03  0.00000000000E+00 0.  1.
</event>
<event>
12    1  0.1345781E-002  0.2191848E+03  0.7818608E-02  0.1134492E+00
         -2   -1    0    0    0  501 -0.00000000000E+00  0.00000000000E+00  0.88024880423E+02  0.88024880423E+02  0.00000000000E+00 0. -1.
          2   -1    0    0  502    0  0.00000000000E+00 -0.00000000000E+00 -0.65266608747E+03  0.65266608747E+03  0.00000000000E+00 0.  1.
          6    2    1    2  502    0 -0.12750563776E+03 -0.50690966750E+00 -0.14175677882E+03  0.26797473723E+03  0.18830170163E+03 0.  0.
         24    2    3    3    0    0 -0.17300075430E+02 -0.11881960771E+02 -0.12496729128E+03  0.15582022485E+03  0.90678801169E+02 0.  0.
         -6    2    1    2    0  501  0.12750563776E+03  0.50690966750E+00 -0.42288442823E+03  0.47271623066E+03  0.16843826904E+03 0.  0.
        -24    2    5    5    0    0  0.16217056227E+02  0.37132274789E+02 -0.22737515902E+03  0.24474138534E+03  0.80975823672E+02 0.  0.
          5    1    3    3  502    0 -0.11020556233E+03  0.11375051103E+02 -0.16789487543E+02  0.11215451238E+03  0.47000000000E+01 0. -1.
        -11    1    4    4    0    0 -0.37992951504E+02 -0.14472577714E+02 -0.12840206016E+03  0.13468485039E+03  0.00000000000E+00 0.  1.
         12    1    4    4    0    0  0.20692876074E+02  0.25906169431E+01  0.34347688864E+01  0.21135374462E+02  0.00000000000E+00 0. -1.
         -5    1    5    5    0  501  0.11128858153E+03 -0.36625365121E+02 -0.19550926921E+03  0.22797484532E+03  0.47000000000E+01 0.  1.
         13    1    6    6    0    0 -0.10916925909E+02  0.31012666129E+02 -0.27279395973E+02  0.42721542299E+02  0.00000000000E+00 0. -1.
        -14    1    6    6    0    0  0.27133982136E+02  0.61196086600E+01 -0.20009576304E+03  0.20201984305E+03  0.00000000000E+00 0.  1.
</event>
<event>
12    1  0.1345781E-002  0.2035164E+03  0.7818608E-02  0.1146806E+00
          2   -1    0    0  502    0  0.00000000000E+00  0.00000000000E+00  0.35202528031E+03  0.35202528031E+03  0.00000000000E+00 0. -1.
         -2   -1    0    0    0  501 -0.00000000000E+00 -0.00000000000E+00 -0.12936649755E+03  0.12936649755E+03  0.00000000000E+00 0.  1.
          6    2    1    2  502    0 -0.15228093320E+02  0.10754603246E+03  0.18371779224E+03  0.27414357322E+03  0.17205937241E+03 0.  0.
         24    2    3    3    0    0 -0.77706209175E+02  0.71902552727E+02  0.11376290479E+03  0.17369583116E+03  0.77588731291E+02 0.  0.
         -6    2    1    2    0  501  0.15228093320E+02 -0.10754603246E+03  0.38940990518E+02  0.20724820464E+03  0.17215508607E+03 0.  0.
        -24    2    5    5    0    0  0.66564708779E+02 -0.10284618696E+03  0.53438613707E+02  0.15349127287E+03  0.75469773994E+02 0.  0.
          5    1    3    3  502    0  0.62478115855E+02  0.35643479730E+02  0.69954887449E+02  0.10044774207E+03  0.47000000000E+01 0. -1.
        -13    1    4    4    0    0 -0.18472988424E+02  0.10026438652E+02 -0.99244924853E+01  0.23243844873E+02  0.00000000000E+00 0.  1.
         14    1    4    4    0    0 -0.59233220751E+02  0.61876114075E+02  0.12368739727E+03  0.15045198629E+03  0.00000000000E+00 0. -1.
         -5    1    5    5    0  501 -0.51336615458E+02 -0.46998454980E+01 -0.14497623189E+02  0.53756931763E+02  0.47000000000E+01 0.  1.
         11    1    6    6    0    0  0.16539659623E+01  0.11630211327E+02  0.82312801646E+01  0.14344036812E+02  0.00000000000E+00 0. -1.
        -12    1    6    6    0    0  0.64910742816E+02 -0.11447639829E+03  0.45207333542E+02  0.13914723606E+03  0.00000000000E+00 0.  1.
</event>
<event>
12    1  0.1345781E-002  0.2302568E+03  0.7818608E-02  0.1126459E+00
         -1   -1    0    0    0  501 -0.00000000000E+00  0.00000000000E+00  0.25377304442E+03  0.25377304442E+03  0.00000000000E+00 0.  1.
          1   -1    0    0  502    0  0.00000000000E+00 -0.00000000000E+00 -0.40256638550E+03  0.40256638550E+03  0.00000000000E+00 0. -1.
          6    2    1    2  502    0  0.97192854106E+02  0.11873710594E+03 -0.30204084640E+03  0.37993541190E+03  0.17198050211E+03 0.  0.
         24    2    3    3    0    0  0.13056767586E+03  0.10719921961E+03 -0.21071920041E+03  0.28191125889E+03  0.80819464249E+02 0.  0.
         -6    2    1    2    0  501 -0.97192854106E+02 -0.11873710594E+03  0.15324750533E+03  0.27640401802E+03  0.17137512093E+03 0.  0.
        -24    2    5    5    0    0 -0.13417326966E+03 -0.10055213733E+03  0.10284365508E+03  0.21112858361E+03  0.76715466601E+02 0.  0.
          5    1    3    3  502    0 -0.33374821750E+02  0.11537886322E+02 -0.91321645991E+02  0.98024153014E+02  0.47000000000E+01 0. -1.
        -11    1    4    4    0    0  0.13019376721E+03  0.11713169612E+03 -0.20736039493E+03  0.27141957306E+03  0.00000000000E+00 0.  1.
         12    1    4    4    0    0  0.37390864651E+00 -0.99324765045E+01 -0.33588054796E+01  0.10491685824E+02  0.00000000000E+00 0. -1.
         -5    1    5    5    0  501  0.36980415552E+02 -0.18184968607E+02  0.50403850247E+02  0.65275434410E+02  0.47000000000E+01 0.  1.
         13    1    6    6    0    0 -0.37155440164E+01  0.85728709024E+01 -0.41172980847E+01  0.10210363675E+02  0.00000000000E+00 0. -1.
        -14    1    6    6    0    0 -0.13045772564E+03 -0.10912500823E+03  0.10696095316E+03  0.20091821994E+03  0.00000000000E+00 0.  1.
</event>
<event>
12    1  0.1345781E-002  0.2431347E+03  0.7818608E-02  0.1117722E+00
          2   -1    0    0  502    0  0.00000000000E+00  0.00000000000E+00  0.11228569376E+03  0.11228569376E+03  0.00000000000E+00 0.  1.
         -2   -1    0    0    0  501 -0.00000000000E+00 -0.00000000000E+00 -0.56815039823E+03  0.56815039823E+03  0.00000000000E+00 0. -1.
          6    2    1    2  502    0 -0.15981279982E+03 -0.62767257588E+02 -0.13507490976E+03  0.27742347129E+03  0.17099325006E+03 0.  0.
         24    2    3    3    0    0 -0.16660195658E+03 -0.52310190475E+02 -0.15957389924E+03  0.24953559960E+03  0.79445693295E+02 0.  0.
         -6    2    1    2    0  501  0.15981279982E+03  0.62767257588E+02 -0.32078979471E+03  0.40301262070E+03  0.17330095338E+03 0.  0.
        -24    2    5    5    0    0  0.53549363601E+02  0.90216360712E+02 -0.20408859617E+03  0.24274212785E+03  0.79152128607E+02 0.  0.
          5    1    3    3  502    0  0.67891567587E+01 -0.10457067113E+02  0.24498989481E+02  0.27887871695E+02  0.47000000000E+01 0. -1.
        -13    1    4    4    0    0 -0.27366415784E+02 -0.34097669517E+02 -0.10959512896E+02  0.45074191088E+02  0.00000000000E+00 0.  1.
         14    1    4    4    0    0 -0.13923554079E+03 -0.18212520958E+02 -0.14861438635E+03  0.20446140851E+03  0.00000000000E+00 0. -1.
         -5    1    5    5    0  501  0.10626343622E+03 -0.27449103124E+02 -0.11670119853E+03  0.16027049285E+03  0.47000000000E+01 0.  1.
         13    1    6    6    0    0  0.23133001652E+02  0.59514970114E+02 -0.18460490104E+03  0.19533595911E+03  0.00000000000E+00 0. -1.
        -14    1    6    6    0    0  0.30416361949E+02  0.30701390598E+02 -0.19483695138E+02  0.47406168745E+02  0.00000000000E+00 0.  1.
</event>
<event>
12    1  0.1345781E-002  0.1732161E+03  0.7818608E-02  0.1174535E+00
         -2   -1    0    0    0  501 -0.00000000000E+00  0.00000000000E+00  0.11398106927E+02  0.11398106927E+02  0.00000000000E+00 0. -1.
          2   -1    0    0  502    0  0.00000000000E+00 -0.00000000000E+00 -0.35896569194E+04  0.35896569194E+04  0.00000000000E+00 0.  1.
          6    2    1    2  502    0 -0.60389756861E+01 -0.13300640930E+02 -0.27211937734E+04  0.27267200916E+04  0.17289745277E+03 0.  0.
         24    2    3    3    0    0 -0.66231441515E+02  0.11384577608E+02 -0.13931402153E+04  0.13970656868E+04  0.80228806022E+02 0.  0.
         -6    2    1    2    0  501  0.60389756861E+01  0.13300640930E+02 -0.85706503914E+03  0.87433493481E+03  0.17230124968E+03 0.  0.
        -24    2    5    5    0    0  0.56865810508E+02 -0.30256724106E+01 -0.72784647228E+03  0.73444410714E+03  0.80029895689E+02 0.  0.
          5    1    3    3  502    0  0.60192465829E+02 -0.24685218539E+02 -0.13280535581E+04  0.13296544048E+04  0.47000000000E+01 0. -1.
        -13    1    4    4    0    0 -0.93300265230E+00  0.23097992004E+01 -0.84098594582E+03  0.84098963533E+03  0.00000000000E+00 0.  1.
         14    1    4    4    0    0 -0.65298438863E+02  0.90747784080E+01 -0.55215426945E+03  0.55607605145E+03  0.00000000000E+00 0. -1.
         -5    1    5    5    0  501 -0.50826834822E+02  0.16326313341E+02 -0.12921856686E+03  0.13989082767E+03  0.47000000000E+01 0.  1.
         13    1    6    6    0    0 -0.94292476303E+01 -0.67920843249E+01 -0.17537966813E+02  0.21038616882E+02  0.00000000000E+00 0. -1.
        -14    1    6    6    0    0  0.66295058139E+02  0.37664119143E+01 -0.71030850547E+03  0.71340549026E+03  0.00000000000E+00 0.  1.
</event>
<event>
12    1  0.1345781E-002  0.1877725E+03  0.7818608E-02  0.1160486E+00
          4   -1    0    0  502    0  0.00000000000E+00  0.00000000000E+00  0.59545409428E+02  0.59545409428E+02  0.00000000000E+00 0.  1.
         -4   -1    0    0    0  501 -0.00000000000E+00 -0.00000000000E+00 -0.59288288396E+03  0.59288288396E+03  0.00000000000E+00 0. -1.
          6    2    1    2  502    0  0.76402581266E+02  0.13493850036E+01 -0.27929183636E+03  0.33696146389E+03  0.17233665607E+03 0.  0.
         24    2    3    3    0    0  0.50380224355E+02  0.51109883680E+02 -0.89104502250E+02  0.13860173425E+03  0.78233248683E+02 0.  0.
         -6    2    1    2    0  501 -0.76402581266E+02 -0.13493850036E+01 -0.25404563818E+03  0.31546682950E+03  0.17070723176E+03 0.  0.
        -24    2    5    5    0    0 -0.42883840598E+02 -0.67486538987E+02 -0.15481941252E+03  0.19150892144E+03  0.79455394844E+02 0.  0.
          5    1    3    3  502    0  0.26022356912E+02 -0.49760498676E+02 -0.19018733411E+03  0.19835972964E+03  0.47000000000E+01 0. -1.
        -13    1    4    4    0    0 -0.12006908382E+02  0.27367086073E+01  0.70514462657E+01  0.14190782830E+02  0.00000000000E+00 0.  1.
         14    1    4    4    0    0  0.62387132737E+02  0.48373175072E+02 -0.96155948516E+02  0.12441095142E+03  0.00000000000E+00 0. -1.
         -5    1    5    5    0  501 -0.33518740668E+02  0.66137153983E+02 -0.99226225659E+02  0.12395790806E+03  0.47000000000E+01 0.  1.
         11    1    6    6    0    0 -0.42937155861E+02 -0.37146593629E+02 -0.15051245944E+03  0.16086475443E+03  0.00000000000E+00 0. -1.
        -12    1    6    6    0    0  0.53315262647E-01 -0.30339945358E+02 -0.43069530783E+01  0.30644167009E+02  0.00000000000E+00 0.  1.
</event>
<event>
12    1  0.1345781E-002  0.1926014E+03  0.7818608E-02  0.1156136E+00
          1   -1    0    0  502    0  0.00000000000E+00  0.00000000000E+00  0.11054541368E+04  0.11054541368E+04  0.00000000000E+00 0.  1.
         -1   -1    0    0    0  501 -0.00000000000E+00 -0.00000000000E+00 -0.44128469799E+02  0.44128469799E+02  0.00000000000E+00 0. -1.
          6    2    1    2  502    0 -0.61727331797E+02  0.60912034292E+02  0.81222601114E+03  0.83477426730E+03  0.17209429033E+03 0.  0.
         24    2    3    3    0    0 -0.65187067239E+02  0.51217117225E+02  0.81498313359E+03  0.82312725436E+03  0.80426500597E+02 0.  0.
         -6    2    1    2    0  501  0.61727331797E+02 -0.60912034292E+02  0.24909965590E+03  0.31480833933E+03  0.17185200765E+03 0.  0.
        -24    2    5    5    0    0  0.55169862547E+02  0.16493952269E+02  0.68909088814E+02  0.11852941121E+03  0.77362746892E+02 0.  0.
          5    1    3    3  502    0  0.34597354420E+01  0.96949170674E+01 -0.27571224507E+01  0.11647012942E+02  0.47000000000E+01 0. -1.
        -11    1    4    4    0    0  0.51915094029E+01 -0.39646083207E+01  0.32398050903E+03  0.32404635489E+03  0.00000000000E+00 0.  1.
         12    1    4    4    0    0 -0.70378576642E+02  0.55181725545E+02  0.49100262456E+03  0.49908089946E+03  0.00000000000E+00 0. -1.
         -5    1    5    5    0  501  0.65574692496E+01 -0.77405986561E+02  0.18019056708E+03  0.19627892812E+03  0.47000000000E+01 0.  1.
         11    1    6    6    0    0  0.15900308456E+02 -0.30708163048E+02  0.19373623940E+02  0.39637714255E+02  0.00000000000E+00 0. -1.
        -12    1    6    6    0    0  0.39269554091E+02  0.47202115316E+02  0.49535464874E+02  0.78891696959E+02  0.00000000000E+00 0.  1.
</event>
<event>
12    1  0.1345781E-002  0.1757109E+03  0.7818608E-02  0.1172020E+00
         -1   -1    0    0    0  501 -0.00000000000E+00  0.00000000000E+00  0.87522446798E+02  0.87522446798E+02  0.00000000000E+00 0. -1.
          1   -1    0    0  502    0  0.00000000000E+00 -0.00000000000E+00 -0.82436533083E+03  0.82436533083E+03  0.00000000000E+00 0.  1.
          6    2    1    2  502    0 -0.13566575380E+02 -0.32911453683E+02 -0.23431565810E+02  0.17712152808E+03  0.17191795043E+03 0.  0.
         24    2    3    3    0    0 -0.75086395281E+02 -0.20176465214E+02  0.31546217894E+00  0.10979486538E+03  0.77522618904E+02 0.  0.
         -6    2    1    2    0  501  0.13566575380E+02  0.32911453683E+02 -0.71341131822E+03  0.73476624956E+03  0.17221648227E+03 0.  0.
        -24    2    5    5    0    0 -0.64201766180E+02  0.16861085280E+02 -0.32133056177E+03  0.33469758188E+03  0.66052845590E+02 0.  0.
          5    1    3    3  502    0  0.61519819901E+02 -0.12734988468E+02 -0.23747027989E+02  0.67326662699E+02  0.47000000000E+01 0. -1.
        -13    1    4    4    0    0 -0.54740413184E+02 -0.41384642938E+02 -0.22898374865E+02  0.72343189577E+02  0.00000000000E+00 0.  1.
         14    1    4    4    0    0 -0.20345982097E+02  0.21208177724E+02  0.23213837044E+02  0.37451675799E+02  0.00000000000E+00 0. -1.
         -5    1    5    5    0  501  0.77768341560E+02  0.16050368403E+02 -0.39208075645E+03  0.40006866767E+03  0.47000000000E+01 0.  1.
         11    1    6    6    0    0 -0.52505718591E+02 -0.16886954956E+02 -0.15349159635E+03  0.16310024489E+03  0.00000000000E+00 0. -1.
        -12    1    6    6    0    0 -0.11696047589E+02  0.33748040236E+02 -0.16783896542E+03  0.17159733700E+03  0.00000000000E+00 0.  1.
</event>
<event>
12    1  0.1345781E-002  0.3143573E+03  0.7818608E-02  0.1078276E+00
         -2   -1    0    0    0  501 -0.00000000000E+00  0.00000000000E+00  0.47721292218E+03  0.47721292218E+03  0.00000000000E+00 0. -1.
          2   -1    0    0  502    0  0.00000000000E+00 -0.00000000000E+00 -0.32024732101E+03  0.32024732101E+03  0.00000000000E+00 0.  1.
          6    2    1    2  502    0 -0.12239972971E+02  0.26354179687E+03 -0.15863835040E+03  0.35159732200E+03  0.16985421685E+03 0.  0.
         24    2    3    3    0    0 -0.27946862403E+01  0.25459740538E+03 -0.89782018819E+02  0.28136556294E+03  0.79234588472E+02 0.  0.
         -6    2    1    2    0  501  0.12239972971E+02 -0.26354179687E+03  0.31560395157E+03  0.44586292120E+03  0.17199940295E+03 0.  0.
        -24    2    5    5    0    0 -0.91494368906E+01 -0.40625476926E+02  0.93800752184E+02  0.13063611109E+03  0.80827413915E+02 0.  0.
          5    1    3    3  502    0 -0.94452867308E+01  0.89443914887E+01 -0.68856331584E+02  0.70231759053E+02  0.47000000000E+01 0. -1.
        -13    1    4    4    0    0 -0.10287655504E+02  0.21858717909E+02 -0.34357906650E+02  0.42001251812E+02  0.00000000000E+00 0.  1.
         14    1    4    4    0    0  0.74929692641E+01  0.23273868747E+03 -0.55424112169E+02  0.23936431113E+03  0.00000000000E+00 0. -1.
         -5    1    5    5    0  501  0.21389409862E+02 -0.22291631994E+03  0.22180319939E+03  0.31522681011E+03  0.47000000000E+01 0.  1.
         13    1    6    6    0    0 -0.10629749461E+02 -0.43751487022E+02  0.10747831687E+03  0.11652799144E+03  0.00000000000E+00 0. -1.
        -14    1    6    6    0    0  0.14803125703E+01  0.31260100962E+01 -0.13677564689E+02  0.14108119656E+02  0.00000000000E+00 0.  1.
</event>
<event>
12    1  0.1345781E-002  0.2310469E+03  0.7818608E-02  0.1125905E+00
         -2   -1    0    0    0  501 -0.00000000000E+00  0.00000000000E+00  0.13196946910E+04  0.13196946910E+04  0.00000000000E+00 0.  1.
          2   -1    0    0  502    0  0.00000000000E+00 -0.00000000000E+00 -0.44092359583E+02  0.44092359583E+02  0.00000000000E+00 0. -1.
          6    2    1    2  502    0 -0.14672663356E+03 -0.48482069804E+02  0.83306238201E+03  0.86443473102E+03  0.17139211120E+03 0.  0.
         24    2    3    3    0    0 -0.54489447282E+02 -0.73340897090E+02  0.60258997482E+03  0.61490461199E+03  0.81516973948E+02 0.  0.
         -6    2    1    2    0  501  0.14672663356E+03  0.48482069804E+02  0.44253994944E+03  0.49935231960E+03  0.17213923479E+03 0.  0.
        -24    2    5    5    0    0  0.24852897137E+02 -0.25478423015E+02  0.17257679387E+03  0.19402371384E+03  0.81213516219E+02 0.  0.
          5    1    3    3  502    0 -0.92237186274E+02  0.24858827285E+02  0.23047240720E+03  0.24953011903E+03  0.47000000000E+01 0. -1.
        -13    1    4    4    0    0 -0.27406093529E+02  0.10158288499E+02  0.24317508050E+03  0.24492530405E+03  0.00000000000E+00 0.  1.
         14    1    4    4    0    0 -0.27083353752E+02 -0.83499185589E+02  0.35941489431E+03  0.36997930793E+03  0.00000000000E+00 0. -1.
         -5    1    5    5    0  501  0.12187373642E+03  0.73960492819E+02  0.26996315557E+03  0.30532860576E+03  0.47000000000E+01 0.  1.
         13    1    6    6    0    0 -0.25242326246E+02  0.37973921623E+01  0.26259412816E+02  0.36621741944E+02  0.00000000000E+00 0. -1.
        -14    1    6    6    0    0  0.50095223384E+02 -0.29275815177E+02  0.14631738105E+03  0.15740197190E+03  0.00000000000E+00 0.  1.
</event>
<event>
12    1  0.1345781E-002  0.1865611E+03  0.7818608E-02  0.1161600E+00
         -2   -1    0    0    0  501 -0.00000000000E+00  0.00000000000E+00  0.90060290978E+02  0.90060290978E+02  0.00000000000E+00 0.  1.
          2   -1    0    0  502    0  0.00000000000E+00 -0.00000000000E+00 -0.46179977200E+03  0.46179977200E+03  0.00000000000E+00 0. -1.
          6    2    1    2  502    0 -0.67332302743E+02 -0.27876075719E+02 -0.29711247114E+03  0.35069831556E+03  0.17147236933E+03 0.  0.
         24    2    3    3    0    0 -0.37586395548E+02 -0.74774592947E+02 -0.25718793027E+03  0.28213922516E+03  0.80330156343E+02 0.  0.
         -6    2    1    2    0  501  0.67332302743E+02  0.27876075719E+02 -0.74627009884E+02  0.20116174741E+03  0.17200623078E+03 0.  0.
        -24    2    5    5    0    0  0.10052963626E+03 -0.18876759946E+02 -0.50803125934E+02  0.13889170613E+03  0.79040550311E+02 0.  0.
          5    1    3    3  502    0 -0.29745907195E+02  0.46898517228E+02 -0.39924540867E+02  0.68559090400E+02  0.47000000000E+01 0. -1.
        -13    1    4    4    0    0  0.10821942958E+02 -0.17391550121E+01 -0.57123339953E+00  0.10975673881E+02  0.00000000000E+00 0.  1.
         14    1    4    4    0    0 -0.48408338506E+02 -0.73035437935E+02 -0.25661669687E+03  0.27116355128E+03  0.00000000000E+00 0. -1.
         -5    1    5    5    0  501 -0.33197333518E+02  0.46752835665E+02 -0.23823883950E+02  0.62270041288E+02  0.47000000000E+01 0.  1.
         11    1    6    6    0    0  0.78666775514E+01  0.11621220734E+02 -0.37992371943E+02  0.40501329767E+02  0.00000000000E+00 0. -1.
        -12    1    6    6    0    0  0.92662958710E+02 -0.30497980680E+02 -0.12810753991E+02  0.98390376360E+02  0.00000000000E+00 0.  1.
</event>
<event>
12    1  0.1345781E-002  0.2261926E+03  0.7818608E-02  0.1129349E+00
          2   -1    0    0  502    0  0.00000000000E+00  0.00000000000E+00  0.28977095840E+03  0.28977095840E+03  0.00000000000E+00 0.  1.
         -2   -1    0    0    0  501 -0.00000000000E+00 -0.00000000000E+00 -0.20715526828E+03  0.20715526828E+03  0.00000000000E+00 0. -1.
          6    2    1    2  502    0  0.10538275020E+03 -0.10237082196E+03  0.13686358060E+03  0.26479976394E+03  0.17263245946E+03 0.  0.
         24    2    3    3    0    0  0.84699111230E+02 -0.50186913513E+02  0.16082406091E+03  0.20358564924E+03  0.76746806310E+02 0.  0.
         -6    2    1    2    0  501 -0.10538275020E+03  0.10237082196E+03 -0.54247890477E+02  0.23212646274E+03  0.17133170126E+03 0.  0.
        -24    2    5    5    0    0 -0.95423271130E+02  0.13144370567E+02  0.43256805853E+01  0.12482546518E+03  0.79273640602E+02 0.  0.
          5    1    3    3  502    0  0.20683638968E+02 -0.52183908443E+02 -0.23960480310E+02  0.61214114696E+02  0.47000000000E+01 0. -1.
        -13    1    4    4    0    0 -0.14357774204E+02 -0.25109244528E+01  0.23860810718E+02  0.27960484793E+02  0.00000000000E+00 0.  1.
         14    1    4    4    0    0  0.99056885434E+02 -0.47675989060E+02  0.13696325019E+03  0.17562516445E+03  0.00000000000E+00 0. -1.
         -5    1    5    5    0  501 -0.99594790680E+01  0.89226451389E+02 -0.58573571062E+02  0.10730099756E+03  0.47000000000E+01 0.  1.
         11    1    6    6    0    0 -0.57577002440E+02 -0.27917358200E+02 -0.15018795694E+02  0.65727120148E+02  0.00000000000E+00 0. -1.
        -12    1    6    6    0    0 -0.37846268690E+02  0.41061728767E+02  0.19344476279E+02  0.59098345033E+02  0.00000000000E+00 0.  1.
</event>
<event>
12    1  0.1345781E-002  0.1757747E+03  0.7818608E-02  0.1171956E+00
          1   -1    0    0  502    0  0.00000000000E+00  0.00000000000E+00  0.22000336979E+04  0.22000336979E+04  0.00000000000E+00 0.  1.
         -1   -1    0    0    0  501 -0.00000000000E+00 -0.00000000000E+00 -0.18113366299E+02  0.18113366299E+02  0.00000000000E+00 0. -1.
          6    2    1    2  502    0 -0.29177280065E+02  0.29842431548E+02  0.16220508333E+04  0.16316695154E+04  0.17191456412E+03 0.  0.
         24    2    3    3    0    0 -0.65113322273E+02  0.61546819127E+02  0.13621885447E+04  0.13673835598E+04  0.78437315874E+02 0.  0.
         -6    2    1    2    0  501  0.29177280065E+02 -0.29842431548E+02  0.55986949828E+03  0.58647754876E+03  0.16958825342E+03 0.  0.
        -24    2    5    5    0    0  0.44509734417E+01  0.48830954162E+02  0.26939658865E+03  0.28448832199E+03  0.77167416175E+02 0.  0.
          5    1    3    3  502    0  0.35936042208E+02 -0.31704387579E+02  0.25986228860E+03  0.26428595565E+03  0.47000000000E+01 0. -1.
        -11    1    4    4    0    0 -0.26722917707E+02  0.50753594782E+02  0.37235183605E+03  0.37674385399E+03  0.00000000000E+00 0.  1.
         12    1    4    4    0    0 -0.38390404566E+02  0.10793224346E+02  0.98983670867E+03  0.99063970579E+03  0.00000000000E+00 0. -1.
         -5    1    5    5    0  501  0.24726306623E+02 -0.78673385711E+02  0.29047290963E+03  0.30198922677E+03  0.47000000000E+01 0.  1.
         13    1    6    6    0    0 -0.31212388358E+02  0.91318652227E+01  0.58365137963E+02  0.66813871905E+02  0.00000000000E+00 0. -1.
        -14    1    6    6    0    0  0.35663361800E+02  0.39699088940E+02  0.21103145069E+03  0.21767445008E+03  0.00000000000E+00 0.  1.
</event>
<event>
12    1  0.1345781E-002  0.1802333E+03  0.7818608E-02  0.1167577E+00
         -1   -1    0    0    0  501 -0.00000000000E+00  0.00000000000E+00  0.17042922819E+03  0.17042922819E+03  0.00000000000E+00 0.  1.
          1   -1    0    0  502    0  0.00000000000E+00 -0.00000000000E+00 -0.19502045336E+03  0.19502045336E+03  0.00000000000E+00 0. -1.
          6    2    1    2  502    0  0.15849228735E+02  0.52856853496E+02 -0.39812582471E+02  0.18475104400E+03  0.17176397039E+03 0.  0.
         24    2    3    3    0    0 -0.45891803985E+02  0.18151699279E+02  0.16667398888E+02  0.94040068121E+02  0.78295532228E+02 0.  0.
         -6    2    1    2    0  501 -0.15849228735E+02 -0.52856853496E+02  0.15221357303E+02  0.18069863755E+03  0.17139213192E+03 0.  0.
        -24    2    5    5    0    0  0.31198871845E+02 -0.49792241345E+00 -0.28010114633E+02  0.97957888235E+02  0.88530016461E+02 0.  0.
          5    1    3    3  502    0  0.61741032720E+02  0.34705154216E+02 -0.56479981359E+02  0.90710975878E+02  0.47000000000E+01 0. -1.
        -11    1    4    4    0    0  0.17269348825E+02 -0.12726237401E+02 -0.12485900083E+01  0.21488287606E+02  0.00000000000E+00 0.  1.
         12    1    4    4    0    0 -0.63161152809E+02  0.30877936680E+02  0.17915988896E+02  0.72551780516E+02  0.00000000000E+00 0. -1.
         -5    1    5    5    0  501 -0.47048100580E+02 -0.52358931082E+02  0.43231471936E+02  0.82740749320E+02  0.47000000000E+01 0.  1.
         11    1    6    6    0    0  0.53719824688E+02 -0.23204881916E+02 -0.30296370604E+02  0.65895039123E+02  0.00000000000E+00 0. -1.
        -12    1    6    6    0    0 -0.22520952843E+02  0.22706959503E+02  0.22862559708E+01  0.32062849112E+02  0.00000000000E+00 0.  1.
</event>
<event>
12    1  0.1345781E-002  0.2435206E+03  0.7818608E-02  0.1117470E+00
         -1   -1    0    0    0  501 -0.00000000000E+00  0.00000000000E+00  0.18142297323E+03  0.18142297323E+03  0.00000000000E+00 0. -1.
          1   -1    0    0  502    0  0.00000000000E+00 -0.00000000000E+00 -0.33226772510E+03  0.33226772510E+03  0.00000000000E+00 0.  1.
          6    2    1    2  502    0  0.34016760364E+02  0.16796368101E+03 -0.42343020016E+02  0.24595568758E+03  0.17126684088E+03 0.  0.
         24    2    3    3    0    0  0.22051424323E+00  0.10372528413E+02 -0.17041690417E+02  0.82739864488E+02  0.80298368545E+02 0.  0.
         -6    2    1    2    0  501 -0.34016760364E+02 -0.16796368101E+03 -0.10850173185E+03  0.26773501075E+03  0.17475832468E+03 0.  0.
        -24    2    5    5    0    0 -0.56996607931E+02 -0.30562038177E+02 -0.28292303655E+02  0.10691546213E+03  0.80298257166E+02 0.  0.
          5    1    3    3  502    0  0.33796246121E+02  0.15759115259E+03 -0.25301329600E+02  0.16321582309E+03  0.47000000000E+01 0. -1.
        -11    1    4    4    0    0  0.17396088263E+02  0.14674291640E+02  0.26976321965E+02  0.35294201631E+02  0.00000000000E+00 0.  1.
         12    1    4    4    0    0 -0.17175574020E+02 -0.43017632277E+01 -0.44018012382E+02  0.47445662856E+02  0.00000000000E+00 0. -1.
         -5    1    5    5    0  501  0.22979847567E+02 -0.13740164283E+03 -0.80209428195E+02  0.16081954862E+03  0.47000000000E+01 0.  1.
         11    1    6    6    0    0 -0.49641909116E+01 -0.79283289855E+01  0.26459823419E+02  0.28064636952E+02  0.00000000000E+00 0. -1.
        -12    1    6    6    0    0 -0.52032417020E+02 -0.22633709191E+02 -0.54752127074E+02  0.78850825181E+02  0.00000000000E+00 0.  1.
</event>
<event>
12    1  0.1345781E-002  0.1991488E+03  0.7818608E-02  0.1150459E+00
         -1   -1    0    0    0  501 -0.00000000000E+00  0.00000000000E+00  0.27234737735E+03  0.27234737735E+03  0.00000000000E+00 0. -1.
          1   -1    0    0  502    0  0.00000000000E+00 -0.00000000000E+00 -0.14778508727E+03  0.14778508727E+03  0.00000000000E+00 0.  1.
          6    2    1    2  502    0  0.44175095177E+02  0.89106135677E+02  0.37065550436E+02  0.20314635397E+03  0.17321444413E+03 0.  0.
         24    2    3    3    0    0  0.95414875740E+02  0.61056279209E+02  0.10926461288E+02  0.13897742425E+03  0.79771355461E+02 0.  0.
         -6    2    1    2    0  501 -0.44175095177E+02 -0.89106135677E+02  0.87496739649E+02  0.21698611065E+03  0.17186026392E+03 0.  0.
        -24    2    5    5    0    0  0.40206578760E+02 -0.39106374209E+02  0.26469345464E+02  0.10137176948E+03  0.80185609173E+02 0.  0.
          5    1    3    3  502    0 -0.51239780562E+02  0.28049856468E+02  0.26139089149E+02  0.64168929721E+02  0.47000000000E+01 0. -1.
        -11    1    4    4    0    0  0.16029914561E+02  0.44886183792E+02 -0.20758212270E+02  0.51986835188E+02  0.00000000000E+00 0.  1.
         12    1    4    4    0    0  0.79384961178E+02  0.16170095417E+02  0.31684673558E+02  0.86990589063E+02  0.00000000000E+00 0. -1.
         -5    1    5    5    0  501 -0.84381673938E+02 -0.49999761468E+02  0.61027394185E+02  0.11561434117E+03  0.47000000000E+01 0.  1.
         11    1    6    6    0    0 -0.18483579028E+02 -0.31808612585E+02  0.53401074249E+00  0.36792875611E+02  0.00000000000E+00 0. -1.
        -12    1    6    6    0    0  0.58690157788E+02 -0.72977616236E+01  0.25935334721E+02  0.64578893867E+02  0.00000000000E+00 0.  1.
</event>
<event>
12    1  0.1345781E-002  0.1741088E+03  0.7818608E-02  0.1173630E+00
          2   -1    0    0  502    0  0.00000000000E+00  0.00000000000E+00  0.83108999182E+03  0.83108999182E+03  0.00000000000E+00 0. -1.
         -2   -1    0    0    0  501 -0.00000000000E+00 -0.00000000000E+00 -0.38690347297E+02  0.38690347297E+02  0.00000000000E+00 0.  1.
          6    2    1    2  502    0  0.32551617237E+02 -0.19631221292E+02  0.29790937135E+03  0.34638465392E+03  0.17259009907E+03 0.  0.
         24    2    3    3    0    0  0.41505535281E+02 -0.68581470341E+02  0.26047057193E+03  0.28393424773E+03  0.79671893813E+02 0.  0.
         -6    2    1    2    0  501 -0.32551617237E+02  0.19631221292E+02  0.49449027317E+03  0.52339568519E+03  0.16726452220E+03 0.  0.
        -24    2    5    5    0    0 -0.30342947796E+02 -0.50954519432E+02  0.31927298734E+03  0.33442369714E+03  0.79918153347E+02 0.  0.
          5    1    3    3  502    0 -0.89539180438E+01  0.48950249049E+02  0.37438799422E+02  0.62450406183E+02  0.47000000000E+01 0. -1.
        -13    1    4    4    0    0  0.34972005273E+02 -0.28813379195E+02  0.42020821033E+02  0.61798069337E+02  0.00000000000E+00 0.  1.
         14    1    4    4    0    0  0.65335300077E+01 -0.39768091146E+02  0.21844975089E+03  0.22213617840E+03  0.00000000000E+00 0. -1.
         -5    1    5    5    0  501 -0.22086694414E+01  0.70585740723E+02  0.17521728583E+03  0.18897198805E+03  0.47000000000E+01 0.  1.
         11    1    6    6    0    0  0.12090788608E+02 -0.20193495028E+02  0.22769961883E+03  0.22891282364E+03  0.00000000000E+00 0. -1.
        -12    1    6    6    0    0 -0.42433736404E+02 -0.30761024404E+02  0.91573368511E+02  0.10551087351E+03  0.00000000000E+00 0.  1.
</event>
<event>
12    1  0.1345781E-002  0.1758156E+03  0.7818608E-02  0.1171915E+00
          2   -1    0    0  502    0  0.00000000000E+00  0.00000000000E+00  0.77596375586E+03  0.77596375586E+03  0.00000000000E+00 0.  1.
         -2   -1    0    0    0  501 -0.00000000000E+00 -0.00000000000E+00 -0.58024378823E+02  0.58024378823E+02  0.00000000000E+00 0. -1.
          6    2    1    2  502    0 -0.36316416730E+02  0.18763734565E+02  0.12501505832E+03  0.21544678147E+03  0.17063877339E+03 0.  0.
         24    2    3    3    0    0 -0.32270930434E+02  0.38026138822E+01  0.15683253971E+03  0.17974463569E+03  0.81583182863E+02 0.  0.
         -6    2    1    2    0  501  0.36316416730E+02 -0.18763734565E+02  0.59292431872E+03  0.61854135321E+03  0.17135693169E+03 0.  0.
        -24    2    5    5    0    0 -0.35764899390E+02 -0.10055793640E+02  0.19006515972E+03  0.20916483170E+03  0.79024773761E+02 0.  0.
          5    1    3    3  502    0 -0.40454862967E+01  0.14961120683E+02 -0.31817481390E+02  0.35702145782E+02  0.47000000000E+01 0. -1.
        -11    1    4    4    0    0  0.80730088509E+01  0.19642506280E+02  0.49596823274E+01  0.21808254714E+02  0.00000000000E+00 0.  1.
         12    1    4    4    0    0 -0.40343939284E+02 -0.15839892398E+02  0.15187285738E+03  0.15793638098E+03  0.00000000000E+00 0. -1.
         -5    1    5    5    0  501  0.72081316121E+02 -0.87079409250E+01  0.40285915900E+03  0.40937652150E+03  0.47000000000E+01 0.  1.
         13    1    6    6    0    0  0.22409951522E+02 -0.92055231793E+01  0.28292996497E+02  0.37248372246E+02  0.00000000000E+00 0. -1.
        -14    1    6    6    0    0 -0.58174850912E+02 -0.85027046116E+00  0.16177216322E+03  0.17191645946E+03  0.00000000000E+00 0.  1.
</event>
<event>
12    1  0.1345781E-002  0.3094334E+03  0.7818608E-02  0.1080618E+00
          2   -1    0    0  502    0  0.00000000000E+00  0.00000000000E+00  0.21852228916E+04  0.21852228916E+04  0.00000000000E+00 0. -1.
         -2   -1    0    0    0  501 -0.00000000000E+00 -0.00000000000E+00 -0.56754115136E+02  0.56754115136E+02  0.00000000000E+00 0.  1.
          6    2    1    2  502    0 -0.12912195964E+03 -0.22250326116E+03  0.52959264193E+03  0.61347444310E+03  0.17234368064E+03 0.  0.
         24    2    3    3    0    0 -0.11199255577E+03 -0.69002762913E+02  0.23998549615E+03  0.28522117453E+03  0.80339070180E+02 0.  0.
         -6    2    1    2    0  501  0.12912195964E+03  0.22250326116E+03  0.15988761345E+04  0.16285025636E+04  0.17156784234E+03 0.  0.
        -24    2    5    5    0    0  0.94510767275E+02  0.14823024188E+03  0.14016605281E+04  0.14148895924E+04  0.79723479190E+02 0.  0.
          5    1    3    3  502    0 -0.17129403863E+02 -0.15350049824E+03  0.28960714578E+03  0.32825326857E+03  0.47000000000E+01 0. -1.
        -13    1    4    4    0    0  0.42668052889E+01 -0.46445049912E+00 -0.43375104308E+01  0.61020765626E+01  0.00000000000E+00 0.  1.
         14    1    4    4    0    0 -0.11625936106E+03 -0.68538312414E+02  0.24432300659E+03  0.27911909797E+03  0.00000000000E+00 0. -1.
         -5    1    5    5    0  501  0.34611192361E+02  0.74273019281E+02  0.19721560648E+03  0.21361297121E+03  0.47000000000E+01 0.  1.
         11    1    6    6    0    0 -0.13906134915E+02  0.20263630682E+02  0.14174947128E+03  0.14386419959E+03  0.00000000000E+00 0. -1.
        -12    1    6    6    0    0  0.10841690219E+03  0.12796661119E+03  0.12599110568E+04  0.12710253928E+04  0.00000000000E+00 0.  1.
</event>
<event>
12    1  0.1345781E-002  0.2341244E+03  0.7818608E-02  0.1123770E+00
          1   -1    0    0  502    0  0.00000000000E+00  0.00000000000E+00  0.31169052408E+03  0.31169052408E+03  0.00000000000E+00 0.  1.
         -1   -1    0    0    0  501 -0.00000000000E+00 -0.00000000000E+00 -0.20729430716E+03  0.20729430716E+03  0.00000000000E+00 0. -1.
          6    2    1    2  502    0 -0.60527909290E+01 -0.15649305841E+03 -0.48851168001E+02  0.23915766618E+03  0.17402080069E+03 0.  0.
         24    2    3    3    0    0 -0.54883431733E+02 -0.71881989505E+02 -0.69528559122E+02  0.13919212729E+03  0.79755979545E+02 0.  0.
         -6    2    1    2    0  501  0.60527909290E+01  0.15649305841E+03  0.15324738492E+03  0.27982716505E+03  0.17404530360E+03 0.  0.
        -24    2    5    5    0    0 -0.52240027462E+02  0.33671365291E+02  0.83248972258E+02  0.12683994744E+03  0.72768121970E+02 0.  0.
          5    1    3    3  502    0  0.48830640804E+02 -0.84611068900E+02  0.20677391122E+02  0.99965538889E+02  0.47000000000E+01 0. -1.
        -13    1    4    4    0    0 -0.36146717756E+02 -0.84264480164E+02 -0.35294238762E+02  0.98248517096E+02  0.00000000000E+00 0.  1.
         14    1    4    4    0    0 -0.18736713976E+02  0.12382490659E+02 -0.34234320360E+02  0.40943610198E+02  0.00000000000E+00 0. -1.
         -5    1    5    5    0  501  0.58292818392E+02  0.12282169311E+03  0.69998412663E+02  0.15298721761E+03  0.47000000000E+01 0.  1.
         11    1    6    6    0    0 -0.22362562450E+02  0.12580330073E+02 -0.93278169602E+01  0.27301228421E+02  0.00000000000E+00 0. -1.
        -12    1    6    6    0    0 -0.29877465013E+02  0.21091035218E+02  0.92576789219E+02  0.99538719020E+02  0.00000000000E+00 0.  1.
</event>
<event>
12    1  0.1345781E-002  0.2682279E+03  0.7818608E-02  0.1102298E+00
          1   -1    0    0  502    0  0.00000000000E+00  0.00000000000E+00  0.11688678779E+04  0.11688678779E+04  0.00000000000E+00 0. -1.
         -1   -1    0    0    0  501 -0.00000000000E+00 -0.00000000000E+00 -0.62557245633E+02  0.62557245633E+02  0.00000000000E+00 0.  1.
          6    2    1    2  502    0  0.56369355177E+02 -0.19788952350E+03  0.47558155105E+03  0.54612204288E+03  0.17243464359E+03 0.  0.
         24    2    3    3    0    0  0.28709303262E+02 -0.16131201275E+03  0.21623717157E+03  0.28271249497E+03  0.79511325565E+02 0.  0.
         -6    2    1    2    0  501 -0.56369355177E+02  0.19788952350E+03  0.63072908123E+03  0.68530308066E+03  0.17170722389E+03 0.  0.
        -24    2    5    5    0    0  0.18470238707E+01  0.95616128166E+02  0.17188708562E+03  0.21158685641E+03  0.77961350294E+02 0.  0.
          5    1    3    3  502    0  0.27660051915E+02 -0.36577510756E+02  0.25934437948E+03  0.26340954792E+03  0.47000000000E+01 0. -1.
        -11    1    4    4    0    0  0.11977808318E+02 -0.10826523605E+02 -0.28497444839E+01  0.16395198965E+02  0.00000000000E+00 0.  1.
         12    1    4    4    0    0  0.16731494944E+02 -0.15048548914E+03  0.21908691605E+03  0.26631729600E+03  0.00000000000E+00 0. -1.
         -5    1    5    5    0  501 -0.58216379047E+02  0.10227339534E+03  0.45884199560E+03  0.47371622424E+03  0.47000000000E+01 0.  1.
         13    1    6    6    0    0 -0.15920596555E+02  0.21674298129E+02  0.11087646056E+03  0.11409132351E+03  0.00000000000E+00 0. -1.
        -14    1    6    6    0    0  0.17767620426E+02  0.73941830037E+02  0.61010625059E+02  0.97495532898E+02  0.00000000000E+00 0.  1.
</event>
<event>
12    1  0.1345781E-002  0.1982080E+03  0.7818608E-02  0.1151260E+00
          1   -1    0    0  502    0  0.00000000000E+00  0.00000000000E+00  0.17134834328E+04  0.17134834328E+04  0.00000000000E+00 0. -1.
         -1   -1    0    0    0  501 -0.00000000000E+00 -0.00000000000E+00 -0.22930134357E+02  0.22930134357E+02  0.00000000000E+00 0.  1.
          6    2    1    2  502    0  0.48515673633E+02 -0.83816458140E+02  0.84404397952E+03  0.86730019831E+03  0.17441452168E+03 0.  0.
         24    2    3    3    0    0  0.77679182579E+01 -0.62791200480E+02  0.23276086663E+03  0.25428178494E+03  0.80489314214E+02 0.  0.
         -6    2    1    2    0  501 -0.48515673633E+02  0.83816458140E+02  0.84650931888E+03  0.86911336881E+03  0.17146734864E+03 0.  0.
        -24    2    5    5    0    0 -0.49633149981E+02  0.11728929085E+03  0.52963815949E+03  0.55044253404E+03  0.79058054371E+02 0.  0.
          5    1    3    3  502    0  0.40747755375E+02 -0.21025257659E+02  0.61128311289E+03  0.61301841337E+03  0.47000000000E+01 0. -1.
        -13    1    4    4    0    0 -0.15506927033E+01 -0.37247544357E+02  0.22188827825E+03  0.22499820495E+03  0.00000000000E+00 0.  1.
         14    1    4    4    0    0  0.93186109612E+01 -0.25543656124E+02  0.10872588385E+02  0.29283579983E+02  0.00000000000E+00 0. -1.
         -5    1    5    5    0  501  0.11174763484E+01 -0.33472832711E+02  0.31687115939E+03  0.31867083478E+03  0.47000000000E+01 0.  1.
         11    1    6    6    0    0 -0.53528508149E+02  0.12686525252E+03  0.50985123693E+03  0.52811776839E+03  0.00000000000E+00 0. -1.
        -12    1    6    6    0    0  0.38953581682E+01 -0.95759616652E+01  0.19786922557E+02  0.22324765651E+02  0.00000000000E+00 0.  1.
</event>
<event>
12    1  0.1345781E-002  0.2104106E+03  0.7818608E-02  0.1141241E+00
         -2   -1    0    0    0  501 -0.00000000000E+00  0.00000000000E+00  0.36423687040E+02  0.36423687040E+02  0.00000000000E+00 0. -1.
          2   -1    0    0  502    0  0.00000000000E+00 -0.00000000000E+00 -0.14937128932E+04  0.14937128932E+04  0.00000000000E+00 0.  1.
          6    2    1    2  502    0 -0.34506873533E+02  0.11637891733E+03 -0.10586351383E+04  0.10793291250E+04  0.17177958925E+03 0.  0.
         24    2    3    3    0    0 -0.16492680785E+02  0.12772921514E+03 -0.10391135284E+04  0.10500626997E+04  0.79296830180E+02 0.  0.
         -6    2    1    2    0  501  0.34506873533E+02 -0.11637891733E+03 -0.39865406783E+03  0.45080745522E+03  0.17195208392E+03 0.  0.
        -24    2    5    5    0    0  0.51825527486E+02 -0.24816450875E+02 -0.13289688680E+03  0.16914703857E+03  0.87449394528E+02 0.  0.
          5    1    3    3  502    0 -0.18014192748E+02 -0.11350297812E+02 -0.19521609854E+02  0.29266425338E+02  0.47000000000E+01 0. -1.
        -13    1    4    4    0    0 -0.18541233089E+02  0.10134905756E+03 -0.97870794689E+03  0.98411617917E+03  0.00000000000E+00 0.  1.
         14    1    4    4    0    0  0.20485523043E+01  0.26380157584E+02 -0.60405581556E+02  0.65946520483E+02  0.00000000000E+00 0. -1.
         -5    1    5    5    0  501 -0.17318653954E+02 -0.91562466453E+02 -0.26575718103E+03  0.28166041665E+03  0.47000000000E+01 0.  1.
         13    1    6    6    0    0  0.63415863806E+02  0.12785383392E+02 -0.91215596133E+02  0.11182720058E+03  0.00000000000E+00 0. -1.
        -14    1    6    6    0    0 -0.11590336319E+02 -0.37601834267E+02 -0.41681290665E+02  0.57319837995E+02  0.00000000000E+00 0.  1.
</event>
<event>
12    1  0.1345781E-002  0.1776338E+03  0.7818608E-02  0.1170113E+00
          3   -1    0    0  502    0  0.00000000000E+00  0.00000000000E+00  0.45052854892E+03  0.45052854892E+03  0.00000000000E+00 0. -1.
         -3   -1    0    0    0  501 -0.00000000000E+00 -0.00000000000E+00 -0.73166168235E+02  0.73166168235E+02  0.00000000000E+00 0.  1.
          6    2    1    2  502    0 -0.50202392002E+02 -0.64891618653E+01  0.24260887399E+03  0.30055919138E+03  0.17004226651E+03 0.  0.
         24    2    3    3    0    0  0.26561674067E+02  0.25606269976E+02  0.17054189622E+03  0.19038397697E+03  0.76159810462E+02 0.  0.
         -6    2    1    2    0  501  0.50202392002E+02  0.64891618653E+01  0.13475350670E+03  0.22313552578E+03  0.17049506126E+03 0.  0.
        -24    2    5    5    0    0  0.48381257461E+02  0.47556624750E+02  0.14599287347E+03  0.18026051669E+03  0.81102134026E+02 0.  0.
          5    1    3    3  502    0 -0.76764066069E+02 -0.32095431842E+02  0.72066977767E+02  0.11017521440E+03  0.47000000000E+01 0. -1.
        -13    1    4    4    0    0  0.11053538899E+02 -0.26293226575E+02  0.40725815137E+02  0.49720282627E+02  0.00000000000E+00 0.  1.
         14    1    4    4    0    0  0.15508135168E+02  0.51899496552E+02  0.12981608108E+03  0.14066369434E+03  0.00000000000E+00 0. -1.
         -5    1    5    5    0  501  0.18211345413E+01 -0.41067462885E+02 -0.11239366770E+02  0.42875009087E+02  0.47000000000E+01 0.  1.
         13    1    6    6    0    0  0.18966590375E+02 -0.21797816692E+02  0.27771958103E+02  0.40076901326E+02  0.00000000000E+00 0. -1.
        -14    1    6    6    0    0  0.29414667086E+02  0.69354441442E+02  0.11822091536E+03  0.14018361536E+03  0.00000000000E+00 0.  1.
</event>
<event>
12    1  0.1345781E-002  0.1776358E+03  0.7818608E-02  0.1170111E+00
          1   -1    0    0  502    0  0.00000000000E+00  0.00000000000E+00  0.35722243632E+03  0.35722243632E+03  0.00000000000E+00 0. -1.
         -1   -1    0    0    0  501 -0.00000000000E+00 -0.00000000000E+00 -0.98936919746E+02  0.98936919746E+02  0.00000000000E+00 0.  1.
          6    2    1    2  502    0  0.23031654930E+02 -0.35741330969E+02  0.54316003966E+02  0.18552193780E+03  0.17222154699E+03 0.  0.
         24    2    3    3    0    0 -0.44149605997E+02 -0.38525448679E+02  0.67847661338E+02  0.11677407323E+03  0.74829680769E+02 0.  0.
         -6    2    1    2    0  501 -0.23031654930E+02  0.35741330969E+02  0.20396951261E+03  0.27063741827E+03  0.17272275538E+03 0.  0.
        -24    2    5    5    0    0  0.26854266228E+02 -0.34010705320E+02  0.85980519326E+02  0.12470097926E+03  0.79245219622E+02 0.  0.
          5    1    3    3  502    0  0.67181260928E+02  0.27841177101E+01 -0.13531657372E+02  0.68747864567E+02  0.47000000000E+01 0. -1.
        -11    1    4    4    0    0  0.15703762610E+02 -0.27631079395E+02  0.36289737665E+02  0.48239296932E+02  0.00000000000E+00 0.  1.
         12    1    4    4    0    0 -0.59853368607E+02 -0.10894369284E+02  0.31557923673E+02  0.68534776298E+02  0.00000000000E+00 0. -1.
         -5    1    5    5    0  501 -0.49885921159E+02  0.69752036290E+02  0.11798899328E+03  0.14593643901E+03  0.47000000000E+01 0.  1.
         11    1    6    6    0    0  0.10269354492E+02  0.77203512582E+01  0.78049777797E+02  0.79100134510E+02  0.00000000000E+00 0. -1.
        -12    1    6    6    0    0  0.16584911736E+02 -0.41731056578E+02  0.79307415290E+01  0.45600844747E+02  0.00000000000E+00 0.  1.
</event>
<event>
12    1  0.1345781E-002  0.2679925E+03  0.7818608E-02  0.1102434E+00
          2   -1    0    0  502    0  0.00000000000E+00  0.00000000000E+00  0.95816838117E+02  0.95816838117E+02  0.00000000000E+00 0. -1.
         -2   -1    0    0    0  501 -0.00000000000E+00 -0.00000000000E+00 -0.97837969725E+03  0.97837969725E+03  0.00000000000E+00 0.  1.
          6    2    1    2  502    0 -0.10305783051E+03 -0.17730661372E+03 -0.70121972792E+03  0.75073980165E+03  0.17275008322E+03 0.  0.
         24    2    3    3    0    0 -0.34368894552E+02 -0.70859967322E+02 -0.51049231741E+03  0.52172431402E+03  0.73426819503E+02 0.  0.
         -6    2    1    2    0  501  0.10305783051E+03  0.17730661372E+03 -0.18134313121E+03  0.32345673372E+03  0.17227993397E+03 0.  0.
        -24    2    5    5    0    0  0.14030718401E+03  0.15718738099E+03 -0.14939931512E+03  0.27021393845E+03  0.79381600803E+02 0.  0.
          5    1    3    3  502    0 -0.68688935959E+02 -0.10644664640E+03 -0.19072741051E+03  0.22901548763E+03  0.47000000000E+01 0. -1.
        -11    1    4    4    0    0 -0.32178633405E+02 -0.29883490638E+02 -0.42086444721E+03  0.42314934761E+03  0.00000000000E+00 0.  1.
         12    1    4    4    0    0 -0.21902611466E+01 -0.40976476683E+02 -0.89627870203E+02  0.98574966409E+02  0.00000000000E+00 0. -1.
         -5    1    5    5    0  501 -0.37249353497E+02  0.20119232736E+02 -0.31943816090E+02  0.53242795271E+02  0.47000000000E+01 0.  1.
         13    1    6    6    0    0  0.18482120409E+02  0.26681708443E+02  0.66092404751E+01  0.33123773939E+02  0.00000000000E+00 0. -1.
        -14    1    6    6    0    0  0.12182506360E+03  0.13050567255E+03 -0.15600855560E+03  0.23709016451E+03  0.00000000000E+00 0.  1.
</event>
<event>
12    1  0.1345781E-002  0.1760237E+03  0.7818608E-02  0.1171708E+00
         -1   -1    0    0    0  501 -0.00000000000E+00  0.00000000000E+00  0.31085792281E+03  0.31085792281E+03  0.00000000000E+00 0.  1.
          1   -1    0    0  502    0  0.00000000000E+00 -0.00000000000E+00 -0.17161541810E+03  0.17161541810E+03  0.00000000000E+00 0. -1.
          6    2    1    2  502    0 -0.18798918787E+02  0.29370462724E+02 -0.86540952046E+02  0.19625904393E+03  0.17266224983E+03 0.  0.
         24    2    3    3    0    0  0.50330930976E+02  0.17524522878E+02 -0.80711503380E+02  0.12572299010E+03  0.80321926934E+02 0.  0.
         -6    2    1    2    0  501  0.18798918787E+02 -0.29370462724E+02  0.22578345675E+03  0.28621429698E+03  0.17240774642E+03 0.  0.
        -24    2    5    5    0    0  0.40575921981E+02  0.29476061116E+01  0.37623067069E+02  0.94003169085E+02  0.75934226775E+02 0.  0.
          5    1    3    3  502    0 -0.69129849763E+02  0.11845939846E+02 -0.58294486661E+01  0.70536053836E+02  0.47000000000E+01 0. -1.
        -13    1    4    4    0    0 -0.11200721559E+02  0.24046571989E+02 -0.34693439860E+01  0.26753133191E+02  0.00000000000E+00 0.  1.
         14    1    4    4    0    0  0.61531652535E+02 -0.65220491108E+01 -0.77242159394E+02  0.98969856907E+02  0.00000000000E+00 0. -1.
         -5    1    5    5    0  501 -0.21777003194E+02 -0.32318068836E+02  0.18816038968E+03  0.19221112790E+03  0.47000000000E+01 0.  1.
         13    1    6    6    0    0 -0.15933228064E+02  0.27169808156E+01 -0.10920085223E+02  0.19506358004E+02  0.00000000000E+00 0. -1.
        -14    1    6    6    0    0  0.56509150045E+02  0.23062529607E+00  0.48543152292E+02  0.74496811081E+02  0.00000000000E+00 0.  1.
</event>
<event>
12    1  0.1345781E-002  0.2153374E+03  0.7818608E-02  0.1137408E+00
         -1   -1    0    0    0  501 -0.00000000000E+00  0.00000000000E+00  0.20139891850E+03  0.20139891850E+03  0.00000000000E+00 0. -1.
          1   -1    0    0  502    0  0.00000000000E+00 -0.00000000000E+00 -0.38890925571E+03  0.38890925571E+03  0.00000000000E+00 0.  1.
          6    2    1    2  502    0  0.11046364739E+03  0.66130684798E+02 -0.28231267803E+03  0.35513951339E+03  0.17276614520E+03 0.  0.
         24    2    3    3    0    0  0.52560662428E+02  0.93858916393E+02 -0.11827799739E+03  0.17892635569E+03  0.80329550423E+02 0.  0.
         -6    2    1    2    0  501 -0.11046364739E+03 -0.66130684798E+02  0.94802340817E+02  0.23516866082E+03  0.17245674919E+03 0.  0.
        -24    2    5    5    0    0 -0.90146843448E+02  0.14867237331E+02  0.90563204389E+02  0.15142204185E+03  0.79871475757E+02 0.  0.
          5    1    3    3  502    0  0.57902984963E+02 -0.27728231595E+02 -0.16403468063E+03  0.17621315770E+03  0.47000000000E+01 0. -1.
        -11    1    4    4    0    0  0.32353807655E+02 -0.54033634221E+01 -0.25282489432E+02  0.41414604645E+02  0.00000000000E+00 0.  1.
         12    1    4    4    0    0  0.20206854773E+02  0.99262279815E+02 -0.92995507962E+02  0.13751175104E+03  0.00000000000E+00 0. -1.
         -5    1    5    5    0  501 -0.20316803943E+02 -0.80997922129E+02  0.42391364280E+01  0.83746618973E+02  0.47000000000E+01 0.  1.
         13    1    6    6    0    0 -0.64974796020E+01 -0.25899418767E+02  0.31103166187E+02  0.40992732045E+02  0.00000000000E+00 0. -1.
        -14    1    6    6    0    0 -0.83649363846E+02  0.40766656098E+02  0.59460038202E+02  0.11042930981E+03  0.00000000000E+00 0.  1.
</event>
<event>
12    1  0.1345781E-002  0.1775867E+03  0.7818608E-02  0.1170159E+00
         -2   -1    0    0    0  501 -0.00000000000E+00  0.00000000000E+00  0.25584146746E+02  0.25584146746E+02  0.00000000000E+00 0.  1.
          2   -1    0    0  502    0  0.00000000000E+00 -0.00000000000E+00 -0.14668495058E+04  0.14668495058E+04  0.00000000000E+00 0. -1.
          6    2    1    2  502    0  0.13665258130E+02  0.41313992712E+02 -0.42212560359E+03  0.45791932506E+03  0.17206538811E+03 0.  0.
         24    2    3    3    0    0 -0.40566331048E+02  0.71365520258E+02 -0.27383886296E+03  0.29712378091E+03  0.80970078535E+02 0.  0.
         -6    2    1    2    0  501 -0.13665258130E+02 -0.41313992712E+02 -0.10191397554E+04  0.10345143274E+04  0.17228020005E+03 0.  0.
        -24    2    5    5    0    0  0.45704875752E+02 -0.41625932572E+02 -0.82831649352E+03  0.83461305835E+03  0.81541951130E+02 0.  0.
          5    1    3    3  502    0  0.54231589178E+02 -0.30051527546E+02 -0.14828674062E+03  0.16079554415E+03  0.47000000000E+01 0. -1.
        -13    1    4    4    0    0 -0.50600760825E+01  0.18312615145E+02 -0.34606390849E+01  0.19311454277E+02  0.00000000000E+00 0.  1.
         14    1    4    4    0    0 -0.35506254965E+02  0.53052905113E+02 -0.27037822388E+03  0.27781232663E+03  0.00000000000E+00 0. -1.
         -5    1    5    5    0  501 -0.59370133882E+02  0.31193985996E+00 -0.19082326190E+03  0.19990126909E+03  0.47000000000E+01 0.  1.
         13    1    6    6    0    0  0.61298512347E+02 -0.31785547806E+02 -0.40118965688E+03  0.40708840496E+03  0.00000000000E+00 0. -1.
        -14    1    6    6    0    0 -0.15593636595E+02 -0.98403847656E+01 -0.42712683665E+03  0.42752465339E+03  0.00000000000E+00 0.  1.
</event>
<event>
12    1  0.1345781E-002  0.2566581E+03  0.7818608E-02  0.1109168E+00
         -2   -1    0    0    0  501 -0.00000000000E+00  0.00000000000E+00  0.95185087830E+02  0.95185087830E+02  0.00000000000E+00 0. -1.
          2   -1    0    0  502    0  0.00000000000E+00 -0.00000000000E+00 -0.88642760457E+03  0.88642760457E+03  0.00000000000E+00 0.  1.
          6    2    1    2  502    0 -0.47870841619E+02  0.17445154167E+03 -0.17421432893E+03  0.31584963257E+03  0.19153433144E+03 0.  0.
         24    2    3    3    0    0 -0.63939759778E+02  0.18001142266E+03 -0.83014097878E+02  0.22295886579E+03  0.79541877144E+02 0.  0.
         -6    2    1    2    0  501  0.47870841619E+02 -0.17445154167E+03 -0.61702818781E+03  0.66576305983E+03  0.17260275032E+03 0.  0.
        -24    2    5    5    0    0 -0.58349124723E+01 -0.68279000585E+02 -0.43843262938E+03  0.45111129536E+03  0.81130525485E+02 0.  0.
          5    1    3    3  502    0  0.16068918159E+02 -0.55598809915E+01 -0.91200231054E+02  0.92890766774E+02  0.47000000000E+01 0. -1.
        -11    1    4    4    0    0 -0.37000809004E+01  0.78767752166E+02 -0.68135033593E+02  0.10421339733E+03  0.00000000000E+00 0.  1.
         12    1    4    4    0    0 -0.60239678878E+02  0.10124367050E+03 -0.14879064285E+02  0.11874546847E+03  0.00000000000E+00 0. -1.
         -5    1    5    5    0  501  0.53705754091E+02 -0.10617254109E+03 -0.17859555843E+03  0.21465176448E+03  0.47000000000E+01 0.  1.
         11    1    6    6    0    0 -0.46031637178E+01  0.13658345619E+02 -0.19552615792E+02  0.24290827601E+02  0.00000000000E+00 0. -1.
        -12    1    6    6    0    0 -0.12317487545E+01 -0.81937346204E+02 -0.41888001359E+03  0.42682046776E+03  0.00000000000E+00 0.  1.
</event>
<event>
12    1  0.1345781E-002  0.1801181E+03  0.7818608E-02  0.1167689E+00
         -2   -1    0    0    0  501 -0.00000000000E+00  0.00000000000E+00  0.81749461376E+01  0.81749461376E+01  0.00000000000E+00 0. -1.
          2   -1    0    0  502    0  0.00000000000E+00 -0.00000000000E+00 -0.43155461566E+04  0.43155461566E+04  0.00000000000E+00 0.  1.
          6    2    1    2  502    0 -0.18391004021E+02 -0.53653335096E+02 -0.15367190665E+04  0.15471971002E+04  0.17057686892E+03 0.  0.
         24    2    3    3    0    0 -0.65016411385E+02  0.55939956007E+01 -0.92285007144E+03  0.92869778098E+03  0.81048673728E+02 0.  0.
         -6    2    1    2    0  501  0.18391004021E+02  0.53653335096E+02 -0.27706521439E+04  0.27765240025E+04  0.17133395542E+03 0.  0.
        -24    2    5    5    0    0 -0.16808781709E+02 -0.88672191600E-01 -0.72133094056E+03  0.72619068498E+03  0.82170810737E+02 0.  0.
          5    1    3    3  502    0  0.46625407365E+02 -0.59247330696E+02 -0.61386899505E+03  0.61849931923E+03  0.47000000000E+01 0. -1.
        -11    1    4    4    0    0 -0.30163772084E+02  0.53240860055E+00 -0.86562770216E+02  0.91669241257E+02  0.00000000000E+00 0.  1.
         12    1    4    4    0    0 -0.34852639301E+02  0.50615870002E+01 -0.83628730122E+03  0.83702853973E+03  0.00000000000E+00 0. -1.
         -5    1    5    5    0  501  0.35199785730E+02  0.53742007287E+02 -0.20493212034E+04  0.20503333175E+04  0.47000000000E+01 0.  1.
         11    1    6    6    0    0  0.10287744093E+02 -0.36801194329E+02 -0.33862148350E+03  0.34077070688E+03  0.00000000000E+00 0. -1.
        -12    1    6    6    0    0 -0.27096525802E+02  0.36712522138E+02 -0.38270945706E+03  0.38541997810E+03  0.00000000000E+00 0.  1.
</event>
<event>
12    1  0.1345781E-002  0.2441272E+03  0.7818608E-02  0.1117074E+00
          2   -1    0    0  502    0  0.00000000000E+00  0.00000000000E+00  0.87186345591E+03  0.87186345591E+03  0.00000000000E+00 0.  1.
         -2   -1    0    0    0  501 -0.00000000000E+00 -0.00000000000E+00 -0.71466506246E+02  0.71466506246E+02  0.00000000000E+00 0. -1.
          6    2    1    2  502    0  0.68400758600E+02 -0.15882863189E+03  0.30351093031E+03  0.39017990690E+03  0.17382829703E+03 0.  0.
         24    2    3    3    0    0  0.87128839954E+02 -0.17849108503E+03  0.28695912456E+03  0.35803328393E+03  0.79948677587E+02 0.  0.
         -6    2    1    2    0  501 -0.68400758600E+02  0.15882863189E+03  0.49688601935E+03  0.55315005525E+03  0.17080418411E+03 0.  0.
        -24    2    5    5    0    0 -0.90384397398E+02  0.17689855994E+03  0.44227938591E+03  0.49139426937E+03  0.79967699509E+02 0.  0.
          5    1    3    3  502    0 -0.18728081354E+02  0.19662453142E+02  0.16551805751E+02  0.32146622971E+02  0.47000000000E+01 0. -1.
        -11    1    4    4    0    0  0.87562144958E+02 -0.90169477968E+02  0.17380554681E+03  0.21449016781E+03  0.00000000000E+00 0.  1.
         12    1    4    4    0    0 -0.43330500406E+00 -0.88321607066E+02  0.11315357775E+03  0.14354311612E+03  0.00000000000E+00 0. -1.
         -5    1    5    5    0  501  0.21983638798E+02 -0.18069928045E+02  0.54606633436E+02  0.61755785879E+02  0.47000000000E+01 0.  1.
         13    1    6    6    0    0 -0.98360844050E+02  0.11914610477E+03  0.34438972569E+03  0.37745851836E+03  0.00000000000E+00 0. -1.
        -14    1    6    6    0    0  0.79764466523E+01  0.57752455163E+02  0.97889660227E+02  0.11393575101E+03  0.00000000000E+00 0.  1.
</event>
<event>
12    1  0.1345781E-002  0.2032930E+03  0.7818608E-02  0.1146990E+00
         -3   -1    0    0    0  501 -0.00000000000E+00  0.00000000000E+00  0.12375897212E+03  0.12375897212E+03  0.00000000000E+00 0. -1.
          3   -1    0    0  502    0  0.00000000000E+00 -0.00000000000E+00 -0.56185584518E+03  0.56185584518E+03  0.00000000000E+00 0.  1.
          6    2    1    2  502    0  0.10633519256E+03  0.14271101372E+02 -0.10436786437E+01  0.20381120937E+03  0.17328324295E+03 0.  0.
         24    2    3    3    0    0  0.11193833040E+03  0.15748320372E+02  0.53962949052E+02  0.14830088222E+03  0.79391135450E+02 0.  0.
         -6    2    1    2    0  501 -0.10633519256E+03 -0.14271101372E+02 -0.43705319441E+03  0.48180360793E+03  0.17207087018E+03 0.  0.
        -24    2    5    5    0    0 -0.91262012041E+02 -0.70470363764E+01 -0.44597670453E+03  0.46228164802E+03  0.80191555380E+02 0.  0.
          5    1    3    3  502    0 -0.56031378429E+01 -0.14772189993E+01 -0.55006627696E+02  0.55510327148E+02  0.47000000000E+01 0. -1.
        -11    1    4    4    0    0  0.97332981771E+02 -0.15828159001E+02  0.21954745269E+02  0.10102599070E+03  0.00000000000E+00 0.  1.
         12    1    4    4    0    0  0.14605348632E+02  0.31576479373E+02  0.32008203783E+02  0.47274891514E+02  0.00000000000E+00 0. -1.
         -5    1    5    5    0  501 -0.15073180519E+02 -0.72240649958E+01  0.89235101185E+01  0.19521959913E+02  0.47000000000E+01 0.  1.
         13    1    6    6    0    0  0.13763873529E+02  0.26185791325E+01 -0.29505439904E+02  0.32663008972E+02  0.00000000000E+00 0. -1.
        -14    1    6    6    0    0 -0.10502588557E+03 -0.96656155089E+01 -0.41647126462E+03  0.42961863905E+03  0.00000000000E+00 0.  1.
</event>
<event>
12    1  0.1345781E-002  0.1782294E+03  0.7818608E-02  0.1169528E+00
          2   -1    0    0  502    0  0.00000000000E+00  0.00000000000E+00  0.96767734698E+03  0.96767734698E+03  0.00000000000E+00 0. -1.
         -2   -1    0    0    0  501 -0.00000000000E+00 -0.00000000000E+00 -0.40883362002E+02  0.40883362002E+02  0.00000000000E+00 0.  1.
          6    2    1    2  502    0  0.27771788383E+02  0.39163680956E+02  0.23865654260E+03  0.29761042420E+03  0.17120149862E+03 0.  0.
         24    2    3    3    0    0  0.27086136254E+02  0.49784586236E+02  0.51977780477E+02  0.11056945549E+03  0.79446529311E+02 0.  0.
         -6    2    1    2    0  501 -0.27771788383E+02 -0.39163680956E+02  0.68813744238E+03  0.71095028479E+03  0.17208167159E+03 0.  0.
        -24    2    5    5    0    0 -0.43989924479E+02  0.13815365735E+02  0.59487013176E+03  0.60236534772E+03  0.82749989082E+02 0.  0.
          5    1    3    3  502    0  0.68565212908E+00 -0.10620905280E+02  0.18667876212E+03  0.18704096871E+03  0.47000000000E+01 0. -1.
        -13    1    4    4    0    0  0.47541524214E+02  0.32076164612E+02  0.59345440995E+02  0.82528529780E+02  0.00000000000E+00 0.  1.
         14    1    4    4    0    0 -0.20455387960E+02  0.17708421624E+02 -0.73676605182E+01  0.28040925707E+02  0.00000000000E+00 0. -1.
         -5    1    5    5    0  501  0.16218136096E+02 -0.52979046692E+02  0.93267310623E+02  0.10858493707E+03  0.47000000000E+01 0.  1.
         11    1    6    6    0    0 -0.63873378888E+02  0.22230327346E+02  0.52202779615E+03  0.52639055457E+03  0.00000000000E+00 0. -1.
        -12    1    6    6    0    0  0.19883454409E+02 -0.84149616112E+01  0.72842335609E+02  0.75974793156E+02  0.00000000000E+00 0.  1.
</event>
<event>
12    1  0.1345781E-002  0.1919295E+03  0.7818608E-02  0.1156733E+00
         -2   -1    0    0    0  501 -0.00000000000E+00  0.00000000000E+00  0.37121788944E+03  0.37121788944E+03  0.00000000000E+00 0. -1.
          2   -1    0    0  502    0  0.00000000000E+00 -0.00000000000E+00 -0.10004397921E+03  0.10004397921E+03  0.00000000000E+00 0.  1.
          6    2    1    2  502    0  0.51899196737E+02  0.64640881993E+02  0.15659416288E+03  0.24747530651E+03  0.17277246666E+03 0.  0.
         24    2    3    3    0    0  0.99961917917E+02  0.51604440358E+02  0.13411677465E+03  0.19263647939E+03  0.80412067831E+02 0.  0.
         -6    2    1    2    0  501 -0.51899196737E+02 -0.64640881993E+02  0.11457974735E+03  0.22378656215E+03  0.17343568447E+03 0.  0.
        -24    2    5    5    0    0 -0.99840196831E+02 -0.63402585759E+02  0.74662549630E+02  0.16121384012E+03  0.80171398551E+02 0.  0.
          5    1    3    3  502    0 -0.48062721181E+02  0.13036441635E+02  0.22477388231E+02  0.54838827116E+02  0.47000000000E+01 0. -1.
        -13    1    4    4    0    0  0.42460150570E+02  0.65247584301E+02  0.89294244454E+02  0.11846338564E+03  0.00000000000E+00 0.  1.
         14    1    4    4    0    0  0.57501767347E+02 -0.13643143943E+02  0.44822530193E+02  0.74173093758E+02  0.00000000000E+00 0. -1.
         -5    1    5    5    0  501  0.47941000095E+02 -0.12382962339E+01  0.39917197718E+02  0.62572722022E+02  0.47000000000E+01 0.  1.
         11    1    6    6    0    0 -0.95750925869E+02 -0.55749507097E+02  0.28721251949E+02  0.11446028857E+03  0.00000000000E+00 0. -1.
        -12    1    6    6    0    0 -0.40892709617E+01 -0.76530786620E+01  0.45941297681E+02  0.46753551551E+02  0.00000000000E+00 0.  1.
</event>
<event>
12    1  0.1345781E-002  0.2423093E+03  0.7818608E-02  0.1118264E+00
          1   -1    0    0  502    0  0.00000000000E+00  0.00000000000E+00  0.53587040481E+03  0.53587040481E+03  0.00000000000E+00 0. -1.
         -1   -1    0    0    0  501 -0.00000000000E+00 -0.00000000000E+00 -0.11226237470E+03  0.11226237470E+03  0.00000000000E+00 0.  1.
          6    2    1    2  502    0 -0.11892506010E+03  0.12307875255E+03  0.16191790485E+03  0.29174558378E+03  0.17206547734E+03 0.  0.
         24    2    3    3    0    0 -0.36458670975E+01  0.26357037589E+02  0.82737469839E+02  0.12163969389E+03  0.85104291535E+02 0.  0.
         -6    2    1    2    0  501  0.11892506010E+03 -0.12307875255E+03  0.26169012526E+03  0.35638719574E+03  0.17099287231E+03 0.  0.
        -24    2    5    5    0    0  0.52097610496E+02 -0.14005583706E+03  0.15748035483E+03  0.23134362065E+03  0.79937539008E+02 0.  0.
          5    1    3    3  502    0 -0.11527919300E+03  0.96721714961E+02  0.79180435013E+02  0.17010588988E+03  0.47000000000E+01 0. -1.
        -11    1    4    4    0    0  0.79347317707E+01  0.50817900350E+00 -0.16566229294E+02  0.18375477333E+02  0.00000000000E+00 0.  1.
         12    1    4    4    0    0 -0.11580598868E+02  0.25848858586E+02  0.99303699134E+02  0.10326421656E+03  0.00000000000E+00 0. -1.
         -5    1    5    5    0  501  0.66827449604E+02  0.16977084509E+02  0.10420977043E+03  0.12504357509E+03  0.47000000000E+01 0.  1.
         11    1    6    6    0    0  0.24706692867E+02 -0.43499054562E+02  0.10889403824E+03  0.11983530358E+03  0.00000000000E+00 0. -1.
        -12    1    6    6    0    0  0.27390917630E+02 -0.96556782497E+02  0.48586316589E+02  0.11150831706E+03  0.00000000000E+00 0.  1.
</event>
<event>
12    1  0.1345781E-002  0.2279791E+03  0.7818608E-02  0.1128070E+00
          2   -1    0    0  502    0  0.00000000000E+00  0.00000000000E+00  0.17882577557E+03  0.17882577557E+03  0.00000000000E+00 0.  1.
         -2   -1    0    0    0  501 -0.00000000000E+00 -0.00000000000E+00 -0.29146197955E+03  0.29146197955E+03  0.00000000000E+00 0. -1.
          6    2    1    2  502    0  0.85072060619E+02  0.12513582747E+03 -0.69125953872E+02  0.24132321025E+03  0.17482066094E+03 0.  0.
         24    2    3    3    0    0  0.18822537262E+02  0.16793258584E+01 -0.59036966390E+02  0.10077291746E+03  0.79452560992E+02 0.  0.
         -6    2    1    2    0  501 -0.85072060619E+02 -0.12513582747E+03 -0.43510250108E+02  0.22896454487E+03  0.16623895491E+03 0.  0.
        -24    2    5    5    0    0 -0.10003300724E+03 -0.66412026138E+02 -0.73168365735E+02  0.16133312770E+03  0.79105047839E+02 0.  0.
          5    1    3    3  502    0  0.66249523357E+02  0.12345650161E+03 -0.10088987482E+02  0.14055029279E+03  0.47000000000E+01 0. -1.
        -11    1    4    4    0    0  0.24278202571E+02 -0.21191007429E+02  0.49494107199E+01  0.32603475005E+02  0.00000000000E+00 0.  1.
         12    1    4    4    0    0 -0.54556653093E+01  0.22870333288E+02 -0.63986377109E+02  0.68169442452E+02  0.00000000000E+00 0. -1.
         -5    1    5    5    0  501  0.14960946625E+02 -0.58723801329E+02  0.29658115626E+02  0.67631417174E+02  0.47000000000E+01 0.  1.
         13    1    6    6    0    0 -0.28427224767E+02 -0.18906109810E+01 -0.56830003833E+02  0.63571462572E+02  0.00000000000E+00 0. -1.
        -14    1    6    6    0    0 -0.71605782477E+02 -0.64521415157E+02 -0.16338361901E+02  0.97761665123E+02  0.00000000000E+00 0.  1.
</event>
<event>
12    1  0.1345781E-002  0.2222083E+03  0.7818608E-02  0.1132247E+00
         -2   -1    0    0    0  501 -0.00000000000E+00  0.00000000000E+00  0.14511950047E+04  0.14511950047E+04  0.00000000000E+00 0.  1.
          2   -1    0    0  502    0  0.00000000000E+00 -0.00000000000E+00 -0.81051498339E+02  0.81051498339E+02  0.00000000000E+00 0. -1.
          6    2    1    2  502    0 -0.14041942324E+03  0.21937932028E+01  0.12682070406E+04  0.12874695654E+04  0.17177414497E+03 0.  0.
         24    2    3    3    0    0 -0.97904721922E+02 -0.65368413993E+02  0.79585988519E+03  0.80840164028E+03  0.79132111196E+02 0.  0.
         -6    2    1    2    0  501  0.14041942324E+03 -0.21937932028E+01  0.10193646577E+03  0.24477693763E+03  0.17263336582E+03 0.  0.
        -24    2    5    5    0    0  0.15219645540E+03  0.19109539869E+02  0.38764947297E+02  0.17691486257E+03  0.79165724336E+02 0.  0.
          5    1    3    3  502    0 -0.42514701319E+02  0.67562207196E+02  0.47234715542E+03  0.47906792515E+03  0.47000000000E+01 0. -1.
        -11    1    4    4    0    0 -0.78964334095E+02 -0.27937028919E+02  0.32297154435E+03  0.33365620346E+03  0.00000000000E+00 0.  1.
         12    1    4    4    0    0 -0.18940387826E+02 -0.37431385074E+02  0.47288834084E+03  0.47474543682E+03  0.00000000000E+00 0. -1.
         -5    1    5    5    0  501 -0.11777032156E+02 -0.21303333072E+02  0.63171518470E+02  0.67862075065E+02  0.47000000000E+01 0.  1.
         13    1    6    6    0    0  0.20715752931E+02 -0.26045344468E+02  0.32893662404E+01  0.33441326502E+02  0.00000000000E+00 0. -1.
        -14    1    6    6    0    0  0.13148070247E+03  0.45154884337E+02  0.35475581056E+02  0.14347353607E+03  0.00000000000E+00 0.  1.
</event>
<event>
12    1  0.1345781E-002  0.3361053E+03  0.7818608E-02  0.1068467E+00
         -2   -1    0    0    0  501 -0.00000000000E+00  0.00000000000E+00  0.75310806572E+03  0.75310806572E+03  0.00000000000E+00 0. -1.
          2   -1    0    0  502    0  0.00000000000E+00 -0.00000000000E+00 -0.22269761360E+03  0.22269761360E+03  0.00000000000E+00 0.  1.
          6    2    1    2  502    0  0.20013539941E+03  0.20882845878E+03  0.54404419947E+03  0.63956888685E+03  0.17146651788E+03 0.  0.
         24    2    3    3    0    0  0.21732902954E+02  0.86173358536E+02  0.21625298747E+03  0.24670645161E+03  0.78743583124E+02 0.  0.
         -6    2    1    2    0  501 -0.20013539941E+03 -0.20882845878E+03 -0.13633747349E+02  0.33623679247E+03  0.17089703990E+03 0.  0.
        -24    2    5    5    0    0 -0.83361132654E+02 -0.29704228520E+02  0.17253463559E+02  0.12013998768E+03  0.79400976095E+02 0.  0.
          5    1    3    3  502    0  0.17840249646E+03  0.12265510024E+03  0.32779121200E+03  0.39286243524E+03  0.47000000000E+01 0. -1.
        -13    1    4    4    0    0  0.17633425223E+02  0.10125532271E+03  0.19350556534E+03  0.21910723831E+03  0.00000000000E+00 0.  1.
         14    1    4    4    0    0  0.40994777301E+01 -0.15081964176E+02  0.22747422130E+02  0.27599213297E+02  0.00000000000E+00 0. -1.
         -5    1    5    5    0  501 -0.11677426676E+03 -0.17912423026E+03 -0.30887210908E+02  0.21609680479E+03  0.47000000000E+01 0.  1.
         11    1    6    6    0    0 -0.76079580481E+02 -0.35456715183E+02  0.41893722552E+02  0.93810261736E+02  0.00000000000E+00 0. -1.
        -12    1    6    6    0    0 -0.72815521725E+01  0.57524866632E+01 -0.24640258993E+02  0.26329725940E+02  0.00000000000E+00 0.  1.
</event>
<event>
12    1  0.1345781E-002  0.6427584E+03  0.7818608E-02  0.9820463E-01
          2   -1    0    0  502    0  0.00000000000E+00  0.00000000000E+00  0.41053098365E+03  0.41053098365E+03  0.00000000000E+00 0. -1.
         -2   -1    0    0    0  501 -0.00000000000E+00 -0.00000000000E+00 -0.10063757650E+04  0.10063757650E+04  0.00000000000E+00 0.  1.
          6    2    1    2  502    0  0.46170496822E+02 -0.61735958400E+03 -0.29429105132E+03  0.70665181003E+03  0.17171193028E+03 0.  0.
         24    2    3    3    0    0  0.76515628746E+02 -0.26317105495E+03 -0.97420555395E+02  0.30026477369E+03  0.74528679710E+02 0.  0.
         -6    2    1    2    0  501 -0.46170496822E+02  0.61735958400E+03 -0.30155373004E+03  0.71025493861E+03  0.17396222288E+03 0.  0.
        -24    2    5    5    0    0  0.21702791987E+02  0.19709818282E+03 -0.82308984645E+02  0.23138462523E+03  0.86286563203E+02 0.  0.
          5    1    3    3  502    0 -0.30345131925E+02 -0.35418852905E+03 -0.19687049592E+03  0.40638703634E+03  0.47000000000E+01 0. -1.
        -13    1    4    4    0    0  0.24101685598E+02 -0.61532386370E+02 -0.58632336834E+02  0.88345213474E+02  0.00000000000E+00 0.  1.
         14    1    4    4    0    0  0.52413943149E+02 -0.20163866858E+03 -0.38788218561E+02  0.21191956021E+03  0.00000000000E+00 0. -1.
         -5    1    5    5    0  501 -0.67873288809E+02  0.42026140118E+03 -0.21924474539E+03  0.47887031338E+03  0.47000000000E+01 0.  1.
         13    1    6    6    0    0  0.10230303136E+01  0.20711776343E+02  0.17965255322E+02  0.27436739404E+02  0.00000000000E+00 0. -1.
        -14    1    6    6    0    0  0.20679761673E+02  0.17638640647E+03 -0.10027423997E+03  0.20394788583E+03  0.00000000000E+00 0.  1.
</event>
<event>
12    1  0.1345781E-002  0.1987429E+03  0.7818608E-02  0.1150804E+00
         -1   -1    0    0    0  501 -0.00000000000E+00  0.00000000000E+00  0.19928009560E+03  0.19928009560E+03  0.00000000000E+00 0. -1.
          1   -1    0    0  502    0  0.00000000000E+00 -0.00000000000E+00 -0.20525563494E+03  0.20525563494E+03  0.00000000000E+00 0.  1.
          6    2    1    2  502    0  0.78026619946E+02  0.65492902864E+02 -0.40463740312E+02  0.20419354993E+03  0.17227947587E+03 0.  0.
         24    2    3    3    0    0  0.84622320988E+02 -0.14670053568E+02 -0.99934273381E+01  0.11805335705E+03  0.80377726024E+02 0.  0.
         -6    2    1    2    0  501 -0.78026619946E+02 -0.65492902864E+02  0.34488200964E+02  0.20034218061E+03  0.16902686053E+03 0.  0.
        -24    2    5    5    0    0 -0.11252930232E+03 -0.24909693500E+02  0.12730032798E+02  0.14261056141E+03  0.83020369675E+02 0.  0.
          5    1    3    3  502    0 -0.65957010414E+01  0.80162956432E+02 -0.30470312974E+02  0.86140192877E+02  0.47000000000E+01 0. -1.
        -11    1    4    4    0    0  0.33071575446E+01 -0.24741931524E+01 -0.32533973287E+02  0.32795096289E+02  0.00000000000E+00 0.  1.
         12    1    4    4    0    0  0.81315163443E+02 -0.12195860416E+02  0.22540545948E+02  0.85258260765E+02  0.00000000000E+00 0. -1.
         -5    1    5    5    0  501  0.34502682371E+02 -0.40583209364E+02  0.21758168166E+02  0.57731619196E+02  0.47000000000E+01 0.  1.
         13    1    6    6    0    0 -0.28269931898E+02 -0.14874575614E+02  0.42072625057E+02  0.52825636091E+02  0.00000000000E+00 0. -1.
        -14    1    6    6    0    0 -0.84259370420E+02 -0.10035117886E+02 -0.29342592259E+02  0.89784925322E+02  0.00000000000E+00 0.  1.
</event>
<event>
12    1  0.1345781E-002  0.1979612E+03  0.7818608E-02  0.1151471E+00
          2   -1    0    0  502    0  0.00000000000E+00  0.00000000000E+00  0.12162439173E+04  0.12162439173E+04  0.00000000000E+00 0. -1.
         -2   -1    0    0    0  501 -0.00000000000E+00 -0.00000000000E+00 -0.34986402084E+02  0.34986402084E+02  0.00000000000E+00 0.  1.
          6    2    1    2  502    0  0.52563004947E+02  0.83776221952E+02  0.41530011516E+03  0.46015567134E+03  0.17171992126E+03 0.  0.
         24    2    3    3    0    0 -0.37345021274E+02  0.40978527685E+02  0.14693051582E+03  0.17387010120E+03  0.74621345939E+02 0.  0.
         -6    2    1    2    0  501 -0.52563004947E+02 -0.83776221952E+02  0.76595740009E+03  0.79107464808E+03  0.17125138023E+03 0.  0.
        -24    2    5    5    0    0 -0.65031751901E+02 -0.65639823809E+02  0.75755417735E+03  0.76705168530E+03  0.77085933129E+02 0.  0.
          5    1    3    3  502    0  0.89908026221E+02  0.42797694267E+02  0.26836959934E+03  0.28628557013E+03  0.47000000000E+01 0. -1.
        -11    1    4    4    0    0  0.18304690136E+02  0.31039008756E+02  0.65183474980E+02  0.74480649541E+02  0.00000000000E+00 0.  1.
         12    1    4    4    0    0 -0.55649711411E+02  0.99395189294E+01  0.81747040836E+02  0.99389451664E+02  0.00000000000E+00 0. -1.
         -5    1    5    5    0  501  0.12468746955E+02 -0.18136398143E+02  0.84032227444E+01  0.24022962780E+02  0.47000000000E+01 0.  1.
         13    1    6    6    0    0 -0.55379755374E+02 -0.81629572325E+02  0.56044992169E+03  0.56906451225E+03  0.00000000000E+00 0. -1.
        -14    1    6    6    0    0 -0.96519965271E+01  0.15989748516E+02  0.19710425566E+03  0.19798717305E+03  0.00000000000E+00 0.  1.
</event>
<event>
12    1  0.1345781E-002  0.2030297E+03  0.7818608E-02  0.1147208E+00
         -1   -1    0    0    0  501 -0.00000000000E+00  0.00000000000E+00  0.22266102985E+03  0.22266102985E+03  0.00000000000E+00 0. -1.
          1   -1    0    0  502    0  0.00000000000E+00 -0.00000000000E+00 -0.51358669586E+03  0.51358669586E+03  0.00000000000E+00 0.  1.
          6    2    1    2  502    0 -0.29819029162E+02 -0.10197974256E+03  0.14885922675E+03  0.25197341296E+03  0.17332769271E+03 0.  0.
         24    2    3    3    0    0  0.33028791060E+02 -0.10438880778E+03  0.12427199722E+03  0.18428091738E+03  0.80796058012E+02 0.  0.
         -6    2    1    2    0  501  0.29819029162E+02  0.10197974256E+03 -0.43978489275E+03  0.48427431275E+03  0.17268994095E+03 0.  0.
        -24    2    5    5    0    0 -0.23480658737E+01  0.12340067251E+02 -0.86251470721E+02  0.11810773333E+03  0.79701504361E+02 0.  0.
          5    1    3    3  502    0 -0.62847820221E+02  0.24090652174E+01  0.24587229527E+02  0.67692495578E+02  0.47000000000E+01 0. -1.
        -11    1    4    4    0    0  0.30634127422E+01 -0.69533982409E+02  0.23399601120E+02  0.73429561757E+02  0.00000000000E+00 0.  1.
         12    1    4    4    0    0  0.29965378318E+02 -0.34854825370E+02  0.10087239610E+03  0.11085135563E+03  0.00000000000E+00 0. -1.
         -5    1    5    5    0  501  0.32167095035E+02  0.89639675310E+02 -0.35353342203E+03  0.36616657942E+03  0.47000000000E+01 0.  1.
         11    1    6    6    0    0 -0.16855918558E+02  0.43119119196E+02 -0.55175566418E+02  0.72025853415E+02  0.00000000000E+00 0. -1.
        -12    1    6    6    0    0  0.14507852685E+02 -0.30779051944E+02 -0.31075904303E+02  0.46081879913E+02  0.00000000000E+00 0.  1.
</event>
<event>
12    1  0.1345781E-002  0.2063306E+03  0.7818608E-02  0.1144505E+00
          1   -1    0    0  502    0  0.00000000000E+00  0.00000000000E+00  0.64403550777E+03  0.64403550777E+03  0.00000000000E+00 0.  1.
         -1   -1    0    0    0  501 -0.00000000000E+00 -0.00000000000E+00 -0.82595824335E+02  0.82595824335E+02  0.00000000000E+00 0. -1.
          6    2    1    2  502    0 -0.74084757155E+02 -0.88062289341E+02  0.11836734852E+03  0.23787249387E+03  0.17125704685E+03 0.  0.
         24    2    3    3    0    0 -0.10902892162E+03 -0.41157463218E+02  0.10843255170E+03  0.17835823061E+03  0.80453698665E+02 0.  0.
         -6    2    1    2    0  501  0.74084757155E+02  0.88062289341E+02  0.44307233491E+03  0.48875883823E+03  0.17125591943E+03 0.  0.
        -24    2    5    5    0    0  0.15709666706E+02  0.10692513978E+03  0.22872519598E+03  0.26575604839E+03  0.81432688973E+02 0.  0.
          5    1    3    3  502    0  0.34944164464E+02 -0.46904826123E+02  0.99347968165E+01  0.59514263261E+02  0.47000000000E+01 0. -1.
        -11    1    4    4    0    0 -0.63272762746E+02 -0.45885201378E+02  0.10678023825E+03  0.13232880825E+03  0.00000000000E+00 0.  1.
         12    1    4    4    0    0 -0.45756158873E+02  0.47277381604E+01  0.16523134480E+01  0.46029422358E+02  0.00000000000E+00 0. -1.
         -5    1    5    5    0  501  0.58375090449E+02 -0.18862850436E+02  0.21434713893E+03  0.22300278984E+03  0.47000000000E+01 0.  1.
         13    1    6    6    0    0  0.10127050682E+02  0.10597734006E+02 -0.28052853432E+01  0.14924434577E+02  0.00000000000E+00 0. -1.
        -14    1    6    6    0    0  0.55826160238E+01  0.96327405771E+02  0.23153048133E+03  0.25083161381E+03  0.00000000000E+00 0.  1.
</event>
<event>
12    1  0.1345781E-002  0.1792950E+03  0.7818608E-02  0.1168487E+00
         -2   -1    0    0    0  501 -0.00000000000E+00  0.00000000000E+00  0.15295221899E+03  0.15295221899E+03  0.00000000000E+00 0. -1.
          2   -1    0    0  502    0  0.00000000000E+00 -0.00000000000E+00 -0.52217053691E+03  0.52217053691E+03  0.00000000000E+00 0.  1.
          6    2    1    2  502    0 -0.49059954470E+02 -0.11720996390E+02  0.76409500458E+02  0.19469637961E+03  0.17182551494E+03 0.  0.
         24    2    3    3    0    0  0.13520464756E+02 -0.51823007776E+02  0.11579811981E+02  0.95957032360E+02  0.78773300755E+02 0.  0.
         -6    2    1    2    0  501  0.49059954470E+02  0.11720996390E+02 -0.44562781838E+03  0.48042637629E+03  0.17228200612E+03 0.  0.
        -24    2    5    5    0    0  0.13720423187E+02 -0.52474079430E+02 -0.17517490224E+03  0.20018226828E+03  0.80280228769E+02 0.  0.
          5    1    3    3  502    0 -0.62580419226E+02  0.40102011385E+02  0.64829688477E+02  0.98739347252E+02  0.47000000000E+01 0. -1.
        -11    1    4    4    0    0  0.28262088178E+02 -0.16886999247E+02 -0.26466052224E+02  0.42241783723E+02  0.00000000000E+00 0.  1.
         12    1    4    4    0    0 -0.14741623422E+02 -0.34936008528E+02  0.38045864206E+02  0.53715248637E+02  0.00000000000E+00 0. -1.
         -5    1    5    5    0  501  0.35339531284E+02  0.64195075821E+02 -0.27045291614E+03  0.28024410802E+03  0.47000000000E+01 0.  1.
         11    1    6    6    0    0 -0.27624842932E+02 -0.16381653559E+02 -0.26293029765E+02  0.41506793836E+02  0.00000000000E+00 0. -1.
        -12    1    6    6    0    0  0.41345266119E+02 -0.36092425872E+02 -0.14888187248E+03  0.15867547444E+03  0.00000000000E+00 0.  1.
</event>
<event>
12    1  0.1345781E-002  0.1943276E+03  0.7818608E-02  0.1154615E+00
          2   -1    0    0  502    0  0.00000000000E+00  0.00000000000E+00  0.89464414049E+03  0.89464414049E+03  0.00000000000E+00 0. -1.
         -2   -1    0    0    0  501 -0.00000000000E+00 -0.00000000000E+00 -0.50762704039E+02  0.50762704039E+02  0.00000000000E+00 0.  1.
          6    2    1    2  502    0 -0.59335237666E+02  0.56033854564E+02  0.62206088816E+03  0.65276144202E+03  0.18021456191E+03 0.  0.
         24    2    3    3    0    0 -0.83139659060E+02  0.39668844254E+02  0.60855810094E+03  0.62052979138E+03  0.78920464079E+02 0.  0.
         -6    2    1    2    0  501  0.59335237666E+02 -0.56033854564E+02  0.22182054830E+03  0.29264540252E+03  0.17255872241E+03 0.  0.
        -24    2    5    5    0    0  0.93252187185E+02 -0.25925508177E+02  0.92928567259E+02  0.15592633010E+03  0.79430469063E+02 0.  0.
          5    1    3    3  502    0  0.23804421395E+02  0.16365010309E+02  0.13502787211E+02  0.32231650638E+02  0.47000000000E+01 0. -1.
        -11    1    4    4    0    0  0.15135863314E+02  0.23628422639E+01  0.10549723454E+03  0.10660367666E+03  0.00000000000E+00 0.  1.
         12    1    4    4    0    0 -0.98275522375E+02  0.37306001990E+02  0.50306086640E+03  0.51392611472E+03  0.00000000000E+00 0. -1.
         -5    1    5    5    0  501 -0.33916949520E+02 -0.30108346386E+02  0.12889198104E+03  0.13671907242E+03  0.47000000000E+01 0.  1.
         11    1    6    6    0    0 -0.35458666978E+01 -0.10627801075E+01  0.44886246014E+02  0.45038625128E+02  0.00000000000E+00 0. -1.
        -12    1    6    6    0    0  0.96798053883E+02 -0.24862728070E+02  0.48042321245E+02  0.11088770497E+03  0.00000000000E+00 0.  1.
</event>
<event>
12    1  0.1345781E-002  0.2074467E+03  0.7818608E-02  0.1143604E+00
          2   -1    0    0  502    0  0.00000000000E+00  0.00000000000E+00  0.38300342451E+03  0.38300342451E+03  0.00000000000E+00 0.  1.
         -2   -1    0    0    0  501 -0.00000000000E+00 -0.00000000000E+00 -0.15357328040E+03  0.15357328040E+03  0.00000000000E+00 0. -1.
          6    2    1    2  502    0  0.98698937993E+02 -0.40997223206E+02  0.25179854163E+03  0.32347973138E+03  0.17266840585E+03 0.  0.
         24    2    3    3    0    0  0.72971453043E+02  0.22166677803E+02  0.22454472141E+03  0.24988324649E+03  0.78772523105E+02 0.  0.
         -6    2    1    2    0  501 -0.98698937993E+02  0.40997223206E+02 -0.22368397514E+02  0.21309697352E+03  0.18299650883E+03 0.  0.
        -24    2    5    5    0    0 -0.21020814102E+02  0.64986045457E+02 -0.63043021649E+02  0.12207022156E+03  0.79130624184E+02 0.  0.
          5    1    3    3  502    0  0.25727484949E+02 -0.63163901008E+02  0.27253820213E+02  0.73596484893E+02  0.47000000000E+01 0. -1.
        -13    1    4    4    0    0  0.37599585639E+02 -0.27838912755E+02  0.76551762219E+02  0.89715696522E+02  0.00000000000E+00 0.  1.
         14    1    4    4    0    0  0.35371867405E+02  0.50005590558E+02  0.14799295919E+03  0.16016754997E+03  0.00000000000E+00 0. -1.
         -5    1    5    5    0  501 -0.77678123890E+02 -0.23988822251E+02  0.40674624135E+02  0.91026751961E+02  0.47000000000E+01 0.  1.
         11    1    6    6    0    0 -0.48399342015E+02  0.57182810208E+02 -0.53449721894E+02  0.92028489401E+02  0.00000000000E+00 0. -1.
        -12    1    6    6    0    0  0.27378527913E+02  0.78032352486E+01 -0.95932997554E+01  0.30041732161E+02  0.00000000000E+00 0.  1.
</event>
<event>
12    1  0.1345781E-002  0.1729287E+03  0.7818608E-02  0.1174828E+00
          1   -1    0    0  502    0  0.00000000000E+00  0.00000000000E+00  0.98849648962E+03  0.98849648962E+03  0.00000000000E+00 0. -1.
         -1   -1    0    0    0  501 -0.00000000000E+00 -0.00000000000E+00 -0.40754573055E+02  0.40754573055E+02  0.00000000000E+00 0.  1.
          6    2    1    2  502    0  0.19086079389E+02  0.97196668548E+01  0.21404604435E+03  0.27560980729E+03  0.17229714572E+03 0.  0.
         24    2    3    3    0    0  0.35401395160E+02 -0.45324658567E+02  0.66780790507E+02  0.11747944247E+03  0.77679868487E+02 0.  0.
         -6    2    1    2    0  501 -0.19086079389E+02 -0.97196668548E+01  0.73369587222E+03  0.75364125539E+03  0.17089984951E+03 0.  0.
        -24    2    5    5    0    0  0.30718888961E+02 -0.76731178854E+00  0.65144443735E+03  0.65695584764E+03  0.79163703103E+02 0.  0.
          5    1    3    3  502    0 -0.16315315771E+02  0.55044325422E+02  0.14726525384E+03  0.15813036482E+03  0.47000000000E+01 0. -1.
        -11    1    4    4    0    0 -0.12144053642E+02 -0.10857210777E+02 -0.11266802438E+02  0.19806511604E+02  0.00000000000E+00 0.  1.
         12    1    4    4    0    0  0.47545448802E+02 -0.34467447790E+02  0.78047592945E+02  0.97672930863E+02  0.00000000000E+00 0. -1.
         -5    1    5    5    0  501 -0.49804968349E+02 -0.89523550663E+01  0.82251434873E+02  0.96685407752E+02  0.47000000000E+01 0.  1.
         11    1    6    6    0    0  0.38961883380E+02 -0.30126144843E+02  0.50339812078E+03  0.50580162215E+03  0.00000000000E+00 0. -1.
        -12    1    6    6    0    0 -0.82429944190E+01  0.29358833055E+02  0.14804631656E+03  0.15115422549E+03  0.00000000000E+00 0.  1.
</event>
<event>
12    1  0.1345781E-002  0.1806528E+03  0.7818608E-02  0.1167173E+00
          1   -1    0    0  502    0  0.00000000000E+00  0.00000000000E+00  0.38129876305E+03  0.38129876305E+03  0.00000000000E+00 0.  1.
         -1   -1    0    0    0  501 -0.00000000000E+00 -0.00000000000E+00 -0.90127922984E+02  0.90127922984E+02  0.00000000000E+00 0. -1.
          6    2    1    2  502    0 -0.40877344695E+02 -0.33769145471E+02  0.92153270262E+02  0.20216016638E+03  0.17194532607E+03 0.  0.
         24    2    3    3    0    0 -0.59674247479E+02  0.17963929625E+02  0.10497373898E+03  0.14544959390E+03  0.79071991951E+02 0.  0.
         -6    2    1    2    0  501  0.40877344695E+02  0.33769145471E+02  0.19901756980E+03  0.26926651965E+03  0.17345072216E+03 0.  0.
        -24    2    5    5    0    0  0.31486301265E+02 -0.39317986645E+02  0.57387729341E+02  0.10954481703E+03  0.78545682367E+02 0.  0.
          5    1    3    3  502    0  0.18796902784E+02 -0.51733075096E+02 -0.12820468717E+02  0.56710572482E+02  0.47000000000E+01 0. -1.
        -11    1    4    4    0    0 -0.40503187765E+02  0.26825139797E+02  0.11288643835E+03  0.12289607117E+03  0.00000000000E+00 0.  1.
         12    1    4    4    0    0 -0.19171059714E+02 -0.88612101724E+01 -0.79126993751E+01  0.22553522733E+02  0.00000000000E+00 0. -1.
         -5    1    5    5    0  501  0.93910434300E+01  0.73087132116E+02  0.14162984046E+03  0.15972170262E+03  0.47000000000E+01 0.  1.
         13    1    6    6    0    0  0.19427118406E+02 -0.54121345134E+02  0.98817211247E+01  0.58345362636E+02  0.00000000000E+00 0. -1.
        -14    1    6    6    0    0  0.12059182859E+02  0.14803358490E+02  0.47506008217E+02  0.51199454396E+02  0.00000000000E+00 0.  1.
</event>
<event>
12    1  0.1345781E-002  0.1819641E+03  0.7818608E-02  0.1165916E+00
         -2   -1    0    0    0  501 -0.00000000000E+00  0.00000000000E+00  0.37104238972E+02  0.37104238972E+02  0.00000000000E+00 0.  1.
          2   -1    0    0  502    0  0.00000000000E+00 -0.00000000000E+00 -0.90083501915E+03  0.90083501915E+03  0.00000000000E+00 0. -1.
          6    2    1    2  502    0  0.60146875949E+02 -0.60930965548E+01 -0.47568074238E+03  0.50905485623E+03  0.17090905613E+03 0.  0.
         24    2    3    3    0    0  0.53770562221E+02 -0.14489753745E+02 -0.11486366343E+03  0.14805317245E+03  0.74999029133E+02 0.  0.
         -6    2    1    2    0  501 -0.60146875949E+02  0.60930965548E+01 -0.38805003780E+03  0.42888440189E+03  0.17234913937E+03 0.  0.
        -24    2    5    5    0    0 -0.34024834609E+02 -0.96151271109E+01 -0.38963135303E+03  0.39800237002E+03  0.73096889413E+02 0.  0.
          5    1    3    3  502    0  0.63763137281E+01  0.83966571907E+01 -0.36081707895E+03  0.36100168377E+03  0.47000000000E+01 0. -1.
        -11    1    4    4    0    0 -0.89550377421E+01  0.19892744082E+02 -0.29265471992E+02  0.36501805695E+02  0.00000000000E+00 0.  1.
         12    1    4    4    0    0  0.62725599963E+02 -0.34382497828E+02 -0.85598191441E+02  0.11155136676E+03  0.00000000000E+00 0. -1.
         -5    1    5    5    0  501 -0.26122041340E+02  0.15708223666E+02  0.15813152310E+01  0.30882031869E+02  0.47000000000E+01 0.  1.
         11    1    6    6    0    0 -0.25650063805E+02 -0.35695276558E+02 -0.32274535460E+03  0.32572479558E+03  0.00000000000E+00 0. -1.
        -12    1    6    6    0    0 -0.83747708042E+01  0.26080149447E+02 -0.66885998431E+02  0.72277574443E+02  0.00000000000E+00 0.  1.
</event>
<event>
12    1  0.1345781E-002  0.1979634E+03  0.7818608E-02  0.1151469E+00
         -4   -1    0    0    0  501 -0.00000000000E+00  0.00000000000E+00  0.99635219555E+03  0.99635219555E+03  0.00000000000E+00 0.  1.
          4   -1    0    0  502    0  0.00000000000E+00 -0.00000000000E+00 -0.39415165325E+02  0.39415165325E+02  0.00000000000E+00 0. -1.
          6    2    1    2  502    0  0.54292879786E+02  0.81693280992E+02  0.49982255062E+03  0.53726771612E+03  0.17091666892E+03 0.  0.
         24    2    3    3    0    0 -0.20172793548E+02  0.22775609343E+02  0.13574241979E+03  0.16097944869E+03  0.81010544921E+02 0.  0.
         -6    2    1    2    0  501 -0.54292879786E+02 -0.81693280992E+02  0.45711447960E+03  0.49849964476E+03  0.17299346638E+03 0.  0.
        -24    2    5    5    0    0 -0.26650624924E+01 -0.90434415219E+02  0.17825230356E+03  0.21472501205E+03  0.78405746341E+02 0.  0.
          5    1    3    3  502    0  0.74465673334E+02  0.58917671649E+02  0.36408013083E+03  0.37628826743E+03  0.47000000000E+01 0. -1.
        -11    1    4    4    0    0 -0.16899449030E+02  0.42517937792E+02  0.13316067343E+03  0.14080174487E+03  0.00000000000E+00 0.  1.
         12    1    4    4    0    0 -0.32733445182E+01 -0.19742328449E+02  0.25817463631E+01  0.20177703814E+02  0.00000000000E+00 0. -1.
         -5    1    5    5    0  501 -0.51627817293E+02  0.87411342268E+01  0.27886217604E+03  0.28377463271E+03  0.47000000000E+01 0.  1.
         11    1    6    6    0    0 -0.10058592567E+02  0.11788769039E+02  0.37807012234E+02  0.40859766690E+02  0.00000000000E+00 0. -1.
        -12    1    6    6    0    0  0.73935300750E+01 -0.10222318426E+03  0.14044529133E+03  0.17386524536E+03  0.00000000000E+00 0.  1.
</event>
<event>
12    1  0.1345781E-002  0.2092425E+03  0.7818608E-02  0.1142167E+00
         -1   -1    0    0    0  501 -0.00000000000E+00  0.00000000000E+00  0.47928616856E+03  0.47928616856E+03  0.00000000000E+00 0. -1.
          1   -1    0    0  502    0  0.00000000000E+00 -0.00000000000E+00 -0.12637958830E+03  0.12637958830E+03  0.00000000000E+00 0.  1.
          6    2    1    2  502    0  0.63740289545E+02 -0.10015857040E+03  0.17381857012E+02  0.21055680702E+03  0.17302449622E+03 0.  0.
         24    2    3    3    0    0  0.72240351113E+02 -0.76776657505E+01 -0.19679977804E+02  0.11045366835E+03  0.80839943372E+02 0.  0.
         -6    2    1    2    0  501 -0.63740289545E+02  0.10015857040E+03  0.33552472324E+03  0.39510894984E+03  0.17157994813E+03 0.  0.
        -24    2    5    5    0    0  0.19963102558E+02  0.78744313194E+02  0.13527002587E+03  0.17696023432E+03  0.80110875100E+02 0.  0.
          5    1    3    3  502    0 -0.85000615676E+01 -0.92480904654E+02  0.37061834817E+02  0.10010313867E+03  0.47000000000E+01 0. -1.
        -11    1    4    4    0    0  0.76373058796E+02 -0.29100993006E+02 -0.10069201336E+01  0.81735706958E+02  0.00000000000E+00 0.  1.
         12    1    4    4    0    0 -0.41327076833E+01  0.21423327255E+02 -0.18673057671E+02  0.28717961388E+02  0.00000000000E+00 0. -1.
         -5    1    5    5    0  501 -0.83703392103E+02  0.21414257210E+02  0.20025469737E+03  0.21814871552E+03  0.47000000000E+01 0.  1.
         13    1    6    6    0    0  0.20990028225E+01  0.72335054012E+02  0.13982573523E+03  0.15744205945E+03  0.00000000000E+00 0. -1.
        -14    1    6    6    0    0  0.17864099736E+02  0.64092591820E+01 -0.45557093596E+01  0.19518174874E+02  0.00000000000E+00 0.  1.
</event>
<event>
12    1  0.1345781E-002  0.1943345E+03  0.7818608E-02  0.1154609E+00
          1   -1    0    0  502    0  0.00000000000E+00  0.00000000000E+00  0.61981972293E+03  0.61981972293E+03  0.00000000000E+00 0. -1.
         -1   -1    0    0    0  501 -0.00000000000E+00 -0.00000000000E+00 -0.63921403902E+02  0.63921403902E+02  0.00000000000E+00 0.  1.
          6    2    1    2  502    0 -0.77104393980E+02 -0.14065834561E+02  0.34636851957E+03  0.39531875078E+03  0.17367448890E+03 0.  0.
         24    2    3    3    0    0 -0.20854010667E+02  0.43636064591E+02  0.97652362897E+02  0.13383178862E+03  0.77691490988E+02 0.  0.
         -6    2    1    2    0  501  0.77104393980E+02  0.14065834561E+02  0.20952979946E+03  0.28842237605E+03  0.18204888045E+03 0.  0.
        -24    2    5    5    0    0  0.79948365366E+02  0.27852265363E+02  0.23325870590E+03  0.26043479222E+03  0.79051674919E+02 0.  0.
          5    1    3    3  502    0 -0.56250383313E+02 -0.57701899153E+02  0.24871615667E+03  0.26148696216E+03  0.47000000000E+01 0. -1.
        -11    1    4    4    0    0 -0.43069457665E+02  0.50268338120E+02  0.83921790942E+02  0.10688662683E+03  0.00000000000E+00 0.  1.
         12    1    4    4    0    0  0.22215446998E+02 -0.66322735289E+01  0.13730571954E+02  0.26945161786E+02  0.00000000000E+00 0. -1.
         -5    1    5    5    0  501 -0.28439713853E+01 -0.13786430801E+02 -0.23728906448E+02  0.27987583831E+02  0.47000000000E+01 0.  1.
         13    1    6    6    0    0 -0.13735128760E+02  0.83652541814E+01  0.64105269058E+02  0.66091729896E+02  0.00000000000E+00 0. -1.
        -14    1    6    6    0    0  0.93683494126E+02  0.19487011181E+02  0.16915343685E+03  0.19434306232E+03  0.00000000000E+00 0.  1.
</event>
<event>
12    1  0.1345781E-002  0.1948338E+03  0.7818608E-02  0.1154172E+00
          2   -1    0    0  502    0  0.00000000000E+00  0.00000000000E+00  0.20323335326E+03  0.20323335326E+03  0.00000000000E+00 0. -1.
         -2   -1    0    0    0  501 -0.00000000000E+00 -0.00000000000E+00 -0.28023475577E+03  0.28023475577E+03  0.00000000000E+00 0.  1.
          6    2    1    2  502    0  0.74797670968E+02 -0.49719278560E+02  0.10116775652E+03  0.21903897940E+03  0.17226857314E+03 0.  0.
         24    2    3    3    0    0 -0.68848981879E+01 -0.33711649203E+02  0.10723489784E+03  0.13544958710E+03  0.75255499571E+02 0.  0.
         -6    2    1    2    0  501 -0.74797670968E+02  0.49719278560E+02 -0.17816915903E+03  0.26442912962E+03  0.17352756876E+03 0.  0.
        -24    2    5    5    0    0  0.25954368709E+02  0.49897636600E+01 -0.86857443036E+02  0.12121033728E+03  0.80306932801E+02 0.  0.
          5    1    3    3  502    0  0.81682569156E+02 -0.16007629357E+02 -0.60671413110E+01  0.83589392301E+02  0.47000000000E+01 0. -1.
        -11    1    4    4    0    0 -0.15787320270E+02  0.15904097770E+02  0.73811488224E+01  0.23593667903E+02  0.00000000000E+00 0.  1.
         12    1    4    4    0    0  0.89024220824E+01 -0.49615746973E+02  0.99853749013E+02  0.11185591919E+03  0.00000000000E+00 0. -1.
         -5    1    5    5    0  501 -0.10075203968E+03  0.44729514900E+02 -0.91311715998E+02  0.14321879235E+03  0.47000000000E+01 0.  1.
         13    1    6    6    0    0 -0.21719727191E+02 -0.46524202418E+01 -0.63461654657E+02  0.67236695154E+02  0.00000000000E+00 0. -1.
        -14    1    6    6    0    0  0.47674095900E+02  0.96421839018E+01 -0.23395788379E+02  0.53973642125E+02  0.00000000000E+00 0.  1.
</event>
<event>
12    1  0.1345781E-002  0.2306003E+03  0.7818608E-02  0.1126218E+00
         -1   -1    0    0    0  501 -0.00000000000E+00  0.00000000000E+00  0.51746024338E+03  0.51746024338E+03  0.00000000000E+00 0.  1.
          1   -1    0    0  502    0  0.00000000000E+00 -0.00000000000E+00 -0.10301711961E+03  0.10301711961E+03  0.00000000000E+00 0. -1.
          6    2    1    2  502    0 -0.70052081929E+02  0.13601175364E+03  0.22281385041E+03  0.32084493816E+03  0.17288427082E+03 0.  0.
         24    2    3    3    0    0 -0.37582569071E+02  0.16566912977E+03  0.17287495079E+03  0.25413802009E+03  0.76430848403E+02 0.  0.
         -6    2    1    2    0  501  0.70052081929E+02 -0.13601175364E+03  0.19162927336E+03  0.29963242483E+03  0.17219558730E+03 0.  0.
        -24    2    5    5    0    0  0.36730455183E+02 -0.34249407726E+02  0.16524433013E+02  0.94328501414E+02  0.78119530369E+02 0.  0.
          5    1    3    3  502    0 -0.32469512858E+02 -0.29657376122E+02  0.49938899618E+02  0.66706918073E+02  0.47000000000E+01 0. -1.
        -11    1    4    4    0    0 -0.48775992540E+02  0.13400308164E+03  0.16773437196E+03  0.22016072055E+03  0.00000000000E+00 0.  1.
         12    1    4    4    0    0  0.11193423469E+02  0.31666048128E+02  0.51405788295E+01  0.33977299536E+02  0.00000000000E+00 0. -1.
         -5    1    5    5    0  501  0.33321626747E+02 -0.10176234592E+03  0.17510484035E+03  0.20530392341E+03  0.47000000000E+01 0.  1.
         13    1    6    6    0    0 -0.14753977252E+02 -0.38372136216E+02  0.50479984658E+01  0.41419596462E+02  0.00000000000E+00 0. -1.
        -14    1    6    6    0    0  0.51484432435E+02  0.41227284897E+01  0.11476434547E+02  0.52908904952E+02  0.00000000000E+00 0.  1.
</event>
<event>
12    1  0.1345781E-002  0.2030092E+03  0.7818608E-02  0.1147225E+00
         -1   -1    0    0    0  501 -0.00000000000E+00  0.00000000000E+00  0.69148164263E+02  0.69148164263E+02  0.00000000000E+00 0. -1.
          1   -1    0    0  502    0  0.00000000000E+00 -0.00000000000E+00 -0.73502632477E+03  0.73502632477E+03  0.00000000000E+00 0.  1.
          6    2    1    2  502    0 -0.10411230146E+03  0.24703058572E+02 -0.50597130081E+03  0.54467366426E+03  0.17091761431E+03 0.  0.
         24    2    3    3    0    0 -0.95011100152E+00 -0.15337744030E+02 -0.12592343614E+03  0.14881488533E+03  0.77801087560E+02 0.  0.
         -6    2    1    2    0  501  0.10411230146E+03 -0.24703058572E+02 -0.15990685970E+03  0.25950082477E+03  0.17412886567E+03 0.  0.
        -24    2    5    5    0    0  0.47050231185E+01  0.34670900300E+02 -0.71164549473E+02  0.11354068773E+03  0.81258144817E+02 0.  0.
          5    1    3    3  502    0 -0.10316219046E+03  0.40040802602E+02 -0.38004786467E+03  0.39585877893E+03  0.47000000000E+01 0. -1.
        -11    1    4    4    0    0  0.77590095867E+01 -0.88974297151E+00 -0.13097286355E+03  0.13120550621E+03  0.00000000000E+00 0.  1.
         12    1    4    4    0    0 -0.87091205882E+01 -0.14448001058E+02  0.50494274145E+01  0.17609379126E+02  0.00000000000E+00 0. -1.
         -5    1    5    5    0  501  0.99407278342E+02 -0.59373958872E+02 -0.88742310225E+02  0.14596013704E+03  0.47000000000E+01 0.  1.
         11    1    6    6    0    0  0.21173773424E+02 -0.35172434053E+01  0.89655905376E+01  0.23261158523E+02  0.00000000000E+00 0. -1.
        -12    1    6    6    0    0 -0.16468750305E+02  0.38188143705E+02 -0.80130140010E+02  0.90279529210E+02  0.00000000000E+00 0.  1.
</event>
<event>
12    1  0.1345781E-002  0.1735343E+03  0.7818608E-02  0.1174211E+00
         -1   -1    0    0    0  501 -0.00000000000E+00  0.00000000000E+00  0.12701074329E+02  0.12701074329E+02  0.00000000000E+00 0. -1.
          1   -1    0    0  502    0  0.00000000000E+00 -0.00000000000E+00 -0.24117035625E+04  0.24117035625E+04  0.00000000000E+00 0.  1.
          6    2    1    2  502    0  0.16835499393E+02 -0.13056958412E+02 -0.13548692280E+04  0.13658979116E+04  0.17190858533E+03 0.  0.
         24    2    3    3    0    0  0.94503685984E+00 -0.34566249036E+02 -0.13140686705E+04  0.13168884036E+04  0.78885220576E+02 0.  0.
         -6    2    1    2    0  501 -0.16835499393E+02  0.13056958412E+02 -0.10441332602E+04  0.10585067253E+04  0.17253493609E+03 0.  0.
        -24    2    5    5    0    0  0.12198206247E+02  0.17084731731E+02 -0.23895808270E+03  0.25278448064E+03  0.79739225421E+02 0.  0.
          5    1    3    3  502    0  0.15890462533E+02  0.21509290624E+02 -0.40800557449E+02  0.49009507963E+02  0.47000000000E+01 0. -1.
        -11    1    4    4    0    0 -0.16316092854E+02 -0.91537476213E+01 -0.70492246047E+02  0.72932590344E+02  0.00000000000E+00 0.  1.
         12    1    4    4    0    0  0.17261129714E+02 -0.25412501415E+02 -0.12435764245E+04  0.12439558132E+04  0.00000000000E+00 0. -1.
         -5    1    5    5    0  501 -0.29033705640E+02 -0.40277733185E+01 -0.80517517749E+03  0.80572224462E+03  0.47000000000E+01 0.  1.
         13    1    6    6    0    0  0.45415326440E+02  0.89974557596E+01 -0.10943749731E+03  0.11882790877E+03  0.00000000000E+00 0. -1.
        -14    1    6    6    0    0 -0.33217120193E+02  0.80872759710E+01 -0.12952058540E+03  0.13395657187E+03  0.00000000000E+00 0.  1.
</event>
<event>
12    1  0.1345781E-002  0.1823733E+03  0.7818608E-02  0.1165526E+00
          1   -1    0    0  502    0  0.00000000000E+00  0.00000000000E+00  0.14118584000E+04  0.14118584000E+04  0.00000000000E+00 0.  1.
         -1   -1    0    0    0  501 -0.00000000000E+00 -0.00000000000E+00 -0.24629363155E+02  0.24629363155E+02  0.00000000000E+00 0. -1.
          6    2    1    2  502    0  0.59838240969E+02 -0.73465384033E+01  0.84463916595E+03  0.86417364363E+03  0.17247080614E+03 0.  0.
         24    2    3    3    0    0  0.73966980228E+01 -0.49983166781E+02  0.69408600660E+03  0.69907869732E+03  0.66352184460E+02 0.  0.
         -6    2    1    2    0  501 -0.59838240969E+02  0.73465384033E+01  0.54258987085E+03  0.57231411949E+03  0.17177047681E+03 0.  0.
        -24    2    5    5    0    0 -0.66148927030E+02 -0.41676738013E+02  0.22872899203E+03  0.25455029580E+03  0.79788910623E+02 0.  0.
          5    1    3    3  502    0  0.52441542947E+02  0.42636628378E+02  0.15055315935E+03  0.16509494631E+03  0.47000000000E+01 0. -1.
        -13    1    4    4    0    0  0.17355732425E+02 -0.29887500865E+02  0.63403240242E+03  0.63497367778E+03  0.00000000000E+00 0.  1.
         14    1    4    4    0    0 -0.99590344022E+01 -0.20095665917E+02  0.60053604181E+02  0.64105019538E+02  0.00000000000E+00 0. -1.
         -5    1    5    5    0  501  0.63106860610E+01  0.49023276417E+02  0.31386087882E+03  0.31776382369E+03  0.47000000000E+01 0.  1.
         11    1    6    6    0    0  0.22339675514E+01 -0.35479547108E+02  0.38961517740E+02  0.52742665259E+02  0.00000000000E+00 0. -1.
        -12    1    6    6    0    0 -0.68382894582E+02 -0.61971909054E+01  0.18976747429E+03  0.20180763054E+03  0.00000000000E+00 0.  1.
</event>
<event>
12    1  0.1345781E-002  0.3152427E+03  0.7818608E-02  0.1077860E+00
          1   -1    0    0  502    0  0.00000000000E+00  0.00000000000E+00  0.66149298774E+02  0.66149298774E+02  0.00000000000E+00 0.  1.
         -1   -1    0    0    0  501 -0.00000000000E+00 -0.00000000000E+00 -0.20728501392E+04  0.20728501392E+04  0.00000000000E+00 0. -1.
          6    2    1    2  502    0  0.22449366442E+02  0.26318452302E+03 -0.44169021176E+03  0.54250568634E+03  0.17161616862E+03 0.  0.
         24    2    3    3    0    0  0.72965853685E+02  0.12281005415E+03 -0.26545487894E+03  0.31155571442E+03  0.78704162730E+02 0.  0.
         -6    2    1    2    0  501 -0.22449366442E+02 -0.26318452302E+03 -0.15650106287E+04  0.15964937516E+04  0.17252235788E+03 0.  0.
        -24    2    5    5    0    0  0.41236041478E+02 -0.10058456641E+03 -0.84802841195E+03  0.85853700076E+03  0.78204399443E+02 0.  0.
          5    1    3    3  502    0 -0.50516487243E+02  0.14037446887E+03 -0.17623533282E+03  0.23094997191E+03  0.47000000000E+01 0. -1.
        -13    1    4    4    0    0  0.32091993959E+02  0.22920857282E+02 -0.21786227922E+02  0.45054428216E+02  0.00000000000E+00 0.  1.
         14    1    4    4    0    0  0.40873859726E+02  0.99889196871E+02 -0.24366865102E+03  0.26650128621E+03  0.00000000000E+00 0. -1.
         -5    1    5    5    0  501 -0.63685407920E+02 -0.16259995661E+03 -0.71698221671E+03  0.73795675087E+03  0.47000000000E+01 0.  1.
         11    1    6    6    0    0  0.53555841740E+02 -0.10703536549E+03 -0.77642175418E+03  0.78559247578E+03  0.00000000000E+00 0. -1.
        -12    1    6    6    0    0 -0.12319800262E+02  0.64507990794E+01 -0.71606657771E+02  0.72944524979E+02  0.00000000000E+00 0.  1.
</event>
<event>
12    1  0.1345781E-002  0.1945715E+03  0.7818608E-02  0.1154402E+00
         -2   -1    0    0    0  501 -0.00000000000E+00  0.00000000000E+00  0.10038264237E+04  0.10038264237E+04  0.00000000000E+00 0.  1.
          2   -1    0    0  502    0  0.00000000000E+00 -0.00000000000E+00 -0.38313430207E+02  0.38313430207E+02  0.00000000000E+00 0. -1.
          6    2    1    2  502    0 -0.87701994078E+02  0.19691671945E+02  0.41481701654E+03  0.45769425805E+03  0.17126434227E+03 0.  0.
         24    2    3    3    0    0 -0.34137197267E+02 -0.38017764212E+02  0.31979014939E+03  0.33419623394E+03  0.82526871384E+02 0.  0.
         -6    2    1    2    0  501  0.87701994078E+02 -0.19691671945E+02  0.55069597700E+03  0.58444559591E+03  0.17387119881E+03 0.  0.
        -24    2    5    5    0    0 -0.64283277832E+01 -0.48442336560E+02  0.32459586779E+03  0.33780726232E+03  0.79770205702E+02 0.  0.
          5    1    3    3  502    0 -0.53564796811E+02  0.57709436157E+02  0.95026867150E+02  0.12349802411E+03  0.47000000000E+01 0. -1.
        -13    1    4    4    0    0 -0.49709956972E+02 -0.18793892344E+01  0.10969343984E+03  0.12044609860E+03  0.00000000000E+00 0.  1.
         14    1    4    4    0    0  0.15572759705E+02 -0.36138374977E+02  0.21009670955E+03  0.21375013533E+03  0.00000000000E+00 0. -1.
         -5    1    5    5    0  501  0.94130321861E+02  0.28750664614E+02  0.22610010921E+03  0.24663833359E+03  0.47000000000E+01 0.  1.
         13    1    6    6    0    0 -0.22623278242E+02 -0.15833227867E+02  0.29248260520E+02  0.40223930273E+02  0.00000000000E+00 0. -1.
        -14    1    6    6    0    0  0.16194950459E+02 -0.32609108692E+02  0.29534760727E+03  0.29758333205E+03  0.00000000000E+00 0.  1.
</event>
<event>
12    1  0.1345781E-002  0.1937810E+03  0.7818608E-02  0.1155095E+00
          1   -1    0    0  502    0  0.00000000000E+00  0.00000000000E+00  0.12747102097E+03  0.12747102097E+03  0.00000000000E+00 0. -1.
         -1   -1    0    0    0  501 -0.00000000000E+00 -0.00000000000E+00 -0.29911722437E+03  0.29911722437E+03  0.00000000000E+00 0.  1.
          6    2    1    2  502    0 -0.72290354055E+02 -0.66437636225E+02 -0.59618953069E+02  0.20285510688E+03  0.16720023932E+03 0.  0.
         24    2    3    3    0    0  0.19589554570E+02 -0.28963133266E+00 -0.37506397274E+02  0.87405848403E+02  0.76480180203E+02 0.  0.
         -6    2    1    2    0  501  0.72290354055E+02  0.66437636225E+02 -0.11202725034E+03  0.22373313845E+03  0.16693279374E+03 0.  0.
        -24    2    5    5    0    0  0.10722520265E+03  0.49323314558E+02 -0.11728176524E+03  0.18419779250E+03  0.79017598424E+02 0.  0.
          5    1    3    3  502    0 -0.91879908625E+02 -0.66148004892E+02 -0.22112555794E+02  0.11544925848E+03  0.47000000000E+01 0. -1.
        -11    1    4    4    0    0 -0.15086496731E+02 -0.29736948160E+02 -0.13571153427E+02  0.36000898250E+02  0.00000000000E+00 0.  1.
         12    1    4    4    0    0  0.34676051300E+02  0.29447316827E+02 -0.23935243847E+02  0.51404950152E+02  0.00000000000E+00 0. -1.
         -5    1    5    5    0  501 -0.34934848599E+02  0.17114321666E+02  0.52545149037E+01  0.39535345953E+02  0.47000000000E+01 0.  1.
         11    1    6    6    0    0 -0.40551494612E+01 -0.12805734899E+02 -0.18932511638E+02  0.23213596886E+02  0.00000000000E+00 0. -1.
        -12    1    6    6    0    0  0.11128035212E+03  0.62129049457E+02 -0.98349253602E+02  0.16098419561E+03  0.00000000000E+00 0.  1.
</event>
<event>
12    1  0.1345781E-002  0.2115379E+03  0.7818608E-02  0.1140354E+00
         -2   -1    0    0    0  501 -0.00000000000E+00  0.00000000000E+00  0.22271113096E+02  0.22271113096E+02  0.00000000000E+00 0. -1.
          2   -1    0    0  502    0  0.00000000000E+00 -0.00000000000E+00 -0.22541326941E+04  0.22541326941E+04  0.00000000000E+00 0.  1.
          6    2    1    2  502    0  0.48480813977E+02  0.11351662355E+03 -0.73813266460E+03  0.76769101999E+03  0.17109429704E+03 0.  0.
         24    2    3    3    0    0 -0.24365258196E+02  0.10920904437E+03 -0.47662015506E+03  0.49614730690E+03  0.80467985946E+02 0.  0.
         -6    2    1    2    0  501 -0.48480813977E+02 -0.11351662355E+03 -0.14937289164E+04  0.15087127872E+04  0.17248705871E+03 0.  0.
        -24    2    5    5    0    0 -0.62077282240E+02 -0.24577945176E+02 -0.11046735271E+04  0.11093618909E+04  0.76958034440E+02 0.  0.
          5    1    3    3  502    0  0.72846072173E+02  0.43075791778E+01 -0.26151250954E+03  0.27154371309E+03  0.47000000000E+01 0. -1.
        -11    1    4    4    0    0  0.87704626306E+01  0.10368243114E+03 -0.34916478537E+03  0.36433914816E+03  0.00000000000E+00 0.  1.
         12    1    4    4    0    0 -0.33135720827E+02  0.55266132312E+01 -0.12745536969E+03  0.13180815874E+03  0.00000000000E+00 0. -1.
         -5    1    5    5    0  501  0.13596468263E+02 -0.88938678376E+02 -0.38905538924E+03  0.39935089628E+03  0.47000000000E+01 0.  1.
         11    1    6    6    0    0 -0.60423292320E+02 -0.15365365129E+02 -0.41794948822E+03  0.42257406854E+03  0.00000000000E+00 0. -1.
        -12    1    6    6    0    0 -0.16539899200E+01 -0.92125800479E+01 -0.68672403891E+03  0.68678782235E+03  0.00000000000E+00 0.  1.
</event>
<event>
12    1  0.1345781E-002  0.2000650E+03  0.7818608E-02  0.1149684E+00
         -2   -1    0    0    0  501 -0.00000000000E+00  0.00000000000E+00  0.26648812176E+03  0.26648812176E+03  0.00000000000E+00 0.  1.
          2   -1    0    0  502    0  0.00000000000E+00 -0.00000000000E+00 -0.15029345595E+03  0.15029345595E+03  0.00000000000E+00 0. -1.
          6    2    1    2  502    0  0.13143536750E+02  0.10695237533E+03  0.54274822888E+02  0.20973690790E+03  0.17155830201E+03 0.  0.
         24    2    3    3    0    0  0.70531459036E+02  0.85568654269E+02  0.15300922298E+02  0.13699289043E+03  0.78969946798E+02 0.  0.
         -6    2    1    2    0  501 -0.13143536750E+02 -0.10695237533E+03  0.61919842921E+02  0.20704466981E+03  0.16559548666E+03 0.  0.
        -24    2    5    5    0    0 -0.24196861006E+02 -0.59430464090E+02 -0.29100067655E+02  0.10366564802E+03  0.76041334132E+02 0.  0.
          5    1    3    3  502    0 -0.57387922286E+02  0.21383721059E+02  0.38973900590E+02  0.72744017471E+02  0.47000000000E+01 0. -1.
        -13    1    4    4    0    0  0.21494695773E+02  0.33065018038E+02  0.44485256189E+02  0.59449603720E+02  0.00000000000E+00 0.  1.
         14    1    4    4    0    0  0.49036763263E+02  0.52503636231E+02 -0.29184333891E+02  0.77543286708E+02  0.00000000000E+00 0. -1.
         -5    1    5    5    0  501  0.11053324257E+02 -0.47521911238E+02  0.91019910576E+02  0.10337902179E+03  0.47000000000E+01 0.  1.
         11    1    6    6    0    0 -0.14136581436E+02 -0.70294084130E+02 -0.77671837536E+00  0.71705679621E+02  0.00000000000E+00 0. -1.
        -12    1    6    6    0    0 -0.10060279570E+02  0.10863620040E+02 -0.28323349280E+02  0.31959968396E+02  0.00000000000E+00 0.  1.
</event>
<event>
12    1  0.1345781E-002  0.1736772E+03  0.7818608E-02  0.1174066E+00
         -1   -1    0    0    0  501 -0.00000000000E+00  0.00000000000E+00  0.10900682152E+04  0.10900682152E+04  0.00000000000E+00 0.  1.
          1   -1    0    0  502    0  0.00000000000E+00 -0.00000000000E+00 -0.27897240871E+02  0.27897240871E+02  0.00000000000E+00 0. -1.
          6    2    1    2  502    0 -0.28838204573E+02 -0.64220939339E+01  0.58157450798E+03  0.60697267669E+03  0.17121342409E+03 0.  0.
         24    2    3    3    0    0 -0.67426047822E+02 -0.46677212965E+02  0.44047093331E+03  0.45517740326E+03  0.80291912453E+02 0.  0.
         -6    2    1    2    0  501  0.28838204573E+02  0.64220939339E+01  0.48059646640E+03  0.51099277942E+03  0.17107826214E+03 0.  0.
        -24    2    5    5    0    0  0.58672968678E+02 -0.31043534150E+02  0.20667141862E+03  0.23287264669E+03  0.84323045680E+02 0.  0.
          5    1    3    3  502    0  0.38587843249E+02  0.40255119031E+02  0.14110357467E+03  0.15179527344E+03  0.47000000000E+01 0. -1.
        -13    1    4    4    0    0 -0.16933079739E+02 -0.58789704344E+02  0.27621852503E+03  0.28291276411E+03  0.00000000000E+00 0.  1.
         14    1    4    4    0    0 -0.50492968083E+02  0.12112491379E+02  0.16425240829E+03  0.17226463915E+03  0.00000000000E+00 0. -1.
         -5    1    5    5    0  501 -0.29834764105E+02  0.37465628084E+02  0.27392504777E+03  0.27812013274E+03  0.47000000000E+01 0.  1.
         13    1    6    6    0    0  0.76824619217E+02 -0.28209939186E+02  0.19399726654E+03  0.21055346640E+03  0.00000000000E+00 0. -1.
        -14    1    6    6    0    0 -0.18151650539E+02 -0.28335949637E+01  0.12674152081E+02  0.22319180287E+02  0.00000000000E+00 0.  1.
</event>
<event>
12    1  0.1345781E-002  0.1984732E+03  0.7818608E-02  0.1151034E+00
         -2   -1    0    0    0  501 -0.00000000000E+00  0.00000000000E+00  0.24246215812E+02  0.24246215812E+02  0.00000000000E+00 0. -1.
          2   -1    0    0  502    0  0.00000000000E+00 -0.00000000000E+00 -0.16555920281E+04  0.16555920281E+04  0.00000000000E+00 0.  1.
          6    2    1    2  502    0  0.75486356981E+01 -0.99766863827E+02 -0.93466329038E+03  0.95572376034E+03  0.17263264659E+03 0.  0.
         24    2    3    3    0    0  0.41688286631E+02 -0.12775505528E+03 -0.75428173054E+03  0.76995925416E+03  0.76400632460E+02 0.  0.
         -6    2    1    2    0  501 -0.75486356981E+01  0.99766863827E+02 -0.69668252195E+03  0.72411448362E+03  0.17019059896E+03 0.  0.
        -24    2    5    5    0    0 -0.56026967483E+02  0.11005525471E+03 -0.49714294560E+03  0.51845911128E+03  0.79984758163E+02 0.  0.
          5    1    3    3  502    0 -0.34139650933E+02  0.27988191454E+02 -0.18038155984E+03  0.18576450618E+03  0.47000000000E+01 0. -1.
        -13    1    4    4    0    0  0.17432361110E+02 -0.30513825521E+02 -0.40675064799E+03  0.40826593099E+03  0.00000000000E+00 0.  1.
         14    1    4    4    0    0  0.24255925521E+02 -0.97241229759E+02 -0.34753108255E+03  0.36169332317E+03  0.00000000000E+00 0. -1.
         -5    1    5    5    0  501  0.48478331785E+02 -0.10288390887E+02 -0.19953957636E+03  0.20565537234E+03  0.47000000000E+01 0.  1.
         11    1    6    6    0    0 -0.64746835133E+02  0.41006935180E+02 -0.23183161891E+03  0.24417129422E+03  0.00000000000E+00 0. -1.
        -12    1    6    6    0    0  0.87198676493E+01  0.69048319534E+02 -0.26531132668E+03  0.27428781706E+03  0.00000000000E+00 0.  1.
</event>
<event>
12    1  0.1345781E-002  0.1827004E+03  0.7818608E-02  0.1165215E+00
          4   -1    0    0  502    0  0.00000000000E+00  0.00000000000E+00  0.16931691303E+03  0.16931691303E+03  0.00000000000E+00 0. -1.
         -4   -1    0    0    0  501 -0.00000000000E+00 -0.00000000000E+00 -0.21771124105E+03  0.21771124105E+03  0.00000000000E+00 0.  1.
          6    2    1    2  502    0  0.36129492739E+02  0.53583865422E+02 -0.83470061332E+02  0.19945956038E+03  0.16923443565E+03 0.  0.
         24    2    3    3    0    0  0.35778860044E+01  0.46236087269E+02  0.18739500675E+02  0.91837622516E+02  0.77022094165E+02 0.  0.
         -6    2    1    2    0  501 -0.36129492739E+02 -0.53583865422E+02  0.35075733317E+02  0.18756859370E+03  0.17255462728E+03 0.  0.
        -24    2    5    5    0    0 -0.20775093873E+01 -0.44243254564E+02  0.86206471081E+02  0.12525305049E+03  0.79340969116E+02 0.  0.
          5    1    3    3  502    0  0.32551606734E+02  0.73477781528E+01 -0.10220956201E+03  0.10762193787E+03  0.47000000000E+01 0. -1.
        -13    1    4    4    0    0 -0.26823093471E+02  0.83468476570E+01 -0.15801954208E+02  0.32231195540E+02  0.00000000000E+00 0.  1.
         14    1    4    4    0    0  0.30400979475E+02  0.37889239612E+02  0.34541454882E+02  0.59606426976E+02  0.00000000000E+00 0. -1.
         -5    1    5    5    0  501 -0.34051983352E+02 -0.93406108579E+01 -0.51130737763E+02  0.62315543210E+02  0.47000000000E+01 0.  1.
         13    1    6    6    0    0  0.80342388737E+01 -0.62717713910E+02  0.82378361457E+02  0.10384726799E+03  0.00000000000E+00 0. -1.
        -14    1    6    6    0    0 -0.10111748261E+02  0.18474459346E+02  0.38281096238E+01  0.21405782497E+02  0.00000000000E+00 0.  1.
</event>
<event>
12    1  0.1345781E-002  0.1870516E+03  0.7818608E-02  0.1161148E+00
         -2   -1    0    0    0  501 -0.00000000000E+00  0.00000000000E+00  0.21404026658E+03  0.21404026658E+03  0.00000000000E+00 0.  1.
          2   -1    0    0  502    0  0.00000000000E+00 -0.00000000000E+00 -0.33834372588E+03  0.33834372588E+03  0.00000000000E+00 0. -1.
          6    2    1    2  502    0  0.45733157740E+02 -0.60349156679E+02 -0.26061389347E+03  0.32043140631E+03  0.17036179809E+03 0.  0.
         24    2    3    3    0    0  0.90701621640E+02  0.13854825063E+01 -0.15697454572E+03  0.19160387500E+03  0.61986556451E+02 0.  0.
         -6    2    1    2    0  501 -0.45733157740E+02  0.60349156679E+02  0.13631043417E+03  0.23195258615E+03  0.17172048605E+03 0.  0.
        -24    2    5    5    0    0  0.14003816440E+02 -0.21705522911E+02  0.45418000095E+02  0.95625768913E+02  0.80089052609E+02 0.  0.
          5    1    3    3  502    0 -0.44968463900E+02 -0.61734639185E+02 -0.10363934775E+03  0.12882753131E+03  0.47000000000E+01 0. -1.
        -13    1    4    4    0    0  0.75344663956E+02 -0.12440447308E+02 -0.15236696863E+03  0.17043261497E+03  0.00000000000E+00 0.  1.
         14    1    4    4    0    0  0.15356957684E+02  0.13825929814E+02 -0.46075770883E+01  0.21171260028E+02  0.00000000000E+00 0. -1.
         -5    1    5    5    0  501 -0.59736974181E+02  0.82054679590E+02  0.90892434073E+02  0.13632681724E+03  0.47000000000E+01 0.  1.
         11    1    6    6    0    0  0.23076541888E+02  0.58577634318E+00 -0.17039558486E+02  0.28691749212E+02  0.00000000000E+00 0. -1.
        -12    1    6    6    0    0 -0.90727254478E+01 -0.22291299254E+02  0.62457558580E+02  0.66934019701E+02  0.00000000000E+00 0.  1.
</event>
<event>
12    1  0.1345781E-002  0.2076546E+03  0.7818608E-02  0.1143437E+00
         -1   -1    0    0    0  501 -0.00000000000E+00  0.00000000000E+00  0.45128299130E+03  0.45128299130E+03  0.00000000000E+00 0. -1.
          1   -1    0    0  502    0  0.00000000000E+00 -0.00000000000E+00 -0.11301543092E+03  0.11301543092E+03  0.00000000000E+00 0.  1.
          6    2    1    2  502    0 -0.94211547110E+02 -0.68930029514E+02  0.58010508208E+02  0.21531321437E+03  0.17136918230E+03 0.  0.
         24    2    3    3    0    0 -0.12561209715E+03 -0.84837483112E+02  0.53904578843E+02  0.17956422447E+03  0.79760952823E+02 0.  0.
         -6    2    1    2    0  501  0.94211547110E+02  0.68930029514E+02  0.28025705217E+03  0.34898520785E+03  0.17210315346E+03 0.  0.
        -24    2    5    5    0    0  0.11150222870E+03  0.57617746604E+02  0.28945936990E+03  0.32588308531E+03  0.81611927643E+02 0.  0.
          5    1    3    3  502    0  0.31400550044E+02  0.15907453598E+02  0.41059293653E+01  0.35748989902E+02  0.47000000000E+01 0. -1.
        -11    1    4    4    0    0 -0.44445999116E+02 -0.33393089905E+02 -0.19207435901E+02  0.58817266893E+02  0.00000000000E+00 0.  1.
         12    1    4    4    0    0 -0.81166098039E+02 -0.51444393208E+02  0.73112014743E+02  0.12074695757E+03  0.00000000000E+00 0. -1.
         -5    1    5    5    0  501 -0.17290681592E+02  0.11312282910E+02 -0.92023177312E+01  0.23102122547E+02  0.47000000000E+01 0.  1.
         11    1    6    6    0    0  0.10112774046E+03  0.77385781892E+02  0.24907688593E+03  0.27974036934E+03  0.00000000000E+00 0. -1.
        -12    1    6    6    0    0  0.10374488239E+02 -0.19768035288E+02  0.40382483973E+02  0.46142715971E+02  0.00000000000E+00 0.  1.
</event>
<event>
12    1  0.1345781E-002  0.1726389E+03  0.7818608E-02  0.1175123E+00
         -2   -1    0    0    0  501 -0.00000000000E+00  0.00000000000E+00  0.67809440099E+02  0.67809440099E+02  0.00000000000E+00 0. -1.
          2   -1    0    0  502    0  0.00000000000E+00 -0.00000000000E+00 -0.43956913763E+03  0.43956913763E+03  0.00000000000E+00 0.  1.
          6    2    1    2  502    0  0.21457531572E+02  0.53894500067E+01 -0.18305363782E+03  0.25130665713E+03  0.17075400366E+03 0.  0.
         24    2    3    3    0    0  0.14079411109E+02  0.32418900583E+02 -0.25683280318E+02  0.91392469893E+02  0.80272895382E+02 0.  0.
         -6    2    1    2    0  501 -0.21457531572E+02 -0.53894500067E+01 -0.18870605971E+03  0.25607192059E+03  0.17167812823E+03 0.  0.
        -24    2    5    5    0    0 -0.13626892629E+02  0.53530567583E+02 -0.59797387287E+02  0.11404226452E+03  0.79866743405E+02 0.  0.
          5    1    3    3  502    0  0.73781204634E+01 -0.27029450576E+02 -0.15737035750E+03  0.15991418724E+03  0.47000000000E+01 0. -1.
        -11    1    4    4    0    0  0.13658933150E+02  0.42907232803E+02 -0.48558859267E+02  0.66223559969E+02  0.00000000000E+00 0.  1.
         12    1    4    4    0    0  0.42047795928E+00 -0.10488332220E+02  0.22875578949E+02  0.25168909923E+02  0.00000000000E+00 0. -1.
         -5    1    5    5    0  501 -0.78306389438E+01 -0.58920017590E+02 -0.12890867242E+03  0.14202965607E+03  0.47000000000E+01 0.  1.
         11    1    6    6    0    0  0.20568287294E+02  0.15918422520E+02 -0.57556350710E+02  0.63159988322E+02  0.00000000000E+00 0. -1.
        -12    1    6    6    0    0 -0.34195179923E+02  0.37612145063E+02 -0.22410365772E+01  0.50882276199E+02  0.00000000000E+00 0.  1.
</event>
<event>
12    1  0.1345781E-002  0.1699235E+03  0.7818608E-02  0.1177928E+00
         -2   -1    0    0    0  501 -0.00000000000E+00  0.00000000000E+00  0.76697371515E+03  0.76697371515E+03  0.00000000000E+00 0.  1.
          2   -1    0    0  502    0  0.00000000000E+00 -0.00000000000E+00 -0.44140422468E+02  0.44140422468E+02  0.00000000000E+00 0. -1.
          6    2    1    2  502    0  0.68990954632E+01  0.21429682699E+02  0.51204850062E+03  0.53868624939E+03  0.16577810313E+03 0.  0.
         24    2    3    3    0    0  0.22941305459E+02  0.37404332777E+02  0.14932752065E+03  0.17522904248E+03  0.80505411609E+02 0.  0.
         -6    2    1    2    0  501 -0.68990954632E+01 -0.21429682699E+02  0.21078479206E+03  0.27242788823E+03  0.17111369583E+03 0.  0.
        -24    2    5    5    0    0 -0.29551442399E+02  0.24836880328E+02  0.20128188672E+03  0.21983398282E+03  0.79513669952E+02 0.  0.
          5    1    3    3  502    0 -0.16042209995E+02 -0.15974650078E+02  0.36272097996E+03  0.36345720691E+03  0.47000000000E+01 0. -1.
        -13    1    4    4    0    0  0.35689488828E+02  0.27076405180E+02  0.15212630782E+03  0.15858526054E+03  0.00000000000E+00 0.  1.
         14    1    4    4    0    0 -0.12748183370E+02  0.10327927596E+02 -0.27987871671E+01  0.16643781940E+02  0.00000000000E+00 0. -1.
         -5    1    5    5    0  501  0.22652346936E+02 -0.46266563027E+02  0.95029053453E+01  0.52593905408E+02  0.47000000000E+01 0.  1.
         13    1    6    6    0    0  0.55016039644E+01 -0.17166186795E+02  0.94490844592E+01  0.20352661064E+02  0.00000000000E+00 0. -1.
        -14    1    6    6    0    0 -0.35053046363E+02  0.42003067123E+02  0.19183280226E+03  0.19948132175E+03  0.00000000000E+00 0.  1.
</event>
<event>
12    1  0.1345781E-002  0.1847379E+03  0.7818608E-02  0.1163295E+00
          1   -1    0    0  502    0  0.00000000000E+00  0.00000000000E+00  0.22466803085E+04  0.22466803085E+04  0.00000000000E+00 0. -1.
         -1   -1    0    0    0  501 -0.00000000000E+00 -0.00000000000E+00 -0.15468633819E+02  0.15468633819E+02  0.00000000000E+00 0.  1.
          6    2    1    2  502    0 -0.64058866127E+02 -0.17289269464E+02  0.12672520189E+04  0.12806458373E+04  0.17240540598E+03 0.  0.
         24    2    3    3    0    0  0.22986779802E+02  0.15599512710E+02  0.45880296781E+03  0.46684575455E+03  0.81688790107E+02 0.  0.
         -6    2    1    2    0  501  0.64058866127E+02  0.17289269464E+02  0.96395965581E+03  0.98150310505E+03  0.17241713960E+03 0.  0.
        -24    2    5    5    0    0  0.48097857854E+02 -0.55639669821E+02  0.63353921808E+03  0.64272125837E+03  0.79432350643E+02 0.  0.
          5    1    3    3  502    0 -0.87045645929E+02 -0.32888782174E+02  0.80844905106E+03  0.81380008271E+03  0.47000000000E+01 0. -1.
        -13    1    4    4    0    0 -0.77638978069E+01  0.20792264808E+02  0.39700282003E+03  0.39762273011E+03  0.00000000000E+00 0.  1.
         14    1    4    4    0    0  0.30750677609E+02 -0.51927520979E+01  0.61800147777E+02  0.69223024443E+02  0.00000000000E+00 0. -1.
         -5    1    5    5    0  501  0.15961008272E+02  0.72928939284E+02  0.33042043773E+03  0.33878184668E+03  0.47000000000E+01 0.  1.
         11    1    6    6    0    0 -0.92594792761E+01 -0.49511332645E+02  0.27595989226E+03  0.28051911192E+03  0.00000000000E+00 0. -1.
        -12    1    6    6    0    0  0.57357337131E+02 -0.61283371761E+01  0.35757932582E+03  0.36220214645E+03  0.00000000000E+00 0.  1.
</event>
<event>
12    1  0.1345781E-002  0.2493032E+03  0.7818608E-02  0.1113746E+00
          2   -1    0    0  502    0  0.00000000000E+00  0.00000000000E+00  0.59736266163E+03  0.59736266163E+03  0.00000000000E+00 0. -1.
         -2   -1    0    0    0  501 -0.00000000000E+00 -0.00000000000E+00 -0.14949001505E+03  0.14949001505E+03  0.00000000000E+00 0.  1.
          6    2    1    2  502    0 -0.16630913794E+02 -0.17986744987E+03  0.17884300977E+02  0.24969315108E+03  0.17145825923E+03 0.  0.
         24    2    3    3    0    0 -0.45428848833E+01 -0.13376154183E+03 -0.52392723994E+02  0.16464713155E+03  0.80317448443E+02 0.  0.
         -6    2    1    2    0  501  0.16630913794E+02  0.17986744987E+03  0.42998834561E+03  0.49715952560E+03  0.17218806497E+03 0.  0.
        -24    2    5    5    0    0  0.14112693716E+02  0.20668440613E+03  0.39259941211E+03  0.45083984378E+03  0.78769629261E+02 0.  0.
          5    1    3    3  502    0 -0.12088028911E+02 -0.46105908038E+02  0.70277024970E+02  0.85046019529E+02  0.47000000000E+01 0. -1.
        -11    1    4    4    0    0 -0.27165720096E+02 -0.66839124110E+02 -0.59675178881E+02  0.93629972950E+02  0.00000000000E+00 0.  1.
         12    1    4    4    0    0  0.22622835212E+02 -0.66922417719E+02  0.72824548869E+01  0.71017158600E+02  0.00000000000E+00 0. -1.
         -5    1    5    5    0  501  0.25182200779E+01 -0.26816956258E+02  0.37388933500E+02  0.46319681816E+02  0.47000000000E+01 0.  1.
         11    1    6    6    0    0 -0.26255819622E+02  0.49314099334E+02  0.13728138122E+03  0.14821412243E+03  0.00000000000E+00 0. -1.
        -12    1    6    6    0    0  0.40368513338E+02  0.15737030679E+03  0.25531803089E+03  0.30262572135E+03  0.00000000000E+00 0.  1.
</event>
<event>
12    1  0.1345781E-002  0.1977758E+03  0.7818608E-02  0.1151629E+00
         -2   -1    0    0    0  501 -0.00000000000E+00  0.00000000000E+00  0.71379629841E+02  0.71379629841E+02  0.00000000000E+00 0. -1.
          2   -1    0    0  502    0  0.00000000000E+00 -0.00000000000E+00 -0.56222662179E+03  0.56222662179E+03  0.00000000000E+00 0.  1.
          6    2    1    2  502    0  0.84437255069E+02  0.46936964843E+02 -0.29571525896E+03  0.35570094005E+03  0.17246134541E+03 0.  0.
         24    2    3    3    0    0  0.74923735684E+02 -0.31508424259E+02 -0.14330643626E+03  0.18396065544E+03  0.81844004718E+02 0.  0.
         -6    2    1    2    0  501 -0.84437255069E+02 -0.46936964843E+02 -0.19513173299E+03  0.27790531157E+03  0.17269117021E+03 0.  0.
        -24    2    5    5    0    0 -0.29426442605E+02 -0.66353288595E+02 -0.44945925290E+02  0.11671892893E+03  0.79589557976E+02 0.  0.
          5    1    3    3  502    0  0.95135193851E+01  0.78445389103E+02 -0.15240882270E+03  0.17174028462E+03  0.47000000000E+01 0. -1.
        -13    1    4    4    0    0  0.21736346098E+02  0.27438347890E+02 -0.55156320355E+02  0.65326498083E+02  0.00000000000E+00 0.  1.
         14    1    4    4    0    0  0.53187389586E+02 -0.58946772150E+02 -0.88150115900E+02  0.11863415735E+03  0.00000000000E+00 0. -1.
         -5    1    5    5    0  501 -0.55010812464E+02  0.19416323751E+02 -0.15018580770E+03  0.16118638264E+03  0.47000000000E+01 0.  1.
         11    1    6    6    0    0 -0.41391464923E+02 -0.49539595447E+02 -0.62330542584E+02  0.89735842473E+02  0.00000000000E+00 0. -1.
        -12    1    6    6    0    0  0.11965022318E+02 -0.16813693147E+02  0.17384617294E+02  0.26983086458E+02  0.00000000000E+00 0.  1.
</event>
<event>
12    1  0.1345781E-002  0.1929857E+03  0.7818608E-02  0.1155796E+00
         -1   -1    0    0    0  501 -0.00000000000E+00  0.00000000000E+00  0.26931284305E+02  0.26931284305E+02  0.00000000000E+00 0. -1.
          1   -1    0    0  502    0  0.00000000000E+00 -0.00000000000E+00 -0.14645105674E+04  0.14645105674E+04  0.00000000000E+00 0.  1.
          6    2    1    2  502    0  0.31489659709E+02 -0.84198447589E+02 -0.89541303801E+03  0.91600952106E+03  0.17096185765E+03 0.  0.
         24    2    3    3    0    0  0.19043446172E+02  0.19873880946E+02 -0.35111547273E+03  0.36169202416E+03  0.82349384691E+02 0.  0.
         -6    2    1    2    0  501 -0.31489659709E+02  0.84198447589E+02 -0.54216624512E+03  0.57543233069E+03  0.17057887504E+03 0.  0.
        -24    2    5    5    0    0  0.64230391121E+01  0.91953971004E+02 -0.51244818504E+03  0.52641423229E+03  0.77537174290E+02 0.  0.
          5    1    3    3  502    0  0.12446213537E+02 -0.10407232854E+03 -0.54429756528E+03  0.55431749690E+03  0.47000000000E+01 0. -1.
        -13    1    4    4    0    0 -0.48926824191E+01  0.66452444741E+01 -0.32063393933E+03  0.32074011390E+03  0.00000000000E+00 0.  1.
         14    1    4    4    0    0  0.23936128591E+02  0.13228636472E+02 -0.30481533404E+02  0.40951910255E+02  0.00000000000E+00 0. -1.
         -5    1    5    5    0  501 -0.37912698821E+02 -0.77555234143E+01 -0.29718060083E+02  0.49018098397E+02  0.47000000000E+01 0.  1.
         11    1    6    6    0    0 -0.16858961513E+02 -0.23696426061E+01 -0.32057411965E+02  0.36297623218E+02  0.00000000000E+00 0. -1.
        -12    1    6    6    0    0  0.23282000625E+02  0.94323613610E+02 -0.48039077307E+03  0.49011660907E+03  0.00000000000E+00 0.  1.
</event>
<event>
12    1  0.1345781E-002  0.1846894E+03  0.7818608E-02  0.1163340E+00
          2   -1    0    0  502    0  0.00000000000E+00  0.00000000000E+00  0.15318288548E+04  0.15318288548E+04  0.00000000000E+00 0.  1.
         -2   -1    0    0    0  501 -0.00000000000E+00 -0.00000000000E+00 -0.32214542598E+02  0.32214542598E+02  0.00000000000E+00 0. -1.
          6    2    1    2  502    0 -0.59214753998E+02  0.33450163879E+02  0.31493991581E+03  0.36504141567E+03  0.17158899741E+03 0.  0.
         24    2    3    3    0    0 -0.30416052922E+02  0.83692555915E+02  0.16043379654E+03  0.19997205439E+03  0.79499932548E+02 0.  0.
         -6    2    1    2    0  501  0.59214753998E+02 -0.33450163879E+02  0.11846743964E+04  0.11990019818E+04  0.17183429855E+03 0.  0.
        -24    2    5    5    0    0  0.33565992365E+02  0.40409597763E+02  0.43346951033E+03  0.44372455309E+03  0.78968672227E+02 0.  0.
          5    1    3    3  502    0 -0.28798701076E+02 -0.50242392036E+02  0.15450611927E+03  0.16506936128E+03  0.47000000000E+01 0. -1.
        -13    1    4    4    0    0 -0.14957169535E+02 -0.13837898005E+02  0.32521196623E+02  0.38377500850E+02  0.00000000000E+00 0.  1.
         14    1    4    4    0    0 -0.15458883388E+02  0.97530453920E+02  0.12791259991E+03  0.16159455354E+03  0.00000000000E+00 0. -1.
         -5    1    5    5    0  501  0.25648761633E+02 -0.73859761642E+02  0.75120488610E+03  0.75527742868E+03  0.47000000000E+01 0.  1.
         13    1    6    6    0    0  0.58314956244E+02  0.19659705728E+02  0.25214251710E+03  0.25954380571E+03  0.00000000000E+00 0. -1.
        -14    1    6    6    0    0 -0.24748963879E+02  0.20749892034E+02  0.18132699323E+03  0.18418074738E+03  0.00000000000E+00 0.  1.
</event>
<event>
12    1  0.1345781E-002  0.2074937E+03  0.7818608E-02  0.1143566E+00
          2   -1    0    0  502    0  0.00000000000E+00  0.00000000000E+00  0.55481539108E+03  0.55481539108E+03  0.00000000000E+00 0. -1.
         -2   -1    0    0    0  501 -0.00000000000E+00 -0.00000000000E+00 -0.93235880869E+02  0.93235880869E+02  0.00000000000E+00 0.  1.
          6    2    1    2  502    0 -0.11447065934E+03  0.43883417580E+01  0.36380571656E+03  0.41899093965E+03  0.17342438904E+03 0.  0.
         24    2    3    3    0    0 -0.12808856042E+03 -0.37944331073E+02  0.23005709946E+03  0.27796510870E+03  0.80572210291E+02 0.  0.
         -6    2    1    2    0  501  0.11447065934E+03 -0.43883417580E+01  0.97773793647E+02  0.22906033230E+03  0.17258659193E+03 0.  0.
        -24    2    5    5    0    0  0.44495589049E+02  0.35661875041E+01 -0.18162929148E+02  0.93328248062E+02  0.79923055203E+02 0.  0.
          5    1    3    3  502    0  0.13617901077E+02  0.42332672831E+02  0.13374861711E+03  0.14102583096E+03  0.47000000000E+01 0. -1.
        -13    1    4    4    0    0 -0.16545845063E+02 -0.16294768185E+02  0.21718274685E+01  0.23323835311E+02  0.00000000000E+00 0.  1.
         14    1    4    4    0    0 -0.11154271536E+03 -0.21649562888E+02  0.22788527199E+03  0.25464127339E+03  0.00000000000E+00 0. -1.
         -5    1    5    5    0  501  0.69975070294E+02 -0.79545292621E+01  0.11593672279E+03  0.13573208424E+03  0.47000000000E+01 0.  1.
         13    1    6    6    0    0  0.28849973940E+02  0.65555716336E+01  0.30279796248E+02  0.42333941189E+02  0.00000000000E+00 0. -1.
        -14    1    6    6    0    0  0.15645615109E+02 -0.29893841295E+01 -0.48442725396E+02  0.50994306872E+02  0.00000000000E+00 0.  1.
</event>
<event>
12    1  0.1345781E-002  0.2167781E+03  0.7818608E-02  0.1136308E+00
         -1   -1    0    0    0  501 -0.00000000000E+00  0.00000000000E+00  0.31486751759E+02  0.31486751759E+02  0.00000000000E+00 0. -1.
          1   -1    0    0  502    0  0.00000000000E+00 -0.00000000000E+00 -0.15548068917E+04  0.15548068917E+04  0.00000000000E+00 0.  1.
          6    2    1    2  502    0 -0.52496263558E+02  0.12132158516E+03 -0.92126737764E+03  0.94648150216E+03  0.17210133096E+03 0.  0.
         24    2    3    3    0    0 -0.19020832037E+02  0.15027181979E+03 -0.77110359514E+03  0.78986103040E+03  0.79600760233E+02 0.  0.
         -6    2    1    2    0  501  0.52496263558E+02 -0.12132158516E+03 -0.60205276233E+03  0.63981214132E+03  0.17151461409E+03 0.  0.
        -24    2    5    5    0    0  0.24917356491E+02 -0.55950399706E+02 -0.13847554766E+03  0.17081330128E+03  0.79059374606E+02 0.  0.
          5    1    3    3  502    0 -0.33475431521E+02 -0.28950234633E+02 -0.15016378250E+03  0.15662047176E+03  0.47000000000E+01 0. -1.
        -13    1    4    4    0    0 -0.40516249061E+02  0.13992535360E+03 -0.61983830262E+03  0.63672615182E+03  0.00000000000E+00 0.  1.
         14    1    4    4    0    0  0.21495417023E+02  0.10346466189E+02 -0.15126529252E+03  0.15313487858E+03  0.00000000000E+00 0. -1.
         -5    1    5    5    0  501  0.27578907067E+02 -0.65371185451E+02 -0.46357721467E+03  0.46899884004E+03  0.47000000000E+01 0.  1.
         13    1    6    6    0    0  0.44194623125E+02 -0.42259191647E+01 -0.69491555257E+02  0.82462714957E+02  0.00000000000E+00 0. -1.
        -14    1    6    6    0    0 -0.19277266634E+02 -0.51724480541E+02 -0.68983992404E+02  0.88350586326E+02  0.00000000000E+00 0.  1.
</event>
<event>
12    1  0.1345781E-002  0.3691236E+03  0.7818608E-02  0.1055029E+00
          2   -1    0    0  502    0  0.00000000000E+00  0.00000000000E+00  0.58299129707E+03  0.58299129707E+03  0.00000000000E+00 0. -1.
         -2   -1    0    0    0  501 -0.00000000000E+00 -0.00000000000E+00 -0.24736866091E+03  0.24736866091E+03  0.00000000000E+00 0.  1.
          6    2    1    2  502    0  0.12898848675E+03 -0.29896897019E+03  0.26499071799E+03  0.45369942550E+03  0.17205409971E+03 0.  0.
         24    2    3    3    0    0  0.15517579237E+03 -0.25247650424E+03  0.18838405306E+03  0.36022217973E+03  0.80296672335E+02 0.  0.
         -6    2    1    2    0  501 -0.12898848675E+03  0.29896897019E+03  0.70631918178E+02  0.37666053248E+03  0.17568100071E+03 0.  0.
        -24    2    5    5    0    0 -0.24477223375E+01  0.13954000681E+03  0.66169095271E+02  0.17301337141E+03  0.77960712364E+02 0.  0.
          5    1    3    3  502    0 -0.26187305624E+02 -0.46492465956E+02  0.76606664922E+02  0.93477245771E+02  0.47000000000E+01 0. -1.
        -11    1    4    4    0    0  0.82184145335E+02 -0.16918548860E+03  0.15729470569E+03  0.24519296020E+03  0.00000000000E+00 0.  1.
         12    1    4    4    0    0  0.72991647039E+02 -0.83291015640E+02  0.31089347376E+02  0.11502921952E+03  0.00000000000E+00 0. -1.
         -5    1    5    5    0  501 -0.12654076441E+03  0.15942896338E+03  0.44628229073E+01  0.20364716107E+03  0.47000000000E+01 0.  1.
         11    1    6    6    0    0 -0.25076921110E+02  0.81052129159E+02  0.70273124604E+02  0.11016629092E+03  0.00000000000E+00 0. -1.
        -12    1    6    6    0    0  0.22629198772E+02  0.58487877653E+02 -0.41040293334E+01  0.62847080491E+02  0.00000000000E+00 0.  1.
</event>
<event>
12    1  0.1345781E-002  0.2766756E+03  0.7818608E-02  0.1097519E+00
         -2   -1    0    0    0  501 -0.00000000000E+00  0.00000000000E+00  0.85755061838E+02  0.85755061838E+02  0.00000000000E+00 0. -1.
          2   -1    0    0  502    0  0.00000000000E+00 -0.00000000000E+00 -0.89420852339E+03  0.89420852339E+03  0.00000000000E+00 0.  1.
          6    2    1    2  502    0  0.12204226028E+03 -0.17742897280E+03 -0.38509220485E+03  0.47468241402E+03  0.17507722370E+03 0.  0.
         24    2    3    3    0    0  0.27997690393E+02 -0.77516595875E+02 -0.27817822437E+03  0.30067220337E+03  0.78917400234E+02 0.  0.
         -6    2    1    2    0  501 -0.12204226028E+03  0.17742897280E+03 -0.42336125671E+03  0.50528117122E+03  0.17233384642E+03 0.  0.
        -24    2    5    5    0    0 -0.30880316797E+02  0.14645185043E+03 -0.19278468443E+03  0.25536573005E+03  0.75126447229E+02 0.  0.
          5    1    3    3  502    0  0.94044569886E+02 -0.99912376928E+02 -0.10691398047E+03  0.17401021065E+03  0.47000000000E+01 0. -1.
        -13    1    4    4    0    0  0.41007863757E+02 -0.88203511577E+02 -0.23666530079E+03  0.25587490878E+03  0.00000000000E+00 0.  1.
         14    1    4    4    0    0 -0.13010173363E+02  0.10686915702E+02 -0.41512923587E+02  0.44797294594E+02  0.00000000000E+00 0. -1.
         -5    1    5    5    0  501 -0.91161943483E+02  0.30977122372E+02 -0.23057657228E+03  0.24991544117E+03  0.47000000000E+01 0.  1.
         11    1    6    6    0    0 -0.49308289537E+02  0.93007266102E+02 -0.15500364160E+03  0.18737072309E+03  0.00000000000E+00 0. -1.
        -12    1    6    6    0    0  0.18427972741E+02  0.53444584328E+02 -0.37781042836E+02  0.67995006957E+02  0.00000000000E+00 0.  1.
</event>
<event>
12    1  0.1345781E-002  0.1918373E+03  0.7818608E-02  0.1156815E+00
         -2   -1    0    0    0  501 -0.00000000000E+00  0.00000000000E+00  0.10603481167E+03  0.10603481167E+03  0.00000000000E+00 0. -1.
          2   -1    0    0  502    0  0.00000000000E+00 -0.00000000000E+00 -0.35545565746E+03  0.35545565746E+03  0.00000000000E+00 0.  1.
          6    2    1    2  502    0  0.48155717296E+02 -0.71423240641E+02 -0.16011272878E+03  0.24982902384E+03  0.17134235561E+03 0.  0.
         24    2    3    3    0    0  0.28728419403E+02 -0.10779616380E+03 -0.15651989817E+03  0.20817079687E+03  0.79945400969E+02 0.  0.
         -6    2    1    2    0  501 -0.48155717296E+02  0.71423240641E+02 -0.89308117010E+02  0.21166144529E+03  0.17147704000E+03 0.  0.
        -24    2    5    5    0    0 -0.50148060795E+02  0.21605992232E+02  0.12923981159E+02  0.97822877278E+02  0.80128890720E+02 0.  0.
          5    1    3    3  502    0  0.19427297894E+02  0.36372923158E+02 -0.35928306085E+01  0.41658226970E+02  0.47000000000E+01 0. -1.
        -11    1    4    4    0    0  0.28625142050E+01 -0.67325178397E+02 -0.14330114290E+03  0.15835432166E+03  0.00000000000E+00 0.  1.
         12    1    4    4    0    0  0.25865905198E+02 -0.40470985403E+02 -0.13218755270E+02  0.49816475207E+02  0.00000000000E+00 0. -1.
         -5    1    5    5    0  501  0.19923434990E+01  0.49817248409E+02 -0.10223209817E+03  0.11383856801E+03  0.47000000000E+01 0.  1.
         11    1    6    6    0    0 -0.69794654064E+02  0.43877503822E+01  0.33930907806E+01  0.70014706701E+02  0.00000000000E+00 0. -1.
        -12    1    6    6    0    0  0.19646593268E+02  0.17218241850E+02  0.95308903780E+01  0.27808170578E+02  0.00000000000E+00 0.  1.
</event>
<event>
12    1  0.1345781E-002  0.1770061E+03  0.7818608E-02  0.1170732E+00
         -2   -1    0    0    0  501 -0.00000000000E+00  0.00000000000E+00  0.30319290589E+03  0.30319290589E+03  0.00000000000E+00 0. -1.
          2   -1    0    0  502    0  0.00000000000E+00 -0.00000000000E+00 -0.10334130886E+03  0.10334130886E+03  0.00000000000E+00 0.  1.
          6    2    1    2  502    0 -0.39945125354E+02 -0.20378112265E+02  0.99190456329E+02  0.20340738239E+03  0.17182821679E+03 0.  0.
         24    2    3    3    0    0  0.48456450772E+02 -0.15272511653E+02  0.73013301241E+02  0.11095069378E+03  0.66316190024E+02 0.  0.
         -6    2    1    2    0  501  0.39945125354E+02  0.20378112265E+02  0.10066114070E+03  0.20312683236E+03  0.17063693703E+03 0.  0.
        -24    2    5    5    0    0 -0.14145102842E+02  0.66472479747E+02  0.64398200383E+02  0.12320478071E+03  0.80085050278E+02 0.  0.
          5    1    3    3  502    0 -0.88401576126E+02 -0.51056006123E+01  0.26177155088E+02  0.92456688604E+02  0.47000000000E+01 0. -1.
        -13    1    4    4    0    0  0.57525347668E+02 -0.18966947449E+02  0.31450495177E+02  0.68249867156E+02  0.00000000000E+00 0.  1.
         14    1    4    4    0    0 -0.90688968964E+01  0.36944357957E+01  0.41562806064E+02  0.42700826628E+02  0.00000000000E+00 0. -1.
         -5    1    5    5    0  501  0.54090228196E+02 -0.46094367482E+02  0.36262940318E+02  0.79922051652E+02  0.47000000000E+01 0.  1.
         11    1    6    6    0    0  0.19958138981E+02  0.41701878841E+02  0.66512637585E+02  0.81001882503E+02  0.00000000000E+00 0. -1.
        -12    1    6    6    0    0 -0.34103241823E+02  0.24770600906E+02 -0.21144372017E+01  0.42202898203E+02  0.00000000000E+00 0.  1.
</event>
<event>
12    1  0.1345781E-002  0.2384920E+03  0.7818608E-02  0.1120802E+00
         -2   -1    0    0    0  501 -0.00000000000E+00  0.00000000000E+00  0.21973278972E+02  0.21973278972E+02  0.00000000000E+00 0. -1.
          2   -1    0    0  502    0  0.00000000000E+00 -0.00000000000E+00 -0.27886684788E+04  0.27886684788E+04  0.00000000000E+00 0.  1.
          6    2    1    2  502    0 -0.14605434289E+03  0.82608988729E+02 -0.10232083773E+04  0.10513152058E+04  0.17364378030E+03 0.  0.
         24    2    3    3    0    0 -0.83754540230E+02  0.55966429119E+02 -0.31179196182E+03  0.33666389388E+03  0.77338772854E+02 0.  0.
         -6    2    1    2    0  501  0.14605434289E+03 -0.82608988729E+02 -0.17434868225E+04  0.17593265520E+04  0.16531031462E+03 0.  0.
        -24    2    5    5    0    0  0.74393411955E+02 -0.28708980564E+02 -0.13913853515E+04  0.13959561682E+04  0.79886431369E+02 0.  0.
          5    1    3    3  502    0 -0.62299802657E+02  0.26642559610E+02 -0.71141641550E+03  0.71465131193E+03  0.47000000000E+01 0. -1.
        -13    1    4    4    0    0  0.11408687817E+02 -0.63780051036E+01 -0.27290841887E+02  0.30259331746E+02  0.00000000000E+00 0.  1.
         14    1    4    4    0    0 -0.95163228047E+02  0.62344434223E+02 -0.28450111993E+03  0.30640456213E+03  0.00000000000E+00 0. -1.
         -5    1    5    5    0  501  0.71660930932E+02 -0.53900008165E+02 -0.35210147104E+03  0.36337038378E+03  0.47000000000E+01 0.  1.
         11    1    6    6    0    0  0.27978064851E+02 -0.43723363207E+02 -0.39759397830E+03  0.40096817353E+03  0.00000000000E+00 0. -1.
        -12    1    6    6    0    0  0.46415347104E+02  0.15014382644E+02 -0.99379137320E+03  0.99498799469E+03  0.00000000000E+00 0.  1.
</event>
<event>
12    1  0.1345781E-002  0.2314754E+03  0.7818608E-02  0.1125606E+00
          2   -1    0    0  502    0  0.00000000000E+00  0.00000000000E+00  0.35666498598E+03  0.35666498598E+03  0.00000000000E+00 0. -1.
         -2   -1    0    0    0  501 -0.00000000000E+00 -0.00000000000E+00 -0.15179040944E+03  0.15179040944E+03  0.00000000000E+00 0.  1.
          6    2    1    2  502    0 -0.49794664831E+02 -0.14686231243E+03  0.76657753118E+02  0.24387819400E+03  0.17190728588E+03 0.  0.
         24    2    3    3    0    0  0.15034618357E+02 -0.14348204970E+03  0.66282242066E+02  0.17796914026E+03  0.80414805467E+02 0.  0.
         -6    2    1    2    0  501  0.49794664831E+02  0.14686231243E+03  0.12821682342E+03  0.26457720142E+03  0.17179491916E+03 0.  0.
        -24    2    5    5    0    0  0.60568416710E+02  0.90318826793E+02  0.15076019716E+03  0.20258096608E+03  0.80525692749E+02 0.  0.
          5    1    3    3  502    0 -0.64829283188E+02 -0.33802627326E+01  0.10375511052E+02  0.65909053736E+02  0.47000000000E+01 0. -1.
        -13    1    4    4    0    0 -0.66132311595E+01 -0.85525108357E+02  0.76891708219E+02  0.11519815007E+03  0.00000000000E+00 0.  1.
         14    1    4    4    0    0  0.21647849517E+02 -0.57956941339E+02 -0.10609466154E+02  0.62770990196E+02  0.00000000000E+00 0. -1.
         -5    1    5    5    0  501 -0.10773751879E+02  0.56543485636E+02 -0.22543373744E+02  0.61996235347E+02  0.47000000000E+01 0.  1.
         13    1    6    6    0    0  0.17132966732E+02  0.75255178729E+01  0.88016394457E+02  0.89983652191E+02  0.00000000000E+00 0. -1.
        -14    1    6    6    0    0  0.43435449978E+02  0.82793308920E+02  0.62743802702E+02  0.11259731389E+03  0.00000000000E+00 0.  1.
</event>
<event>
12    1  0.1345781E-002  0.2085777E+03  0.7818608E-02  0.1142697E+00
         -2   -1    0    0    0  501 -0.00000000000E+00  0.00000000000E+00  0.57664094833E+03  0.57664094833E+03  0.00000000000E+00 0. -1.
          2   -1    0    0  502    0  0.00000000000E+00 -0.00000000000E+00 -0.10743127702E+03  0.10743127702E+03  0.00000000000E+00 0.  1.
          6    2    1    2  502    0 -0.10561574306E+03 -0.51737239384E+02  0.47733398099E+02  0.21367528248E+03  0.17189305374E+03 0.  0.
         24    2    3    3    0    0 -0.11513718039E+03  0.15380693909E+02  0.36659093105E+02  0.14482613601E+03  0.78342737445E+02 0.  0.
         -6    2    1    2    0  501  0.10561574306E+03  0.51737239384E+02  0.42147627321E+03  0.47039694287E+03  0.17262562922E+03 0.  0.
        -24    2    5    5    0    0  0.83634758407E+02  0.48585501300E+02  0.12877728760E+03  0.17681921327E+03  0.72980275624E+02 0.  0.
          5    1    3    3  502    0  0.95214373285E+01 -0.67117933294E+02  0.11074304994E+02  0.68849146469E+02  0.47000000000E+01 0. -1.
        -13    1    4    4    0    0 -0.10481134390E+03  0.10753726324E+01  0.55841721633E+02  0.11876393438E+03  0.00000000000E+00 0.  1.
         14    1    4    4    0    0 -0.10325836492E+02  0.14305321277E+02 -0.19182628528E+02  0.26062201621E+02  0.00000000000E+00 0. -1.
         -5    1    5    5    0  501  0.21980984653E+02  0.31517380845E+01  0.29269898561E+03  0.29357772960E+03  0.47000000000E+01 0.  1.
         11    1    6    6    0    0  0.78351352148E+02  0.63652881658E+01  0.84520569683E+02  0.11542607148E+03  0.00000000000E+00 0. -1.
        -12    1    6    6    0    0  0.52834062586E+01  0.42220213134E+02  0.44256717918E+02  0.61393141796E+02  0.00000000000E+00 0.  1.
</event>
<event>
12    1  0.1345781E-002  0.1910014E+03  0.7818608E-02  0.1157561E+00
         -4   -1    0    0    0  501 -0.00000000000E+00  0.00000000000E+00  0.72912871653E+02  0.72912871653E+02  0.00000000000E+00 0.  1.
          4   -1    0    0  502    0  0.00000000000E+00 -0.00000000000E+00 -0.52889415190E+03  0.52889415190E+03  0.00000000000E+00 0. -1.
          6    2    1    2  502    0  0.59418774404E+01 -0.83778747928E+02 -0.29827684794E+03  0.35437040690E+03  0.17191603403E+03 0.  0.
         24    2    3    3    0    0  0.40072079680E+02  0.92148866978E+01 -0.11072092345E+03  0.14221008639E+03  0.79207954624E+02 0.  0.
         -6    2    1    2    0  501 -0.59418774404E+01  0.83778747928E+02 -0.15770443231E+03  0.24743661665E+03  0.17117244749E+03 0.  0.
        -24    2    5    5    0    0 -0.10523894887E+01  0.35121085013E+02 -0.53019721473E+01  0.87311430891E+02  0.79753225135E+02 0.  0.
          5    1    3    3  502    0 -0.34130202240E+02 -0.92993634625E+02 -0.18755592449E+03  0.21216032051E+03  0.47000000000E+01 0. -1.
        -13    1    4    4    0    0 -0.68367399324E+01 -0.19210952830E+02 -0.20657127363E+01  0.20495582223E+02  0.00000000000E+00 0.  1.
         14    1    4    4    0    0  0.46908819612E+02  0.28425839528E+02 -0.10865521071E+03  0.12171450417E+03  0.00000000000E+00 0. -1.
         -5    1    5    5    0  501 -0.48894879517E+01  0.48657662914E+02 -0.15240246016E+03  0.16012518576E+03  0.47000000000E+01 0.  1.
         13    1    6    6    0    0 -0.35662707477E+02  0.38247731868E+02 -0.52775968122E+01  0.52560162915E+02  0.00000000000E+00 0. -1.
        -14    1    6    6    0    0  0.34610317988E+02 -0.31266468542E+01 -0.24375335102E-01  0.34751267976E+02  0.00000000000E+00 0.  1.
</event>
<event>
12    1  0.1345781E-002  0.1895587E+03  0.7818608E-02  0.1158860E+00
          2   -1    0    0  502    0  0.00000000000E+00  0.00000000000E+00  0.18150725531E+04  0.18150725531E+04  0.00000000000E+00 0.  1.
         -2   -1    0    0    0  501 -0.00000000000E+00 -0.00000000000E+00 -0.34849583777E+02  0.34849583777E+02  0.00000000000E+00 0. -1.
          6    2    1    2  502    0 -0.73734997112E+02 -0.25823899250E+02  0.28450226802E+03  0.34234459095E+03  0.17365066909E+03 0.  0.
         24    2    3    3    0    0 -0.23914251869E+01 -0.61332046777E+02  0.21039880148E+03  0.23342192321E+03  0.80316870543E+02 0.  0.
         -6    2    1    2    0  501  0.73734997112E+02  0.25823899250E+02  0.14957207013E+04  0.15075775459E+04  0.17177286482E+03 0.  0.
        -24    2    5    5    0    0 -0.11236881961E+02 -0.19129937623E+02  0.44540535056E+03  0.45286171041E+03  0.78775506434E+02 0.  0.
          5    1    3    3  502    0 -0.71343571925E+02  0.35508147527E+02  0.74103466538E+02  0.10892266775E+03  0.47000000000E+01 0. -1.
        -11    1    4    4    0    0  0.34453794879E+02 -0.20310014723E+02  0.51358040347E+02  0.65093847543E+02  0.00000000000E+00 0.  1.
         12    1    4    4    0    0 -0.36845220066E+02 -0.41022032054E+02  0.15904076113E+03  0.16832807566E+03  0.00000000000E+00 0. -1.
         -5    1    5    5    0  501  0.84971879073E+02  0.44953836873E+02  0.10503153507E+04  0.10547158355E+04  0.47000000000E+01 0.  1.
         11    1    6    6    0    0 -0.81582413431E+01 -0.40935944998E+02  0.12674681461E+03  0.13344310963E+03  0.00000000000E+00 0. -1.
        -12    1    6    6    0    0 -0.30786406180E+01  0.21806007375E+02  0.31865853595E+03  0.31941860077E+03  0.00000000000E+00 0.  1.
</event>
<event>
12    1  0.1345781E-002  0.1911627E+03  0.7818608E-02  0.1157417E+00
         -1   -1    0    0    0  501 -0.00000000000E+00  0.00000000000E+00  0.15919683514E+03  0.15919683514E+03  0.00000000000E+00 0. -1.
          1   -1    0    0  502    0  0.00000000000E+00 -0.00000000000E+00 -0.25787185030E+03  0.25787185030E+03  0.00000000000E+00 0.  1.
          6    2    1    2  502    0  0.79831831362E+02  0.21387744710E+02  0.19670243230E+02  0.19261979295E+03  0.17287252311E+03 0.  0.
         24    2    3    3    0    0  0.47812631986E+02 -0.20432088985E+02 -0.50527871542E+02  0.10473354297E+03  0.75581288571E+02 0.  0.
         -6    2    1    2    0  501 -0.79831831362E+02 -0.21387744710E+02 -0.11834525839E+03  0.22444889249E+03  0.17187538577E+03 0.  0.
        -24    2    5    5    0    0 -0.28180579140E+01  0.36285880455E+02 -0.94825884408E+02  0.12528932768E+03  0.73354350294E+02 0.  0.
          5    1    3    3  502    0  0.32019199376E+02  0.41819833695E+02  0.70198114772E+02  0.87886249986E+02  0.47000000000E+01 0. -1.
        -11    1    4    4    0    0 -0.34110327915E+01 -0.18153751588E+02 -0.50165315946E+02  0.53457953247E+02  0.00000000000E+00 0.  1.
         12    1    4    4    0    0  0.51223664778E+02 -0.22783373974E+01 -0.36255559655E+00  0.51275589720E+02  0.00000000000E+00 0. -1.
         -5    1    5    5    0  501 -0.77013773448E+02 -0.57673625165E+02 -0.23519373984E+02  0.99159564808E+02  0.47000000000E+01 0.  1.
         13    1    6    6    0    0  0.12916221865E+02  0.19318168387E+02  0.41833681206E+01  0.23611882303E+02  0.00000000000E+00 0. -1.
        -14    1    6    6    0    0 -0.15734279779E+02  0.16967712068E+02 -0.99009252528E+02  0.10167744538E+03  0.00000000000E+00 0.  1.
</event>
<event>
12    1  0.1345781E-002  0.1760163E+03  0.7818608E-02  0.1171715E+00
         -2   -1    0    0    0  501 -0.00000000000E+00  0.00000000000E+00  0.63994940690E+02  0.63994940690E+02  0.00000000000E+00 0. -1.
          2   -1    0    0  502    0  0.00000000000E+00 -0.00000000000E+00 -0.61917920478E+03  0.61917920478E+03  0.00000000000E+00 0.  1.
          6    2    1    2  502    0 -0.22472472215E+02  0.26135132840E+02 -0.11807553032E+03  0.21196085491E+03  0.17261957009E+03 0.  0.
         24    2    3    3    0    0  0.52987712913E+02  0.21361328037E+02 -0.66151836557E+02  0.12011757140E+03  0.82390299334E+02 0.  0.
         -6    2    1    2    0  501  0.22472472215E+02 -0.26135132840E+02 -0.43710873377E+03  0.47121329056E+03  0.17259740115E+03 0.  0.
        -24    2    5    5    0    0  0.49844414033E+02 -0.33824697985E+02 -0.13599357100E+03  0.16872232564E+03  0.79651716931E+02 0.  0.
          5    1    3    3  502    0 -0.75460185128E+02  0.47738048031E+01 -0.51923693763E+02  0.91843283510E+02  0.47000000000E+01 0. -1.
        -11    1    4    4    0    0 -0.10056428106E+02 -0.17508474752E+02 -0.33635431930E+02  0.39230354516E+02  0.00000000000E+00 0.  1.
         12    1    4    4    0    0  0.63044141019E+02  0.38869802789E+02 -0.32516404627E+02  0.80887216886E+02  0.00000000000E+00 0. -1.
         -5    1    5    5    0  501 -0.27371941818E+02  0.76895651449E+01 -0.30111516277E+03  0.30249096492E+03  0.47000000000E+01 0.  1.
         13    1    6    6    0    0  0.63647543461E+02 -0.40263012841E+02 -0.13351406946E+03  0.15329098713E+03  0.00000000000E+00 0. -1.
        -14    1    6    6    0    0 -0.13803129428E+02  0.64383148560E+01 -0.24795015421E+01  0.15431338506E+02  0.00000000000E+00 0.  1.
</event>
<event>
12    1  0.1345781E-002  0.2425798E+03  0.7818608E-02  0.1118086E+00
          2   -1    0    0  502    0  0.00000000000E+00  0.00000000000E+00  0.33497792770E+04  0.33497792770E+04  0.00000000000E+00 0. -1.
         -2   -1    0    0    0  501 -0.00000000000E+00 -0.00000000000E+00 -0.17731926024E+02  0.17731926024E+02  0.00000000000E+00 0.  1.
          6    2    1    2  502    0  0.11973402553E+03  0.11934555820E+03  0.15126144213E+04  0.15321485783E+04  0.17577621949E+03 0.  0.
         24    2    3    3    0    0  0.81846634681E+02  0.18917628666E+02  0.46758372177E+03  0.48160944225E+03  0.79097216880E+02 0.  0.
         -6    2    1    2    0  501 -0.11973402553E+03 -0.11934555820E+03  0.18194329297E+04  0.18353626247E+04  0.17216323507E+03 0.  0.
        -24    2    5    5    0    0 -0.49923962303E+02  0.88824287842E+01  0.59134176982E+03  0.59861453053E+03  0.77993383532E+02 0.  0.
          5    1    3    3  502    0  0.37887390848E+02  0.10042792953E+03  0.10450306995E+04  0.10505391361E+04  0.47000000000E+01 0. -1.
        -13    1    4    4    0    0  0.23037436416E+02  0.44072658286E+02  0.24610995248E+03  0.25108411219E+03  0.00000000000E+00 0.  1.
         14    1    4    4    0    0  0.58809198266E+02 -0.25155029620E+02  0.22147376929E+03  0.23052533006E+03  0.00000000000E+00 0. -1.
         -5    1    5    5    0  501 -0.69810063226E+02 -0.12822798698E+03  0.12280911599E+04  0.12367480942E+04  0.47000000000E+01 0.  1.
         11    1    6    6    0    0 -0.56751279030E+02  0.17348610544E+02  0.57952115359E+03  0.58255167103E+03  0.00000000000E+00 0. -1.
        -12    1    6    6    0    0  0.68273167270E+01 -0.84661817603E+01  0.11820616226E+02  0.16062859498E+02  0.00000000000E+00 0.  1.
</event>
<event>
12    1  0.1345781E-002  0.2340101E+03  0.7818608E-02  0.1123849E+00
          2   -1    0    0  502    0  0.00000000000E+00  0.00000000000E+00  0.98413856642E+03  0.98413856642E+03  0.00000000000E+00 0. -1.
         -2   -1    0    0    0  501 -0.00000000000E+00 -0.00000000000E+00 -0.58104248053E+02  0.58104248053E+02  0.00000000000E+00 0.  1.
          6    2    1    2  502    0  0.84162416405E+02 -0.13482053345E+03  0.35551162039E+03  0.42554128808E+03  0.17157210453E+03 0.  0.
         24    2    3    3    0    0  0.10382791509E+03 -0.15025437530E+03  0.34360289182E+03  0.39745493678E+03  0.80937421859E+02 0.  0.
         -6    2    1    2    0  501 -0.84162416405E+02  0.13482053345E+03  0.57052269798E+03  0.61670152640E+03  0.17194398849E+03 0.  0.
        -24    2    5    5    0    0 -0.39067918742E+02  0.30102830320E+02  0.13452771429E+03  0.16602090016E+03  0.83861497175E+02 0.  0.
          5    1    3    3  502    0 -0.19665498683E+02  0.15433841859E+02  0.11908728573E+02  0.28086351297E+02  0.47000000000E+01 0. -1.
        -13    1    4    4    0    0  0.68638821679E+02 -0.53634367531E+02  0.97563547999E+02  0.13079212178E+03  0.00000000000E+00 0.  1.
         14    1    4    4    0    0  0.35189093409E+02 -0.96620007773E+02  0.24603934382E+03  0.26666281500E+03  0.00000000000E+00 0. -1.
         -5    1    5    5    0  501 -0.45094497662E+02  0.10471770313E+03  0.43599498368E+03  0.45068062624E+03  0.47000000000E+01 0.  1.
         13    1    6    6    0    0 -0.19439522216E+02  0.32414670591E+00  0.12836212205E+03  0.12982617022E+03  0.00000000000E+00 0. -1.
        -14    1    6    6    0    0 -0.19628396526E+02  0.29778683614E+02  0.61655922405E+01  0.36194729943E+02  0.00000000000E+00 0.  1.
</event>
<event>
12    1  0.1345781E-002  0.5425050E+03  0.7818608E-02  0.1003244E+00
         -1   -1    0    0    0  501 -0.00000000000E+00  0.00000000000E+00  0.67993142041E+03  0.67993142041E+03  0.00000000000E+00 0.  1.
          1   -1    0    0  502    0  0.00000000000E+00 -0.00000000000E+00 -0.47635546961E+03  0.47635546961E+03  0.00000000000E+00 0. -1.
          6    2    1    2  502    0  0.51384717803E+03  0.24592605030E+02  0.27652138032E+03  0.60903736362E+03  0.17268097150E+03 0.  0.
         24    2    3    3    0    0  0.11368446372E+03  0.24924863610E+02  0.95520598187E+02  0.16981796348E+03  0.78540116672E+02 0.  0.
         -6    2    1    2    0  501 -0.51384717803E+03 -0.24592605030E+02 -0.72945429526E+02  0.54724952640E+03  0.17180596575E+03 0.  0.
        -24    2    5    5    0    0 -0.24555043919E+03  0.50191953651E+02 -0.49171235828E+02  0.26767275238E+03  0.80103942066E+02 0.  0.
          5    1    3    3  502    0  0.40016271432E+03 -0.33225858004E+00  0.18100078214E+03  0.43921940014E+03  0.47000000000E+01 0. -1.
        -11    1    4    4    0    0  0.11670169978E+03  0.40717510687E+02  0.78595661415E+02  0.14647348020E+03  0.00000000000E+00 0.  1.
         12    1    4    4    0    0 -0.30172360620E+01 -0.15792647077E+02  0.16924936772E+02  0.23344483286E+02  0.00000000000E+00 0. -1.
         -5    1    5    5    0  501 -0.26829673884E+03 -0.74784558681E+02 -0.23774193698E+02  0.27957677402E+03  0.47000000000E+01 0.  1.
         11    1    6    6    0    0 -0.50272220708E+02  0.32498970758E+02  0.14357488647E+02  0.61559863186E+02  0.00000000000E+00 0. -1.
        -12    1    6    6    0    0 -0.19527821849E+03  0.17692982892E+02 -0.63528724475E+02  0.20611288919E+03  0.00000000000E+00 0.  1.
</event>
<event>
12    1  0.1345781E-002  0.2710811E+03  0.7818608E-02  0.1100662E+00
          2   -1    0    0  502    0  0.00000000000E+00  0.00000000000E+00  0.21073966563E+04  0.21073966563E+04  0.00000000000E+00 0. -1.
         -2   -1    0    0    0  501 -0.00000000000E+00 -0.00000000000E+00 -0.67992039607E+02  0.67992039607E+02  0.00000000000E+00 0.  1.
          6    2    1    2  502    0  0.18513115996E+03 -0.97325151169E+02  0.26215559478E+03  0.37771043183E+03  0.17376387139E+03 0.  0.
         24    2    3    3    0    0  0.21951893946E+02 -0.10474359763E+02  0.11645726328E+03  0.14229457292E+03  0.78063137597E+02 0.  0.
         -6    2    1    2    0  501 -0.18513115996E+03  0.97325151169E+02  0.17772490219E+04  0.17976782641E+04  0.17113539611E+03 0.  0.
        -24    2    5    5    0    0 -0.80185088978E+02  0.10669956399E+03  0.12752550519E+04  0.12847244714E+04  0.80169038414E+02 0.  0.
          5    1    3    3  502    0  0.16317926601E+03 -0.86850791406E+02  0.14569833149E+03  0.23541585891E+03  0.47000000000E+01 0. -1.
        -13    1    4    4    0    0  0.32790661171E+02 -0.90817506708E+01  0.10262538288E+02  0.35539067903E+02  0.00000000000E+00 0.  1.
         14    1    4    4    0    0 -0.10838767225E+02 -0.13926090921E+01  0.10619472500E+03  0.10675550502E+03  0.00000000000E+00 0. -1.
         -5    1    5    5    0  501 -0.10494607098E+03 -0.93744128189E+01  0.50199397006E+03  0.51295379266E+03  0.47000000000E+01 0.  1.
         11    1    6    6    0    0 -0.75201934295E+02  0.78290699747E+02  0.11852479799E+04  0.11902090314E+04  0.00000000000E+00 0. -1.
        -12    1    6    6    0    0 -0.49831546832E+01  0.28408864240E+02  0.90007071997E+02  0.94515440048E+02  0.00000000000E+00 0.  1.
</event>
<event>
12    1  0.1345781E-002  0.2479227E+03  0.7818608E-02  0.1114625E+00
          1   -1    0    0  502    0  0.00000000000E+00  0.00000000000E+00  0.16503018692E+03  0.16503018692E+03  0.00000000000E+00 0.  1.
         -1   -1    0    0    0  501 -0.00000000000E+00 -0.00000000000E+00 -0.48516357964E+03  0.48516357964E+03  0.00000000000E+00 0. -1.
          6    2    1    2  502    0 -0.12317567719E+03  0.12810868774E+03 -0.37431680449E+01  0.24869538145E+03  0.17392900311E+03 0.  0.
         24    2    3    3    0    0  0.56666288914E+01  0.36261687840E+02  0.14899375943E+02  0.89303268495E+02  0.80037876485E+02 0.  0.
         -6    2    1    2    0  501  0.12317567719E+03 -0.12810868774E+03 -0.31639022468E+03  0.40149838510E+03  0.17179666948E+03 0.  0.
        -24    2    5    5    0    0  0.13255559226E+03 -0.42722648294E+02 -0.18964661217E+03  0.24831616730E+03  0.79365431508E+02 0.  0.
          5    1    3    3  502    0 -0.12884230608E+03  0.91846999902E+02 -0.18642543988E+02  0.15939211296E+03  0.47000000000E+01 0. -1.
        -11    1    4    4    0    0  0.14507684567E+02 -0.17188241802E+02  0.25603209064E+02  0.34079801674E+02  0.00000000000E+00 0.  1.
         12    1    4    4    0    0 -0.88410556757E+01  0.53449929643E+02 -0.10703833121E+02  0.55223466821E+02  0.00000000000E+00 0. -1.
         -5    1    5    5    0  501 -0.93799150740E+01 -0.85386039449E+02 -0.12674361251E+03  0.15318221780E+03  0.47000000000E+01 0.  1.
         11    1    6    6    0    0  0.64157411718E+02 -0.52880111537E+02 -0.14128989358E+03  0.16393691989E+03  0.00000000000E+00 0. -1.
        -12    1    6    6    0    0  0.68398180544E+02  0.10157463243E+02 -0.48356718589E+02  0.84379247413E+02  0.00000000000E+00 0.  1.
</event>
<event>
12    1  0.1345781E-002  0.2042612E+03  0.7818608E-02  0.1146193E+00
         -3   -1    0    0    0  501 -0.00000000000E+00  0.00000000000E+00  0.86883027495E+02  0.86883027495E+02  0.00000000000E+00 0.  1.
          3   -1    0    0  502    0  0.00000000000E+00 -0.00000000000E+00 -0.50982024850E+03  0.50982024850E+03  0.00000000000E+00 0. -1.
          6    2    1    2  502    0  0.20693553738E+02 -0.10750332563E+03 -0.28341227558E+03  0.34937912807E+03  0.17250527236E+03 0.  0.
         24    2    3    3    0    0 -0.38339325517E+02 -0.11359555774E+03 -0.17953850435E+03  0.22965508506E+03  0.78316849588E+02 0.  0.
         -6    2    1    2    0  501 -0.20693553738E+02  0.10750332563E+03 -0.13952494543E+03  0.24732414793E+03  0.17238571740E+03 0.  0.
        -24    2    5    5    0    0 -0.52008292433E+02  0.37238078076E+02 -0.18394922151E+02  0.10375398942E+03  0.79592588975E+02 0.  0.
          5    1    3    3  502    0  0.59032879255E+02  0.60922321097E+01 -0.10387377123E+03  0.11972404301E+03  0.47000000000E+01 0. -1.
        -13    1    4    4    0    0  0.95440283852E+01 -0.88576596490E+02 -0.10780867087E+03  0.13985568075E+03  0.00000000000E+00 0.  1.
         14    1    4    4    0    0 -0.47883353902E+02 -0.25018961253E+02 -0.71729833474E+02  0.89799404303E+02  0.00000000000E+00 0. -1.
         -5    1    5    5    0  501  0.31314738694E+02  0.70265247558E+02 -0.12113002327E+03  0.14357015850E+03  0.47000000000E+01 0.  1.
         13    1    6    6    0    0 -0.80588062891E+00 -0.20378161708E+02 -0.17177690993E+02  0.26664432978E+02  0.00000000000E+00 0. -1.
        -14    1    6    6    0    0 -0.51202411804E+02  0.57616239783E+02 -0.12172311581E+01  0.77089556446E+02  0.00000000000E+00 0.  1.
</event>
<event>
12    1  0.1345781E-002  0.2201930E+03  0.7818608E-02  0.1133739E+00
          2   -1    0    0  502    0  0.00000000000E+00  0.00000000000E+00  0.67159764339E+03  0.67159764339E+03  0.00000000000E+00 0. -1.
         -2   -1    0    0    0  501 -0.00000000000E+00 -0.00000000000E+00 -0.84445793364E+02  0.84445793364E+02  0.00000000000E+00 0.  1.
          6    2    1    2  502    0  0.13618124160E+03 -0.11792994353E+02  0.15000476990E+03  0.26673685233E+03  0.17309740645E+03 0.  0.
         24    2    3    3    0    0  0.15673089086E+03  0.68482514875E+01  0.15883688890E+03  0.23724311644E+03  0.80272463076E+02 0.  0.
         -6    2    1    2    0  501 -0.13618124160E+03  0.11792994353E+02  0.43714708013E+03  0.48930658442E+03  0.17215968928E+03 0.  0.
        -24    2    5    5    0    0 -0.15405143390E+03  0.43264644804E+02  0.39478604260E+03  0.43339275737E+03  0.79809704513E+02 0.  0.
          5    1    3    3  502    0 -0.20549649252E+02 -0.18641245840E+02 -0.88321189971E+01  0.29493735891E+02  0.47000000000E+01 0. -1.
        -11    1    4    4    0    0  0.62486073570E+02 -0.36474473382E+02  0.60528634196E+02  0.94332455477E+02  0.00000000000E+00 0.  1.
         12    1    4    4    0    0  0.94244817285E+02  0.43322724870E+02  0.98308254701E+02  0.14291066097E+03  0.00000000000E+00 0. -1.
         -5    1    5    5    0  501  0.17870192295E+02 -0.31471650452E+02  0.42361037531E+02  0.55913827051E+02  0.47000000000E+01 0.  1.
         11    1    6    6    0    0 -0.79461222509E+02 -0.18858407053E+02  0.17434197267E+03  0.19252233334E+03  0.00000000000E+00 0. -1.
        -12    1    6    6    0    0 -0.74590211390E+02  0.62123051858E+02  0.22044406993E+03  0.24087042404E+03  0.00000000000E+00 0.  1.
</event>
<event>
12    1  0.1345781E-002  0.4338416E+03  0.7818608E-02  0.1032653E+00
          2   -1    0    0  502    0  0.00000000000E+00  0.00000000000E+00  0.10474103845E+04  0.10474103845E+04  0.00000000000E+00 0. -1.
         -2   -1    0    0    0  501 -0.00000000000E+00 -0.00000000000E+00 -0.17970534860E+03  0.17970534860E+03  0.00000000000E+00 0.  1.
          6    2    1    2  502    0 -0.20264254705E+03 -0.34098878293E+03  0.42951166903E+03  0.60908777756E+03  0.17079313506E+03 0.  0.
         24    2    3    3    0    0 -0.28587527983E+02 -0.72562261742E+02  0.97240117100E+02  0.14781299919E+03  0.79438742256E+02 0.  0.
         -6    2    1    2    0  501  0.20264254705E+03  0.34098878293E+03  0.43819336684E+03  0.61802795551E+03  0.18057623068E+03 0.  0.
        -24    2    5    5    0    0  0.14449938900E+03  0.33020449059E+03  0.41138385923E+03  0.55292981814E+03  0.81114888472E+02 0.  0.
          5    1    3    3  502    0 -0.17405501907E+03 -0.26842652118E+03  0.33227155193E+03  0.46127477837E+03  0.47000000000E+01 0. -1.
        -11    1    4    4    0    0  0.12940395832E+01 -0.69104682168E+02  0.32398082865E+02  0.76333265418E+02  0.00000000000E+00 0.  1.
         12    1    4    4    0    0 -0.29881567566E+02 -0.34575795741E+01  0.64842034234E+02  0.71479733774E+02  0.00000000000E+00 0. -1.
         -5    1    5    5    0  501  0.58143158056E+02  0.10784292335E+02  0.26809507619E+02  0.65098137367E+02  0.47000000000E+01 0.  1.
         13    1    6    6    0    0 -0.10386150326E+02  0.27972208869E+02  0.34037062533E+02  0.45264094086E+02  0.00000000000E+00 0. -1.
        -14    1    6    6    0    0  0.15488553932E+03  0.30223228172E+03  0.37734679669E+03  0.50766572405E+03  0.00000000000E+00 0.  1.
</event>
<event>
12    1  0.1345781E-002  0.1737555E+03  0.7818608E-02  0.1173987E+00
          4   -1    0    0  502    0  0.00000000000E+00  0.00000000000E+00  0.14793517937E+02  0.14793517937E+02  0.00000000000E+00 0. -1.
         -4   -1    0    0    0  501 -0.00000000000E+00 -0.00000000000E+00 -0.23953612193E+04  0.23953612193E+04  0.00000000000E+00 0.  1.
          6    2    1    2  502    0  0.37208967290E+02  0.13686371395E+02 -0.16692548118E+04  0.16785568776E+04  0.17195854354E+03 0.  0.
         24    2    3    3    0    0 -0.13245451381E+02 -0.26830353251E+02 -0.13544774942E+04  0.13571628780E+04  0.79915487890E+02 0.  0.
         -6    2    1    2    0  501 -0.37208967290E+02 -0.13686371395E+02 -0.71131288962E+03  0.73159785967E+03  0.16642589139E+03 0.  0.
        -24    2    5    5    0    0 -0.36612821220E+02 -0.36823495073E+02 -0.23095874572E+03  0.25066348218E+03  0.82424332634E+02 0.  0.
          5    1    3    3  502    0  0.50454418671E+02  0.40516724646E+02 -0.31477731756E+03  0.32139399962E+03  0.47000000000E+01 0. -1.
        -13    1    4    4    0    0 -0.40457299160E+02 -0.26185507390E+02 -0.51649599109E+03  0.51873941692E+03  0.00000000000E+00 0.  1.
         14    1    4    4    0    0  0.27211847779E+02 -0.64484586025E+00 -0.83798150311E+03  0.83842346105E+03  0.00000000000E+00 0. -1.
         -5    1    5    5    0  501 -0.59614607007E+00  0.23137123678E+02 -0.48035414390E+03  0.48093437749E+03  0.47000000000E+01 0.  1.
         13    1    6    6    0    0  0.66193213921E+01 -0.31065976220E+02 -0.25803307459E+02  0.40923354823E+02  0.00000000000E+00 0. -1.
        -14    1    6    6    0    0 -0.43232142612E+02 -0.57575188533E+01 -0.20515543826E+03  0.20974012736E+03  0.00000000000E+00 0.  1.
</event>
<event>
12    1  0.1345781E-002  0.2857893E+03  0.7818608E-02  0.1092568E+00
         -4   -1    0    0    0  501 -0.00000000000E+00  0.00000000000E+00  0.16697894172E+04  0.16697894172E+04  0.00000000000E+00 0. -1.
          4   -1    0    0  502    0  0.00000000000E+00 -0.00000000000E+00 -0.50361558409E+02  0.50361558409E+02  0.00000000000E+00 0.  1.
          6    2    1    2  502    0  0.17821742316E+02  0.23249764305E+03  0.67631841333E+03  0.73592310817E+03  0.17263677592E+03 0.  0.
         24    2    3    3    0    0 -0.48899431281E+02  0.18124458782E+03  0.51374236839E+03  0.55280661228E+03  0.80144709808E+02 0.  0.
         -6    2    1    2    0  501 -0.17821742316E+02 -0.23249764305E+03  0.94310944550E+03  0.98422786748E+03  0.15772222549E+03 0.  0.
        -24    2    5    5    0    0 -0.26421944390E+02 -0.99038327391E+02  0.21864384632E+03  0.24750685732E+03  0.54293677823E+02 0.  0.
          5    1    3    3  502    0  0.66721173597E+02  0.51253055231E+02  0.16257604495E+03  0.18311649589E+03  0.47000000000E+01 0. -1.
        -11    1    4    4    0    0 -0.23934900498E+02  0.19311993422E+02  0.33946180413E+02  0.45805848059E+02  0.00000000000E+00 0.  1.
         12    1    4    4    0    0 -0.24964530784E+02  0.16193259440E+03  0.47979618797E+03  0.50700076422E+03  0.00000000000E+00 0. -1.
         -5    1    5    5    0  501  0.86002020747E+01 -0.13345931566E+03  0.72446559918E+03  0.73672101016E+03  0.47000000000E+01 0.  1.
         11    1    6    6    0    0 -0.20246331181E+02 -0.50711007816E+02  0.17042882837E+03  0.17896230268E+03  0.00000000000E+00 0. -1.
        -12    1    6    6    0    0 -0.61756132089E+01 -0.48327319575E+02  0.48215017945E+02  0.68544554643E+02  0.00000000000E+00 0.  1.
</event>
<event>
12    1  0.1345781E-002  0.1867635E+03  0.7818608E-02  0.1161413E+00
          1   -1    0    0  502    0  0.00000000000E+00  0.00000000000E+00  0.15396151532E+04  0.15396151532E+04  0.00000000000E+00 0.  1.
         -1   -1    0    0    0  501 -0.00000000000E+00 -0.00000000000E+00 -0.22706230703E+02  0.22706230703E+02  0.00000000000E+00 0. -1.
          6    2    1    2  502    0  0.19548898390E+02  0.71038612516E+02  0.79467907373E+03  0.81628977734E+03  0.17142207113E+03 0.  0.
         24    2    3    3    0    0  0.58406720580E+02  0.92734482688E+02  0.67297824489E+03  0.68662165146E+03  0.80861269332E+02 0.  0.
         -6    2    1    2    0  501 -0.19548898390E+02 -0.71038612516E+02  0.72222984880E+03  0.74603160660E+03  0.17180966109E+03 0.  0.
        -24    2    5    5    0    0  0.40975910190E+02 -0.46235416936E+02  0.25931771299E+03  0.27849745121E+03  0.80612747553E+02 0.  0.
          5    1    3    3  502    0 -0.38857822190E+02 -0.21695870172E+02  0.12170082885E+03  0.12966812588E+03  0.47000000000E+01 0. -1.
        -13    1    4    4    0    0  0.49634316632E+02  0.18027879542E+02  0.39995687454E+03  0.40342790102E+03  0.00000000000E+00 0.  1.
         14    1    4    4    0    0  0.87724039484E+01  0.74706603146E+02  0.27302137035E+03  0.28319375045E+03  0.00000000000E+00 0. -1.
         -5    1    5    5    0  501 -0.60524808580E+02 -0.24803195581E+02  0.46291213582E+03  0.46753415538E+03  0.47000000000E+01 0.  1.
         11    1    6    6    0    0 -0.20165873584E+02 -0.27085955184E+02  0.12805601912E+03  0.13243358886E+03  0.00000000000E+00 0. -1.
        -12    1    6    6    0    0  0.61141783774E+02 -0.19149461752E+02  0.13126169387E+03  0.14606386236E+03  0.00000000000E+00 0.  1.
</event>
<event>
12    1  0.1345781E-002  0.1795400E+03  0.7818608E-02  0.1168249E+00
         -1   -1    0    0    0  501 -0.00000000000E+00  0.00000000000E+00  0.12703053817E+03  0.12703053817E+03  0.00000000000E+00 0. -1.
          1   -1    0    0  502    0  0.00000000000E+00 -0.00000000000E+00 -0.25768306825E+03  0.25768306825E+03  0.00000000000E+00 0.  1.
          6    2    1    2  502    0 -0.15292744312E+02  0.47479004158E+02 -0.89443190524E+02  0.20157911379E+03  0.17362583599E+03 0.  0.
         24    2    3    3    0    0  0.17946201175E+02  0.73460302682E+02 -0.83578206288E+01  0.11005434894E+03  0.79521219485E+02 0.  0.
         -6    2    1    2    0  501  0.15292744312E+02 -0.47479004158E+02 -0.41209339554E+02  0.18313449262E+03  0.17132398798E+03 0.  0.
        -24    2    5    5    0    0  0.58409539030E+02 -0.76672819069E+01 -0.62114560146E+02  0.12065930184E+03  0.85029330684E+02 0.  0.
          5    1    3    3  502    0 -0.33238945487E+02 -0.25981298524E+02 -0.81085369895E+02  0.91524764851E+02  0.47000000000E+01 0. -1.
        -11    1    4    4    0    0  0.36398088629E+02  0.36652634180E+02 -0.33728612873E+02  0.61691618349E+02  0.00000000000E+00 0.  1.
         12    1    4    4    0    0 -0.18451887455E+02  0.36807668502E+02  0.25370792244E+02  0.48362730592E+02  0.00000000000E+00 0. -1.
         -5    1    5    5    0  501 -0.43116794718E+02 -0.39811722251E+02  0.20905220592E+02  0.62475190782E+02  0.47000000000E+01 0.  1.
         13    1    6    6    0    0  0.30385053238E+02  0.29721007563E+02  0.53108693531E+00  0.42507314713E+02  0.00000000000E+00 0. -1.
        -14    1    6    6    0    0  0.28024485792E+02 -0.37388289470E+02 -0.62645647081E+02  0.78151987125E+02  0.00000000000E+00 0.  1.
</event>
<event>
12    1  0.1345781E-002  0.2569241E+03  0.7818608E-02  0.1109006E+00
         -1   -1    0    0    0  501 -0.00000000000E+00  0.00000000000E+00  0.10854089691E+03  0.10854089691E+03  0.00000000000E+00 0.  1.
          1   -1    0    0  502    0  0.00000000000E+00 -0.00000000000E+00 -0.68390896639E+03  0.68390896639E+03  0.00000000000E+00 0. -1.
          6    2    1    2  502    0  0.46915460193E+02 -0.18483302110E+03 -0.15579191023E+03  0.30044691934E+03  0.17214216785E+03 0.  0.
         24    2    3    3    0    0 -0.19037290658E+02 -0.61062270025E+02 -0.11446574839E+03  0.15416327084E+03  0.81073344964E+02 0.  0.
         -6    2    1    2    0  501 -0.46915460193E+02  0.18483302110E+03 -0.41957615924E+03  0.49200294396E+03  0.17221625174E+03 0.  0.
        -24    2    5    5    0    0 -0.27581751818E+02  0.19800280872E+03 -0.29395061888E+03  0.36413151644E+03  0.78860190373E+02 0.  0.
          5    1    3    3  502    0  0.65952750851E+02 -0.12377075108E+03 -0.41326161837E+02  0.14628364850E+03  0.47000000000E+01 0. -1.
        -11    1    4    4    0    0  0.21230549913E+02 -0.48067305969E+02 -0.32130736275E+02  0.61592096622E+02  0.00000000000E+00 0.  1.
         12    1    4    4    0    0 -0.40267840570E+02 -0.12994964056E+02 -0.82335012119E+02  0.92571174216E+02  0.00000000000E+00 0. -1.
         -5    1    5    5    0  501 -0.19333708375E+02 -0.13169787618E+02 -0.12562554036E+03  0.12787142752E+03  0.47000000000E+01 0.  1.
         13    1    6    6    0    0 -0.51718010131E+02  0.16112134609E+03 -0.21382910518E+03  0.27268613269E+03  0.00000000000E+00 0. -1.
        -14    1    6    6    0    0  0.24136258313E+02  0.36881462634E+02 -0.80121513700E+02  0.91445383749E+02  0.00000000000E+00 0.  1.
</event>
<event>
12    1  0.1345781E-002  0.1872651E+03  0.7818608E-02  0.1160951E+00
          1   -1    0    0  502    0  0.00000000000E+00  0.00000000000E+00  0.19741479432E+03  0.19741479432E+03  0.00000000000E+00 0.  1.
         -1   -1    0    0    0  501 -0.00000000000E+00 -0.00000000000E+00 -0.39041575175E+03  0.39041575175E+03  0.00000000000E+00 0. -1.
          6    2    1    2  502    0 -0.61819678779E+02 -0.42226027110E+02 -0.31349753504E+03  0.36520403777E+03  0.17172237675E+03 0.  0.
         24    2    3    3    0    0  0.21776002459E+02  0.91097627562E+00 -0.92809285264E+02  0.12525730916E+03  0.81245343899E+02 0.  0.
         -6    2    1    2    0  501  0.61819678779E+02  0.42226027110E+02  0.12049657760E+03  0.22262650830E+03  0.17157630062E+03 0.  0.
        -24    2    5    5    0    0 -0.25047094623E+02 -0.31901763537E+01  0.87863382078E+02  0.11920753853E+03  0.76504438813E+02 0.  0.
          5    1    3    3  502    0 -0.83595681237E+02 -0.43137003385E+02 -0.22068824977E+03  0.23994672861E+03  0.47000000000E+01 0. -1.
        -11    1    4    4    0    0 -0.15485745951E+02  0.24728570243E+02 -0.90642048254E+01  0.30552746571E+02  0.00000000000E+00 0.  1.
         12    1    4    4    0    0  0.37261748409E+02 -0.23817593968E+02 -0.83745080438E+02  0.94704562586E+02  0.00000000000E+00 0. -1.
         -5    1    5    5    0  501  0.86866773402E+02  0.45416203463E+02  0.32633195524E+02  0.10341896977E+03  0.47000000000E+01 0.  1.
         11    1    6    6    0    0 -0.85985253668E+01 -0.72720027834E+01 -0.12845380905E+02  0.17082753688E+02  0.00000000000E+00 0. -1.
        -12    1    6    6    0    0 -0.16448569256E+02  0.40818264297E+01  0.10070876298E+03  0.10212478484E+03  0.00000000000E+00 0.  1.
</event>
<event>
12    1  0.1345781E-002  0.2624236E+03  0.7818608E-02  0.1105696E+00
         -2   -1    0    0    0  501 -0.00000000000E+00  0.00000000000E+00  0.48272163853E+02  0.48272163853E+02  0.00000000000E+00 0. -1.
          2   -1    0    0  502    0  0.00000000000E+00 -0.00000000000E+00 -0.14992485080E+04  0.14992485080E+04  0.00000000000E+00 0.  1.
          6    2    1    2  502    0  0.13546247912E+03  0.14435788637E+03 -0.55463101930E+03  0.61349050338E+03  0.17194693241E+03 0.  0.
         24    2    3    3    0    0  0.16027341703E+03  0.10903139784E+03 -0.50823746734E+03  0.54994528252E+03  0.80988126474E+02 0.  0.
         -6    2    1    2    0  501 -0.13546247912E+03 -0.14435788637E+03 -0.89634532486E+03  0.93403016848E+03  0.17259238580E+03 0.  0.
        -24    2    5    5    0    0 -0.65477643959E+02 -0.13994428838E+03 -0.76906597200E+03  0.78863594348E+03  0.81317011486E+02 0.  0.
          5    1    3    3  502    0 -0.24810937909E+02  0.35326488530E+02 -0.46393551959E+02  0.63545220868E+02  0.47000000000E+01 0. -1.
        -11    1    4    4    0    0  0.35395891717E+02  0.14906120260E+01 -0.39394202377E+02  0.52981074503E+02  0.00000000000E+00 0.  1.
         12    1    4    4    0    0  0.12487752531E+03  0.10754078581E+03 -0.46884326497E+03  0.49696420801E+03  0.00000000000E+00 0. -1.
         -5    1    5    5    0  501 -0.69984835159E+02 -0.44135979864E+01 -0.12727935286E+03  0.14539422500E+03  0.47000000000E+01 0.  1.
         11    1    6    6    0    0  0.11664085805E+02 -0.37166106780E+00 -0.23902481180E+02  0.26599203675E+02  0.00000000000E+00 0. -1.
        -12    1    6    6    0    0 -0.77141729764E+02 -0.13957262731E+03 -0.74516349082E+03  0.76203673980E+03  0.00000000000E+00 0.  1.
</event>
<event>
12    1  0.1345781E-002  0.1824798E+03  0.7818608E-02  0.1165424E+00
          3   -1    0    0  502    0  0.00000000000E+00  0.00000000000E+00  0.62132369661E+02  0.62132369661E+02  0.00000000000E+00 0. -1.
         -3   -1    0    0    0  501 -0.00000000000E+00 -0.00000000000E+00 -0.53596224094E+03  0.53596224094E+03  0.00000000000E+00 0.  1.
          6    2    1    2  502    0  0.77626198473E+00 -0.65302099376E+02 -0.23612331421E+03  0.29767796960E+03  0.16909461050E+03 0.  0.
         24    2    3    3    0    0 -0.21050623689E+02 -0.59938599381E+02 -0.25063825846E+03  0.27051266678E+03  0.79509759356E+02 0.  0.
         -6    2    1    2    0  501 -0.77626198473E+00  0.65302099376E+02 -0.23770655706E+03  0.30041664100E+03  0.17169969177E+03 0.  0.
        -24    2    5    5    0    0  0.33524154898E+02  0.67180719830E+02 -0.24154977402E+03  0.26553243068E+03  0.80771655525E+02 0.  0.
          5    1    3    3  502    0  0.21826885673E+02 -0.53634999953E+01  0.14514944247E+02  0.27165302812E+02  0.47000000000E+01 0. -1.
        -11    1    4    4    0    0  0.18150144053E+02  0.88225044965E+01 -0.30448735644E+02  0.36529300802E+02  0.00000000000E+00 0.  1.
         12    1    4    4    0    0 -0.39200767742E+02 -0.68761103877E+02 -0.22018952282E+03  0.23398336598E+03  0.00000000000E+00 0. -1.
         -5    1    5    5    0  501 -0.34300416883E+02 -0.18786204541E+01  0.38432169570E+01  0.34884210321E+02  0.47000000000E+01 0.  1.
         11    1    6    6    0    0 -0.12692474153E+02  0.35772045581E+02 -0.35256382174E+02  0.51804928619E+02  0.00000000000E+00 0. -1.
        -12    1    6    6    0    0  0.46216629051E+02  0.31408674249E+02 -0.20629339185E+03  0.21372750206E+03  0.00000000000E+00 0.  1.
</event>
<event>
12    1  0.1345781E-002  0.2209222E+03  0.7818608E-02  0.1133197E+00
         -1   -1    0    0    0  501 -0.00000000000E+00  0.00000000000E+00  0.39419793443E+02  0.39419793443E+02  0.00000000000E+00 0.  1.
          1   -1    0    0  502    0  0.00000000000E+00 -0.00000000000E+00 -0.12612799175E+04  0.12612799175E+04  0.00000000000E+00 0. -1.
          6    2    1    2  502    0  0.79477513791E+02  0.11265643229E+03 -0.52342258090E+03  0.56822254018E+03  0.17290896460E+03 0.  0.
         24    2    3    3    0    0  0.13594041836E+02  0.42815714846E+01 -0.13303783276E+03  0.15772517854E+03  0.83516687990E+02 0.  0.
         -6    2    1    2    0  501 -0.79477513791E+02 -0.11265643229E+03 -0.69843754315E+03  0.73247717076E+03  0.17233588443E+03 0.  0.
        -24    2    5    5    0    0 -0.10656848649E+02 -0.54386143282E+02 -0.55238839351E+03  0.56076766420E+03  0.79094974049E+02 0.  0.
          5    1    3    3  502    0  0.65883471956E+02  0.10837486081E+03 -0.39038474814E+03  0.41049736164E+03  0.47000000000E+01 0. -1.
        -11    1    4    4    0    0 -0.31448956889E+02  0.19534127380E+02 -0.62868078833E+02  0.72958990933E+02  0.00000000000E+00 0.  1.
         12    1    4    4    0    0  0.45042998725E+02 -0.15252555895E+02 -0.70169753923E+02  0.84766187605E+02  0.00000000000E+00 0. -1.
         -5    1    5    5    0  501 -0.68820665142E+02 -0.58270289012E+02 -0.14604914964E+03  0.17170950656E+03  0.47000000000E+01 0.  1.
         11    1    6    6    0    0 -0.11843079803E+02 -0.74987446631E+02 -0.43961184294E+03  0.44611876013E+03  0.00000000000E+00 0. -1.
        -12    1    6    6    0    0  0.11862311536E+01  0.20601303349E+02 -0.11277655057E+03  0.11464890407E+03  0.00000000000E+00 0.  1.
</event>
<event>
12    1  0.1345781E-002  0.2546448E+03  0.7818608E-02  0.1110404E+00
          2   -1    0    0  502    0  0.00000000000E+00  0.00000000000E+00  0.18495682982E+04  0.18495682982E+04  0.00000000000E+00 0. -1.
         -2   -1    0    0    0  501 -0.00000000000E+00 -0.00000000000E+00 -0.43296835707E+02  0.43296835707E+02  0.00000000000E+00 0.  1.
          6    2    1    2  502    0 -0.15304398703E+03 -0.97409373021E+02  0.13054387722E+04  0.13293647314E+04  0.17357751343E+03 0.  0.
         24    2    3    3    0    0 -0.13153168475E+02  0.38199722431E+01  0.49549986642E+03  0.50121019112E+03  0.74188543833E+02 0.  0.
         -6    2    1    2    0  501  0.15304398703E+03  0.97409373021E+02  0.50083269021E+03  0.56350040244E+03  0.18381586452E+03 0.  0.
        -24    2    5    5    0    0  0.14129559603E+03  0.52874500165E+01  0.35800867107E+03  0.39307369141E+03  0.79651213000E+02 0.  0.
          5    1    3    3  502    0 -0.13989081855E+03 -0.10122934526E+03  0.80993890582E+03  0.82815454030E+03  0.47000000000E+01 0. -1.
        -13    1    4    4    0    0  0.13386691142E+02  0.12383910357E+02  0.31688991528E+02  0.36561686497E+02  0.00000000000E+00 0.  1.
         14    1    4    4    0    0 -0.26539859617E+02 -0.85639381138E+01  0.46381087489E+03  0.46464850463E+03  0.00000000000E+00 0. -1.
         -5    1    5    5    0  501  0.11748390996E+02  0.92121923004E+02  0.14282401914E+03  0.17042671103E+03  0.47000000000E+01 0.  1.
         13    1    6    6    0    0  0.87995948557E+02  0.48315488437E+01  0.30662190537E+03  0.31903545834E+03  0.00000000000E+00 0. -1.
        -14    1    6    6    0    0  0.53299647473E+02  0.45590117284E+00  0.51386765696E+02  0.74038233064E+02  0.00000000000E+00 0.  1.
</event>
<event>
12    1  0.1345781E-002  0.2003353E+03  0.7818608E-02  0.1149456E+00
         -2   -1    0    0    0  501 -0.00000000000E+00  0.00000000000E+00  0.80835613668E+03  0.80835613668E+03  0.00000000000E+00 0.  1.
          2   -1    0    0  502    0  0.00000000000E+00 -0.00000000000E+00 -0.53915037592E+02  0.53915037592E+02  0.00000000000E+00 0. -1.
          6    2    1    2  502    0 -0.77710787507E+02 -0.74841077948E+02  0.49926222425E+03  0.53812264455E+03  0.16933120968E+03 0.  0.
         24    2    3    3    0    0 -0.58881479785E+02 -0.11570993601E+03  0.33666887828E+03  0.36935211234E+03  0.78862103300E+02 0.  0.
         -6    2    1    2    0  501  0.77710787507E+02  0.74841077948E+02  0.25517887484E+03  0.32414852972E+03  0.16827316397E+03 0.  0.
        -24    2    5    5    0    0  0.74217962114E+01  0.78124668673E+01  0.41873010213E+02  0.89724002666E+02  0.78618890685E+02 0.  0.
          5    1    3    3  502    0 -0.18829307721E+02  0.40868858061E+02  0.16259334597E+03  0.16877053221E+03  0.47000000000E+01 0. -1.
        -11    1    4    4    0    0  0.17778826176E+02 -0.98169877190E+01  0.60195921789E+02  0.63529590807E+02  0.00000000000E+00 0.  1.
         12    1    4    4    0    0 -0.76660305961E+02 -0.10589294829E+03  0.27647295649E+03  0.30582252153E+03  0.00000000000E+00 0. -1.
         -5    1    5    5    0  501  0.70288991296E+02  0.67028611080E+02  0.21330586462E+03  0.23442452705E+03  0.47000000000E+01 0.  1.
         13    1    6    6    0    0 -0.32329185272E+02  0.67008951281E+00  0.36848894722E+02  0.49025159689E+02  0.00000000000E+00 0. -1.
        -14    1    6    6    0    0  0.39750981483E+02  0.71423773545E+01  0.50241154907E+01  0.40698842977E+02  0.00000000000E+00 0.  1.
</event>
<event>
12    1  0.1345781E-002  0.1952552E+03  0.7818608E-02  0.1153805E+00
          1   -1    0    0  502    0  0.00000000000E+00  0.00000000000E+00  0.30850056342E+04  0.30850056342E+04  0.00000000000E+00 0. -1.
         -1   -1    0    0    0  501 -0.00000000000E+00 -0.00000000000E+00 -0.19510270223E+02  0.19510270223E+02  0.00000000000E+00 0.  1.
          6    2    1    2  502    0  0.38097917196E+00 -0.93505152543E+02  0.24775196818E+04  0.24852806910E+04  0.17254848697E+03 0.  0.
         24    2    3    3    0    0  0.64311324824E+02 -0.79750623130E+02  0.16473576644E+04  0.16525338259E+04  0.81145934887E+02 0.  0.
         -6    2    1    2    0  501 -0.38097917196E+00  0.93505152543E+02  0.58797568210E+03  0.61923521340E+03  0.17027474294E+03 0.  0.
        -24    2    5    5    0    0  0.17716876287E+02  0.91352427190E+02  0.23286133429E+03  0.26362242311E+03  0.81321751714E+02 0.  0.
          5    1    3    3  502    0 -0.63930345652E+02 -0.13754529414E+02  0.83016201740E+03  0.83274686509E+03  0.47000000000E+01 0. -1.
        -11    1    4    4    0    0  0.50763843605E+01 -0.34742434268E+02  0.18607609085E+03  0.18935975815E+03  0.00000000000E+00 0.  1.
         12    1    4    4    0    0  0.59234940464E+02 -0.45008188861E+02  0.14612815736E+04  0.14631740677E+04  0.00000000000E+00 0. -1.
         -5    1    5    5    0  501 -0.18097855459E+02  0.21527253533E+01  0.35511434781E+03  0.35561279029E+03  0.47000000000E+01 0.  1.
         13    1    6    6    0    0 -0.22748774997E+02  0.46436922380E+01  0.21643534499E+02  0.31741348854E+02  0.00000000000E+00 0. -1.
        -14    1    6    6    0    0  0.40465651284E+02  0.86708734952E+02  0.21121779979E+03  0.23188107426E+03  0.00000000000E+00 0.  1.
</event>
<event>
12    1  0.1345781E-002  0.1857848E+03  0.7818608E-02  0.1162319E+00
         -2   -1    0    0    0  501 -0.00000000000E+00  0.00000000000E+00  0.54791243123E+02  0.54791243123E+02  0.00000000000E+00 0. -1.
          2   -1    0    0  502    0  0.00000000000E+00 -0.00000000000E+00 -0.12021022621E+04  0.12021022621E+04  0.00000000000E+00 0.  1.
          6    2    1    2  502    0 -0.21433421686E+02 -0.66161416804E+02 -0.10073286215E+04  0.10243301694E+04  0.17235028209E+03 0.  0.
         24    2    3    3    0    0  0.48307221679E+02 -0.35547917148E+02 -0.73173958882E+03  0.73837152100E+03  0.78437459744E+02 0.  0.
         -6    2    1    2    0  501  0.21433421686E+02  0.66161416804E+02 -0.13998239745E+03  0.23256333574E+03  0.17220310361E+03 0.  0.
        -24    2    5    5    0    0  0.15855394848E+02  0.93320192901E+02 -0.42923842194E+02  0.13151301831E+03  0.80580182481E+02 0.  0.
          5    1    3    3  502    0 -0.69740643366E+02 -0.30613499656E+02 -0.27558903266E+03  0.28595864845E+03  0.47000000000E+01 0. -1.
        -11    1    4    4    0    0 -0.44622774634E+01 -0.44621902306E+02 -0.30272478868E+03  0.30602830550E+03  0.00000000000E+00 0.  1.
         12    1    4    4    0    0  0.52769499143E+02  0.90739851574E+01 -0.42901480014E+03  0.43234321550E+03  0.00000000000E+00 0. -1.
         -5    1    5    5    0  501  0.55780268384E+01 -0.27158776097E+02 -0.97058555260E+02  0.10105031743E+03  0.47000000000E+01 0.  1.
         13    1    6    6    0    0  0.37730651538E+02  0.56056611159E+02  0.40435600045E+01  0.67692659112E+02  0.00000000000E+00 0. -1.
        -14    1    6    6    0    0 -0.21875256690E+02  0.37263581741E+02 -0.46967402198E+02  0.63820359202E+02  0.00000000000E+00 0.  1.
</event>
<event>
12    1  0.1345781E-002  0.3307543E+03  0.7818608E-02  0.1070804E+00
          2   -1    0    0  502    0  0.00000000000E+00  0.00000000000E+00  0.21093823807E+04  0.21093823807E+04  0.00000000000E+00 0. -1.
         -2   -1    0    0    0  501 -0.00000000000E+00 -0.00000000000E+00 -0.10892466842E+03  0.10892466842E+03  0.00000000000E+00 0.  1.
          6    2    1    2  502    0 -0.26780395025E+03  0.90791250976E+02  0.18032274940E+04  0.18333368314E+04  0.17185032774E+03 0.  0.
         24    2    3    3    0    0 -0.11875760673E+03 -0.20209237914E+02  0.74812715354E+03  0.76198500332E+03  0.80094475230E+02 0.  0.
         -6    2    1    2    0  501  0.26780395025E+03 -0.90791250976E+02  0.19723021834E+03  0.38497021780E+03  0.17129011222E+03 0.  0.
        -24    2    5    5    0    0  0.20591985355E+03 -0.12111549184E+03  0.19237313985E+03  0.31572512975E+03  0.74853083897E+02 0.  0.
          5    1    3    3  502    0 -0.14904634352E+03  0.11100048889E+03  0.10551003404E+04  0.10713518280E+04  0.47000000000E+01 0. -1.
        -13    1    4    4    0    0 -0.12005413705E+03  0.42849617830E+01  0.61966015084E+03  0.63119732197E+03  0.00000000000E+00 0.  1.
         14    1    4    4    0    0  0.12965303251E+01 -0.24494199697E+02  0.12846700270E+03  0.13078768135E+03  0.00000000000E+00 0. -1.
         -5    1    5    5    0  501  0.61884096698E+02  0.30324240864E+02  0.48570784922E+01  0.69245088054E+02  0.47000000000E+01 0.  1.
         11    1    6    6    0    0  0.99540656514E+02 -0.91171397326E+02  0.74622655143E+02  0.15423717662E+03  0.00000000000E+00 0. -1.
        -12    1    6    6    0    0  0.10637919704E+03 -0.29944094514E+02  0.11775048471E+03  0.16148795313E+03  0.00000000000E+00 0.  1.
</event>
<event>
12    1  0.1345781E-002  0.2660000E+03  0.7818608E-02  0.1103591E+00
          2   -1    0    0  502    0  0.00000000000E+00  0.00000000000E+00  0.87085588427E+02  0.87085588427E+02  0.00000000000E+00 0.  1.
         -2   -1    0    0    0  501 -0.00000000000E+00 -0.00000000000E+00 -0.84634450533E+03  0.84634450533E+03  0.00000000000E+00 0. -1.
          6    2    1    2  502    0 -0.20795367174E+03  0.20984275893E+02 -0.46606868347E+03  0.53430772687E+03  0.15677901599E+03 0.  0.
         24    2    3    3    0    0 -0.16257124235E+03 -0.92664913072E+01 -0.23549194595E+03  0.29732166040E+03  0.80177530736E+02 0.  0.
         -6    2    1    2    0  501  0.20795367174E+03 -0.20984275893E+02 -0.29319023343E+03  0.39912236689E+03  0.17220070078E+03 0.  0.
        -24    2    5    5    0    0  0.37932921323E+02  0.23069137048E+02 -0.13142047608E+03  0.16029334194E+03  0.80321369107E+02 0.  0.
          5    1    3    3  502    0 -0.45382429385E+02  0.30250767200E+02 -0.23057673753E+03  0.23698606647E+03  0.47000000000E+01 0. -1.
        -13    1    4    4    0    0 -0.10172031322E+03  0.13521496643E+02 -0.84454097486E+02  0.13289976514E+03  0.00000000000E+00 0.  1.
         14    1    4    4    0    0 -0.60850929129E+02 -0.22787987950E+02 -0.15103784846E+03  0.16442189525E+03  0.00000000000E+00 0. -1.
         -5    1    5    5    0  501  0.17002075041E+03 -0.44053412941E+02 -0.16176975735E+03  0.23882902495E+03  0.47000000000E+01 0.  1.
         11    1    6    6    0    0  0.22369367212E+02  0.39771120792E+01 -0.13364380265E+03  0.13556132191E+03  0.00000000000E+00 0. -1.
        -12    1    6    6    0    0  0.15563554111E+02  0.19092024969E+02  0.22233265763E+01  0.24732020036E+02  0.00000000000E+00 0.  1.
</event>
<event>
12    1  0.1345781E-002  0.2050742E+03  0.7818608E-02  0.1145527E+00
         -1   -1    0    0    0  501 -0.00000000000E+00  0.00000000000E+00  0.35823834554E+03  0.35823834554E+03  0.00000000000E+00 0. -1.
          1   -1    0    0  502    0  0.00000000000E+00 -0.00000000000E+00 -0.12607013345E+03  0.12607013345E+03  0.00000000000E+00 0.  1.
          6    2    1    2  502    0 -0.11702590662E+03 -0.16213880043E+01  0.18111528480E+03  0.27591828769E+03  0.17213501496E+03 0.  0.
         24    2    3    3    0    0 -0.96461239063E+02 -0.37087878940E+02  0.50966834291E+02  0.13938445782E+03  0.78422748468E+02 0.  0.
         -6    2    1    2    0  501  0.11702590662E+03  0.16213880043E+01  0.51052927293E+02  0.20839019130E+03  0.16468873285E+03 0.  0.
        -24    2    5    5    0    0 -0.29065403307E+01  0.11246293779E+02  0.32113785075E+02  0.86500028652E+02  0.79473471451E+02 0.  0.
          5    1    3    3  502    0 -0.20564667559E+02  0.35466490936E+02  0.13014845051E+03  0.13653382988E+03  0.47000000000E+01 0. -1.
        -13    1    4    4    0    0 -0.64082048617E+02 -0.59122454382E+02  0.19995048001E+02  0.89452643961E+02  0.00000000000E+00 0.  1.
         14    1    4    4    0    0 -0.32379190446E+02  0.22034575442E+02  0.30971786290E+02  0.49931813855E+02  0.00000000000E+00 0. -1.
         -5    1    5    5    0  501  0.11993244695E+03 -0.96249057743E+01  0.18939142218E+02  0.12189016265E+03  0.47000000000E+01 0.  1.
         13    1    6    6    0    0  0.17799031541E+02 -0.27313897955E+02  0.67009821223E+00  0.32608336003E+02  0.00000000000E+00 0. -1.
        -14    1    6    6    0    0 -0.20705571871E+02  0.38560191734E+02  0.31443686862E+02  0.53891692649E+02  0.00000000000E+00 0.  1.
</event>
<event>
12    1  0.1345781E-002  0.1889753E+03  0.7818608E-02  0.1159389E+00
         -1   -1    0    0    0  501 -0.00000000000E+00  0.00000000000E+00  0.10512862280E+03  0.10512862280E+03  0.00000000000E+00 0.  1.
          1   -1    0    0  502    0  0.00000000000E+00 -0.00000000000E+00 -0.34048351595E+03  0.34048351595E+03  0.00000000000E+00 0. -1.
          6    2    1    2  502    0 -0.55175220116E+02  0.58299042417E+02 -0.12907450978E+03  0.22988373215E+03  0.17246222187E+03 0.  0.
         24    2    3    3    0    0 -0.17322245228E+02  0.59655453661E+02 -0.61604223520E+01  0.10118000086E+03  0.79627937559E+02 0.  0.
         -6    2    1    2    0  501  0.55175220116E+02 -0.58299042417E+02 -0.10628038337E+03  0.21572840660E+03  0.16970604663E+03 0.  0.
        -24    2    5    5    0    0  0.47034154046E+02  0.27677765896E+02 -0.74630299763E+02  0.12363005527E+03  0.82075809787E+02 0.  0.
          5    1    3    3  502    0 -0.37852974889E+02 -0.13564112448E+01 -0.12291408742E+03  0.12870373129E+03  0.47000000000E+01 0. -1.
        -13    1    4    4    0    0  0.29958135508E+02  0.38723441985E+02 -0.70596357006E+01  0.49465475825E+02  0.00000000000E+00 0.  1.
         14    1    4    4    0    0 -0.47280380736E+02  0.20932011676E+02  0.89921334860E+00  0.51714525039E+02  0.00000000000E+00 0. -1.
         -5    1    5    5    0  501  0.81410660706E+01 -0.85976808313E+02 -0.31650083608E+02  0.92098351325E+02  0.47000000000E+01 0.  1.
         11    1    6    6    0    0  0.26087764490E+02  0.22170324471E+02  0.10482584492E+02  0.35804738805E+02  0.00000000000E+00 0. -1.
        -12    1    6    6    0    0  0.20946389555E+02  0.55074414252E+01 -0.85112884255E+02  0.87825316468E+02  0.00000000000E+00 0.  1.
</event>
<event>
12    1  0.1345781E-002  0.2383954E+03  0.7818608E-02  0.1120866E+00
         -2   -1    0    0    0  501 -0.00000000000E+00  0.00000000000E+00  0.77457478545E+02  0.77457478545E+02  0.00000000000E+00 0. -1.
          2   -1    0    0  502    0  0.00000000000E+00 -0.00000000000E+00 -0.92326354082E+03  0.92326354082E+03  0.00000000000E+00 0.  1.
          6    2    1    2  502    0 -0.14804175449E+03 -0.65179069408E+02 -0.64630329501E+03  0.68807590528E+03  0.17197624872E+03 0.  0.
         24    2    3    3    0    0 -0.26624190070E+02 -0.36399082012E+02 -0.41910504352E+03  0.42882381155E+03  0.78785044120E+02 0.  0.
         -6    2    1    2    0  501  0.14804175449E+03  0.65179069408E+02 -0.19950276726E+03  0.31264511409E+03  0.17827209836E+03 0.  0.
        -24    2    5    5    0    0  0.16342051444E+03  0.14261357015E+02 -0.18203100561E+03  0.25646262439E+03  0.75684475707E+02 0.  0.
          5    1    3    3  502    0 -0.12141756442E+03 -0.28779987396E+02 -0.22719825148E+03  0.25925209373E+03  0.47000000000E+01 0. -1.
        -11    1    4    4    0    0 -0.49757651677E+02 -0.40167966799E+02 -0.24759869929E+03  0.25572329840E+03  0.00000000000E+00 0.  1.
         12    1    4    4    0    0  0.23133461607E+02  0.37688847872E+01 -0.17150634424E+03  0.17310051315E+03  0.00000000000E+00 0. -1.
         -5    1    5    5    0  501 -0.15378759949E+02  0.50917712393E+02 -0.17471761656E+02  0.56182489695E+02  0.47000000000E+01 0.  1.
         13    1    6    6    0    0  0.11508945912E+03  0.12561295154E+02 -0.72162199409E+02  0.13642123280E+03  0.00000000000E+00 0. -1.
        -14    1    6    6    0    0  0.48331055323E+02  0.17000618609E+01 -0.10986880620E+03  0.12004139159E+03  0.00000000000E+00 0.  1.
</event>
<event>
12    1  0.1345781E-002  0.3060494E+03  0.7818608E-02  0.1082255E+00
          3   -1    0    0  502    0  0.00000000000E+00  0.00000000000E+00  0.14423488979E+04  0.14423488979E+04  0.00000000000E+00 0.  1.
         -3   -1    0    0    0  501 -0.00000000000E+00 -0.00000000000E+00 -0.98568764619E+02  0.98568764619E+02  0.00000000000E+00 0. -1.
          6    2    1    2  502    0 -0.23705243149E+03  0.90441728786E+02  0.22165953273E+03  0.37777158345E+03  0.17089429254E+03 0.  0.
         24    2    3    3    0    0 -0.17790632625E+03 -0.33348181900E+01  0.14086020464E+03  0.24050205315E+03  0.79610667526E+02 0.  0.
         -6    2    1    2    0  501  0.23705243149E+03 -0.90441728786E+02  0.11221206005E+04  0.11631460791E+04  0.17140769385E+03 0.  0.
        -24    2    5    5    0    0  0.17723759528E+03 -0.51002936824E+01  0.84489882477E+03  0.86694517067E+03  0.79377116763E+02 0.  0.
          5    1    3    3  502    0 -0.59146105242E+02  0.93776546976E+02  0.80799328091E+02  0.13726953030E+03  0.47000000000E+01 0. -1.
        -13    1    4    4    0    0 -0.16876554339E+03 -0.12342441329E+02  0.97528406762E+02  0.19530984261E+03  0.00000000000E+00 0.  1.
         14    1    4    4    0    0 -0.91407828603E+01  0.90076231394E+01  0.43331797882E+02  0.45192210541E+02  0.00000000000E+00 0. -1.
         -5    1    5    5    0  501  0.59814836210E+02 -0.85341435104E+02  0.27722177576E+03  0.29620090839E+03  0.47000000000E+01 0.  1.
         11    1    6    6    0    0  0.13343902927E+03 -0.72385137421E+01  0.44453767567E+03  0.46418974106E+03  0.00000000000E+00 0. -1.
        -12    1    6    6    0    0  0.43798566014E+02  0.21382200597E+01  0.40036114910E+03  0.40275542961E+03  0.00000000000E+00 0.  1.
</event>
<event>
12    1  0.1345781E-002  0.2210407E+03  0.7818608E-02  0.1133110E+00
         -2   -1    0    0    0  501 -0.00000000000E+00  0.00000000000E+00  0.30594844029E+02  0.30594844029E+02  0.00000000000E+00 0.  1.
          2   -1    0    0  502    0  0.00000000000E+00 -0.00000000000E+00 -0.17889477053E+04  0.17889477053E+04  0.00000000000E+00 0. -1.
          6    2    1    2  502    0  0.46875804531E+02  0.12716406214E+03 -0.11713633866E+04  0.11917374492E+04  0.17256281342E+03 0.  0.
         24    2    3    3    0    0 -0.15199910807E+02 -0.85866863853E+01 -0.17919455139E+03  0.18839167243E+03  0.55461396698E+02 0.  0.
         -6    2    1    2    0  501 -0.46875804531E+02 -0.12716406214E+03 -0.58698947468E+03  0.62780510015E+03  0.17667642921E+03 0.  0.
        -24    2    5    5    0    0 -0.40608817788E+02 -0.16035004699E+03 -0.43838877351E+03  0.47534250441E+03  0.80028533057E+02 0.  0.
          5    1    3    3  502    0  0.62075715338E+02  0.13575074853E+03 -0.99216883522E+03  0.10033457768E+04  0.47000000000E+01 0. -1.
        -11    1    4    4    0    0 -0.24222954105E+02 -0.10741632410E+02 -0.17684877266E+03  0.17882288042E+03  0.00000000000E+00 0.  1.
         12    1    4    4    0    0  0.90230432974E+01  0.21549460247E+01 -0.23457787319E+01  0.95687920123E+01  0.00000000000E+00 0. -1.
         -5    1    5    5    0  501 -0.62669867428E+01  0.33185984850E+02 -0.14860070116E+03  0.15246259574E+03  0.47000000000E+01 0.  1.
         13    1    6    6    0    0  0.10013873272E+02  0.42978503755E+01 -0.18143676522E+02  0.21164644421E+02  0.00000000000E+00 0. -1.
        -14    1    6    6    0    0 -0.50622691060E+02 -0.16464789737E+03 -0.42024509699E+03  0.45417785999E+03  0.00000000000E+00 0.  1.
</event>
<event>
12    1  0.1345781E-002  0.3902792E+03  0.7818608E-02  0.1047199E+00
          2   -1    0    0  502    0  0.00000000000E+00  0.00000000000E+00  0.82191173441E+03  0.82191173441E+03  0.00000000000E+00 0. -1.
         -2   -1    0    0    0  501 -0.00000000000E+00 -0.00000000000E+00 -0.25956007660E+03  0.25956007660E+03  0.00000000000E+00 0.  1.
          6    2    1    2  502    0 -0.33014971457E+03 -0.11565119837E+03  0.57006389836E+03  0.69053374089E+03  0.17172642597E+03 0.  0.
         24    2    3    3    0    0 -0.18439102102E+03 -0.57671390966E+02  0.20262462442E+03  0.29098278689E+03  0.79298208513E+02 0.  0.
         -6    2    1    2    0  501  0.33014971457E+03  0.11565119837E+03 -0.77122405442E+01  0.39093807012E+03  0.17435326867E+03 0.  0.
        -24    2    5    5    0    0  0.25943375209E+03  0.27315773045E+02 -0.33531103539E+02  0.27478042550E+03  0.79548250465E+02 0.  0.
          5    1    3    3  502    0 -0.14575869355E+03 -0.57979807405E+02  0.36743927393E+03  0.39955095400E+03  0.47000000000E+01 0. -1.
        -13    1    4    4    0    0 -0.19839105170E+02  0.17918475902E+02  0.36493529606E+02  0.45237590295E+02  0.00000000000E+00 0.  1.
         14    1    4    4    0    0 -0.16455191585E+03 -0.75589866868E+02  0.16613109482E+03  0.24574519659E+03  0.00000000000E+00 0. -1.
         -5    1    5    5    0  501  0.70715962488E+02  0.88335425326E+02  0.25818862995E+02  0.11615764462E+03  0.47000000000E+01 0.  1.
         13    1    6    6    0    0  0.23794735356E+02  0.28394201880E+02 -0.29624210328E+01  0.37164446309E+02  0.00000000000E+00 0. -1.
        -14    1    6    6    0    0  0.23563901673E+03 -0.10784288352E+01 -0.30568682506E+02  0.23761597919E+03  0.00000000000E+00 0.  1.
</event>
<event>
12    1  0.1345781E-002  0.2267649E+03  0.7818608E-02  0.1128938E+00
          1   -1    0    0  502    0  0.00000000000E+00  0.00000000000E+00  0.38898484426E+04  0.38898484426E+04  0.00000000000E+00 0.  1.
         -1   -1    0    0    0  501 -0.00000000000E+00 -0.00000000000E+00 -0.17831264547E+02  0.17831264547E+02  0.00000000000E+00 0. -1.
          6    2    1    2  502    0 -0.80287312529E+01 -0.14823529592E+03  0.94240413966E+03  0.96930380882E+03  0.17142388357E+03 0.  0.
         24    2    3    3    0    0 -0.58293652573E+02 -0.14066984067E+03  0.64079580503E+03  0.66340598936E+03  0.79385697551E+02 0.  0.
         -6    2    1    2    0  501  0.80287312529E+01  0.14823529592E+03  0.29296130384E+04  0.29383758983E+04  0.17141237318E+03 0.  0.
        -24    2    5    5    0    0  0.66556093388E+02  0.70954699757E+02  0.18820680367E+04  0.18863443573E+04  0.81551558665E+02 0.  0.
          5    1    3    3  502    0  0.50264921320E+02 -0.75654552485E+01  0.30160833463E+03  0.30589781945E+03  0.47000000000E+01 0. -1.
        -11    1    4    4    0    0 -0.19037375516E+02 -0.91222355453E+02  0.50660815377E+03  0.51510752399E+03  0.00000000000E+00 0.  1.
         12    1    4    4    0    0 -0.39256277058E+02 -0.49447485216E+02  0.13418765125E+03  0.14829846537E+03  0.00000000000E+00 0. -1.
         -5    1    5    5    0  501 -0.58527362136E+02  0.77280596160E+02  0.10475450017E+04  0.10520315410E+04  0.47000000000E+01 0.  1.
         11    1    6    6    0    0  0.18148046443E+01  0.55333327829E+02  0.60039345965E+03  0.60294060825E+03  0.00000000000E+00 0. -1.
        -12    1    6    6    0    0  0.64741288744E+02  0.15621371928E+02  0.12816745770E+04  0.12834037491E+04  0.00000000000E+00 0.  1.
</event>
<event>
12    1  0.1345781E-002  0.2074064E+03  0.7818608E-02  0.1143636E+00
         -2   -1    0    0    0  501 -0.00000000000E+00  0.00000000000E+00  0.28092351341E+02  0.28092351341E+02  0.00000000000E+00 0. -1.
          2   -1    0    0  502    0  0.00000000000E+00 -0.00000000000E+00 -0.15354942521E+04  0.15354942521E+04  0.00000000000E+00 0.  1.
          6    2    1    2  502    0 -0.79659582390E+02 -0.55781473119E+02 -0.76697250107E+03  0.79303517708E+03  0.17663734852E+03 0.  0.
         24    2    3    3    0    0 -0.51575854716E+02 -0.83839061870E+02 -0.72069871607E+03  0.73188554729E+03  0.80998505516E+02 0.  0.
         -6    2    1    2    0  501  0.79659582390E+02  0.55781473119E+02 -0.74042939966E+03  0.77055142632E+03  0.18988571015E+03 0.  0.
        -24    2    5    5    0    0 -0.22210092024E+02  0.56412935582E+02 -0.21754142719E+03  0.23781157323E+03  0.74527607864E+02 0.  0.
          5    1    3    3  502    0 -0.28083727674E+02  0.28057588752E+02 -0.46273784997E+02  0.61149629799E+02  0.47000000000E+01 0. -1.
        -11    1    4    4    0    0 -0.92068200763E+01 -0.36602955931E+02 -0.84694393729E+02  0.92723687631E+02  0.00000000000E+00 0.  1.
         12    1    4    4    0    0 -0.42369034640E+02 -0.47236105939E+02 -0.63600432234E+03  0.63916185965E+03  0.00000000000E+00 0. -1.
         -5    1    5    5    0  501  0.10186967441E+03 -0.63146246315E+00 -0.52288797247E+03  0.53273985309E+03  0.47000000000E+01 0.  1.
         11    1    6    6    0    0 -0.26272180520E+01 -0.14301368565E+02 -0.99109968985E+01  0.17597138320E+02  0.00000000000E+00 0. -1.
        -12    1    6    6    0    0 -0.19582873972E+02  0.70714304146E+02 -0.20763043029E+03  0.22021443492E+03  0.00000000000E+00 0.  1.
</event>
<event>
12    1  0.1345781E-002  0.2638585E+03  0.7818608E-02  0.1104847E+00
         -2   -1    0    0    0  501 -0.00000000000E+00  0.00000000000E+00  0.24769285048E+03  0.24769285048E+03  0.00000000000E+00 0. -1.
          2   -1    0    0  502    0  0.00000000000E+00 -0.00000000000E+00 -0.29690446545E+03  0.29690446545E+03  0.00000000000E+00 0.  1.
          6    2    1    2  502    0 -0.24352801575E+02  0.19988346326E+03  0.38087443327E+02  0.26826202939E+03  0.17311096223E+03 0.  0.
         24    2    3    3    0    0 -0.55333649626E+02  0.10542860851E+03 -0.31699552964E+02  0.14671431290E+03  0.79644357485E+02 0.  0.
         -6    2    1    2    0  501  0.24352801575E+02 -0.19988346326E+03 -0.87299058292E+02  0.27633528654E+03  0.16790952082E+03 0.  0.
        -24    2    5    5    0    0  0.42301084112E+02 -0.20722429090E+03 -0.42923083108E+02  0.22767990894E+03  0.72556608341E+02 0.  0.
          5    1    3    3  502    0  0.30980848051E+02  0.94454854746E+02  0.69786996291E+02  0.12154771648E+03  0.47000000000E+01 0. -1.
        -13    1    4    4    0    0  0.19221551216E+02  0.97275703924E+01 -0.87306163874E+01  0.23244726701E+02  0.00000000000E+00 0.  1.
         14    1    4    4    0    0 -0.74555200843E+02  0.95701038118E+02 -0.22968936577E+02  0.12346958620E+03  0.00000000000E+00 0. -1.
         -5    1    5    5    0  501 -0.17948282537E+02  0.73408276423E+01 -0.44375975184E+02  0.48655377606E+02  0.47000000000E+01 0.  1.
         11    1    6    6    0    0  0.18440220351E+02 -0.12637213146E+03  0.10070960726E+02  0.12810691467E+03  0.00000000000E+00 0. -1.
        -12    1    6    6    0    0  0.23860863761E+02 -0.80852159443E+02 -0.52994043834E+02  0.99572994269E+02  0.00000000000E+00 0.  1.
</event>
<event>
12    1  0.1345781E-002  0.1842935E+03  0.7818608E-02  0.1163711E+00
         -1   -1    0    0    0  501 -0.00000000000E+00  0.00000000000E+00  0.97497777224E+01  0.97497777224E+01  0.00000000000E+00 0. -1.
          1   -1    0    0  502    0  0.00000000000E+00 -0.00000000000E+00 -0.34860632938E+04  0.34860632938E+04  0.00000000000E+00 0.  1.
          6    2    1    2  502    0  0.14308589109E+02 -0.65031485784E+02 -0.17809623572E+04  0.17904318155E+04  0.17142152279E+03 0.  0.
         24    2    3    3    0    0 -0.40303514433E+02 -0.77177747977E+02 -0.91068271764E+03  0.91834308464E+03  0.80188720114E+02 0.  0.
         -6    2    1    2    0  501 -0.14308589109E+02  0.65031485784E+02 -0.16953511589E+04  0.17053812560E+04  0.17226678867E+03 0.  0.
        -24    2    5    5    0    0 -0.28621012695E+02  0.65434451285E+02 -0.57437364959E+03  0.58430245671E+03  0.80021508290E+02 0.  0.
          5    1    3    3  502    0  0.54612103541E+02  0.12146262193E+02 -0.87027963955E+03  0.87208873089E+03  0.47000000000E+01 0. -1.
        -13    1    4    4    0    0 -0.30004017098E+02 -0.31359351072E+02 -0.74133873637E+03  0.74260808774E+03  0.00000000000E+00 0.  1.
         14    1    4    4    0    0 -0.10299497334E+02 -0.45818396904E+02 -0.16934398128E+03  0.17573499690E+03  0.00000000000E+00 0. -1.
         -5    1    5    5    0  501  0.14312423587E+02 -0.40296550161E+00 -0.11209775093E+04  0.11210787993E+04  0.47000000000E+01 0.  1.
         11    1    6    6    0    0 -0.34606733342E+02  0.72921356519E+02 -0.56552781947E+03  0.57125901728E+03  0.00000000000E+00 0. -1.
        -12    1    6    6    0    0  0.59857206462E+01 -0.74869052332E+01 -0.88458301224E+01  0.13043439431E+02  0.00000000000E+00 0.  1.
</event>
<event>
12    1  0.1345781E-002  0.1950532E+03  0.7818608E-02  0.1153981E+00
          1   -1    0    0  502    0  0.00000000000E+00  0.00000000000E+00  0.11907931322E+04  0.11907931322E+04  0.00000000000E+00 0. -1.
         -1   -1    0    0    0  501 -0.00000000000E+00 -0.00000000000E+00 -0.37114447092E+02  0.37114447092E+02  0.00000000000E+00 0.  1.
          6    2    1    2  502    0 -0.68008117515E+02 -0.61992262625E+02  0.80545900219E+03  0.82870276185E+03  0.17180197503E+03 0.  0.
         24    2    3    3    0    0 -0.11320860747E+03 -0.40561284543E+02  0.59695186324E+03  0.61422738307E+03  0.80388708628E+02 0.  0.
         -6    2    1    2    0  501  0.68008117515E+02  0.61992262625E+02  0.34821968288E+03  0.39920481740E+03  0.17216095381E+03 0.  0.
        -24    2    5    5    0    0  0.68611618349E+02 -0.20544095976E+02  0.23422238867E+03  0.25838547288E+03  0.82300128723E+02 0.  0.
          5    1    3    3  502    0  0.45200489952E+02 -0.21430978082E+02  0.20850713895E+03  0.21447537879E+03  0.47000000000E+01 0. -1.
        -13    1    4    4    0    0 -0.77402344883E+00 -0.15920792259E+01 -0.25085848080E+01  0.30703137136E+01  0.00000000000E+00 0.  1.
         14    1    4    4    0    0 -0.11243458402E+03 -0.38969205318E+02  0.59946044805E+03  0.61115706935E+03  0.00000000000E+00 0. -1.
         -5    1    5    5    0  501 -0.60350083383E+00  0.82536358601E+02  0.11399729421E+03  0.14081934452E+03  0.47000000000E+01 0.  1.
         13    1    6    6    0    0 -0.11905376004E+02 -0.22760996535E+02  0.34339650727E+02  0.42883709647E+02  0.00000000000E+00 0. -1.
        -14    1    6    6    0    0  0.80516994353E+02  0.22169005588E+01  0.19988273794E+03  0.21550176323E+03  0.00000000000E+00 0.  1.
</event>
<event>
12    1  0.1345781E-002  0.1958056E+03  0.7818608E-02  0.1153327E+00
         -1   -1    0    0    0  501 -0.00000000000E+00  0.00000000000E+00  0.13078053216E+02  0.13078053216E+02  0.00000000000E+00 0. -1.
          1   -1    0    0  502    0  0.00000000000E+00 -0.00000000000E+00 -0.29322987057E+04  0.29322987057E+04  0.00000000000E+00 0.  1.
          6    2    1    2  502    0  0.92276455696E+02  0.11244854457E+02 -0.14350984148E+04  0.14483562571E+04  0.17200870972E+03 0.  0.
         24    2    3    3    0    0 -0.11352307379E+01  0.16993683679E+02 -0.10004525392E+04  0.10037239153E+04  0.79160222753E+02 0.  0.
         -6    2    1    2    0  501 -0.92276455696E+02 -0.11244854457E+02 -0.14841222376E+04  0.14970205018E+04  0.17265623510E+03 0.  0.
        -24    2    5    5    0    0 -0.20995943920E+02 -0.54145129801E+02 -0.10697065398E+04  0.10743104291E+04  0.80611983831E+02 0.  0.
          5    1    3    3  502    0  0.93411686433E+02 -0.57488292221E+01 -0.43464587560E+03  0.44463234180E+03  0.47000000000E+01 0. -1.
        -11    1    4    4    0    0 -0.35607600046E+02  0.21407316865E+02 -0.37238266252E+03  0.37469323685E+03  0.00000000000E+00 0.  1.
         12    1    4    4    0    0  0.34472369308E+02 -0.44136331858E+01 -0.62806987669E+03  0.62903067843E+03  0.00000000000E+00 0. -1.
         -5    1    5    5    0  501 -0.71280511775E+02  0.42900275344E+02 -0.41441569778E+03  0.42271007269E+03  0.47000000000E+01 0.  1.
         11    1    6    6    0    0 -0.49416855337E+02 -0.46749237842E+02 -0.83663510323E+03  0.83939610005E+03  0.00000000000E+00 0. -1.
        -12    1    6    6    0    0  0.28420911417E+02 -0.73958919590E+01 -0.23307143662E+03  0.23491432904E+03  0.00000000000E+00 0.  1.
</event>
<event>
12    1  0.1345781E-002  0.1950028E+03  0.7818608E-02  0.1154025E+00
          2   -1    0    0  502    0  0.00000000000E+00  0.00000000000E+00  0.59285302914E+03  0.59285302914E+03  0.00000000000E+00 0. -1.
         -2   -1    0    0    0  501 -0.00000000000E+00 -0.00000000000E+00 -0.67116980050E+02  0.67116980050E+02  0.00000000000E+00 0.  1.
          6    2    1    2  502    0  0.42358477553E+02 -0.79324250017E+02  0.33072564357E+03  0.38330791070E+03  0.17163602719E+03 0.  0.
         24    2    3    3    0    0  0.25909384842E+02  0.23544438305E+01  0.89784593448E+02  0.12832426159E+03  0.87914749976E+02 0.  0.
         -6    2    1    2    0  501 -0.42358477553E+02  0.79324250017E+02  0.19501040552E+03  0.27666209849E+03  0.17443130802E+03 0.  0.
        -24    2    5    5    0    0 -0.59785885824E+02 -0.91233953167E+01  0.72305956511E+02  0.12432965831E+03  0.81068638221E+02 0.  0.
          5    1    3    3  502    0  0.16449092711E+02 -0.81678693848E+02  0.24094105012E+03  0.25498364911E+03  0.47000000000E+01 0. -1.
        -11    1    4    4    0    0  0.57707492228E+02  0.84303965083E+01  0.48440866232E+02  0.75813875813E+02  0.00000000000E+00 0.  1.
         12    1    4    4    0    0 -0.31798107386E+02 -0.60759526779E+01  0.41343727216E+02  0.52510385776E+02  0.00000000000E+00 0. -1.
         -5    1    5    5    0  501  0.17427408271E+02  0.88447645334E+02  0.12270444901E+03  0.15233244018E+03  0.47000000000E+01 0.  1.
         13    1    6    6    0    0  0.19880547494E+02  0.34592483248E+01  0.18493246631E+02  0.27371568070E+02  0.00000000000E+00 0. -1.
        -14    1    6    6    0    0 -0.79666433318E+02 -0.12582643641E+02  0.53812709879E+02  0.96958090241E+02  0.00000000000E+00 0.  1.
</event>
<event>
12    1  0.1345781E-002  0.2865164E+03  0.7818608E-02  0.1092182E+00
          1   -1    0    0  502    0  0.00000000000E+00  0.00000000000E+00  0.12691185464E+04  0.12691185464E+04  0.00000000000E+00 0. -1.
         -1   -1    0    0    0  501 -0.00000000000E+00 -0.00000000000E+00 -0.92993841582E+02  0.92993841582E+02  0.00000000000E+00 0.  1.
          6    2    1    2  502    0 -0.11744659617E+03 -0.19607015339E+03  0.96402061615E+03  0.10057346220E+04  0.17300050135E+03 0.  0.
         24    2    3    3    0    0 -0.46803695003E+02 -0.13362343994E+03  0.36239904370E+03  0.39675135624E+03  0.77670858329E+02 0.  0.
         -6    2    1    2    0  501  0.11744659617E+03  0.19607015339E+03  0.21210408871E+03  0.35637776605E+03  0.17256813057E+03 0.  0.
        -24    2    5    5    0    0  0.14277508768E+03  0.12438665312E+03  0.17883853429E+03  0.27325891258E+03  0.82646517285E+02 0.  0.
          5    1    3    3  502    0 -0.70642901168E+02 -0.62446713444E+02  0.60162157245E+03  0.60898326573E+03  0.47000000000E+01 0. -1.
        -11    1    4    4    0    0 -0.17215639792E+02 -0.12316385951E+03  0.32469316774E+03  0.34769435963E+03  0.00000000000E+00 0.  1.
         12    1    4    4    0    0 -0.29588055211E+02 -0.10459580432E+02  0.37705875957E+02  0.49056996602E+02  0.00000000000E+00 0. -1.
         -5    1    5    5    0  501 -0.25328491506E+02  0.71683500268E+02  0.33265554420E+02  0.83118853478E+02  0.47000000000E+01 0.  1.
         13    1    6    6    0    0  0.66651246041E+02  0.69951303397E+02  0.37281792071E+02  0.10356401627E+03  0.00000000000E+00 0. -1.
        -14    1    6    6    0    0  0.76123841636E+02  0.54435349724E+02  0.14155674222E+03  0.16969489631E+03  0.00000000000E+00 0.  1.
</event>
<event>
12    1  0.1345781E-002  0.2464191E+03  0.7818608E-02  0.1115589E+00
          2   -1    0    0  502    0  0.00000000000E+00  0.00000000000E+00  0.83496075511E+03  0.83496075511E+03  0.00000000000E+00 0.  1.
         -2   -1    0    0    0  501 -0.00000000000E+00 -0.00000000000E+00 -0.76749065917E+02  0.76749065917E+02  0.00000000000E+00 0. -1.
          6    2    1    2  502    0 -0.16762812825E+03 -0.49262037379E+02  0.27310833818E+03  0.36709748804E+03  0.17218148460E+03 0.  0.
         24    2    3    3    0    0 -0.17629713968E+02 -0.66967348865E+01  0.56369518079E+02  0.10005978396E+03  0.80490898399E+02 0.  0.
         -6    2    1    2    0  501  0.16762812825E+03  0.49262037379E+02  0.48510335102E+03  0.54461233299E+03  0.17536075493E+03 0.  0.
        -24    2    5    5    0    0  0.66133691724E+02  0.86330167627E+02  0.22099315225E+03  0.25921532176E+03  0.80796328322E+02 0.  0.
          5    1    3    3  502    0 -0.14999841428E+03 -0.42565302493E+02  0.21673882010E+03  0.26703770408E+03  0.47000000000E+01 0. -1.
        -11    1    4    4    0    0  0.32364089139E+02 -0.29944692480E+01  0.23652178218E+02  0.40197346260E+02  0.00000000000E+00 0.  1.
         12    1    4    4    0    0 -0.49993803107E+02 -0.37022656386E+01  0.32717339861E+02  0.59862437701E+02  0.00000000000E+00 0. -1.
         -5    1    5    5    0  501  0.10149443652E+03 -0.37068130248E+02  0.26411019876E+03  0.28539701123E+03  0.47000000000E+01 0.  1.
         11    1    6    6    0    0 -0.15943547833E+02  0.29474629956E+01  0.45435483120E+02  0.48241759731E+02  0.00000000000E+00 0. -1.
        -12    1    6    6    0    0  0.82077239557E+02  0.83382704632E+02  0.17555766913E+03  0.21097356203E+03  0.00000000000E+00 0.  1.
</event>
<event>
12    1  0.1345781E-002  0.2895928E+03  0.7818608E-02  0.1090562E+00
         -2   -1    0    0    0  501 -0.00000000000E+00  0.00000000000E+00  0.60111040861E+02  0.60111040861E+02  0.00000000000E+00 0. -1.
          2   -1    0    0  502    0  0.00000000000E+00 -0.00000000000E+00 -0.14765637572E+04  0.14765637572E+04  0.00000000000E+00 0.  1.
          6    2    1    2  502    0  0.14043277256E+03 -0.18768419451E+03 -0.53219501764E+03  0.60678182121E+03  0.17322217315E+03 0.  0.
         24    2    3    3    0    0  0.15447037998E+03 -0.96304704319E+02 -0.36919828155E+03  0.41933238369E+03  0.79978638058E+02 0.  0.
         -6    2    1    2    0  501 -0.14043277256E+03  0.18768419451E+03 -0.88425769869E+03  0.92989297684E+03  0.16686087083E+03 0.  0.
        -24    2    5    5    0    0 -0.16546222261E+02  0.11958604790E+03 -0.40533916330E+03  0.43052308543E+03  0.80471668652E+02 0.  0.
          5    1    3    3  502    0 -0.14037607422E+02 -0.91379490192E+02 -0.16299673609E+03  0.18744943752E+03  0.47000000000E+01 0. -1.
        -11    1    4    4    0    0 -0.81042918153E-01  0.10691288964E+02 -0.23961821395E+02  0.26238885500E+02  0.00000000000E+00 0.  1.
         12    1    4    4    0    0  0.15455142290E+03 -0.10699599328E+03 -0.34523646015E+03  0.39309349819E+03  0.00000000000E+00 0. -1.
         -5    1    5    5    0  501 -0.12388655030E+03  0.68098146614E+02 -0.47891853539E+03  0.49936989142E+03  0.47000000000E+01 0.  1.
         13    1    6    6    0    0 -0.80553679488E+01  0.33810347295E+02 -0.31603831985E+02  0.46976917024E+02  0.00000000000E+00 0. -1.
        -14    1    6    6    0    0 -0.84908543123E+01  0.85775700602E+02 -0.37373533132E+03  0.38354616840E+03  0.00000000000E+00 0.  1.
</event>
<event>
12    1  0.1345781E-002  0.2410497E+03  0.7818608E-02  0.1119095E+00
         -2   -1    0    0    0  501 -0.00000000000E+00  0.00000000000E+00  0.28100887368E+02  0.28100887368E+02  0.00000000000E+00 0.  1.
          2   -1    0    0  502    0  0.00000000000E+00 -0.00000000000E+00 -0.22796634406E+04  0.22796634406E+04  0.00000000000E+00 0. -1.
          6    2    1    2  502    0  0.14315380153E+02  0.16135169107E+03 -0.79833186113E+03  0.83556080575E+03  0.18598064764E+03 0.  0.
         24    2    3    3    0    0  0.84444994308E+02  0.11110185393E+03 -0.50940667084E+03  0.53399312761E+03  0.78606138648E+02 0.  0.
         -6    2    1    2    0  501 -0.14315380153E+02 -0.16135169107E+03 -0.14532306922E+04  0.14722035223E+04  0.17106860622E+03 0.  0.
        -24    2    5    5    0    0 -0.71686088845E+02 -0.98339551036E+02 -0.10556001775E+04  0.10655168564E+04  0.78897870105E+02 0.  0.
          5    1    3    3  502    0 -0.70129614155E+02  0.50249837140E+02 -0.28892519029E+03  0.30156767814E+03  0.47000000000E+01 0. -1.
        -11    1    4    4    0    0 -0.16362215634E+01  0.36118662249E+02 -0.57766342898E+02  0.68148260106E+02  0.00000000000E+00 0.  1.
         12    1    4    4    0    0  0.86081215872E+02  0.74983191679E+02 -0.45164032794E+03  0.46584486751E+03  0.00000000000E+00 0. -1.
         -5    1    5    5    0  501  0.57370708691E+02 -0.63012140032E+02 -0.39763051466E+03  0.40668666587E+03  0.47000000000E+01 0.  1.
         11    1    6    6    0    0  0.18005161346E+01 -0.59370496957E+02 -0.34642964826E+03  0.35148484884E+03  0.00000000000E+00 0. -1.
        -12    1    6    6    0    0 -0.73486604979E+02 -0.38969054079E+02 -0.70917052923E+03  0.71403200756E+03  0.00000000000E+00 0.  1.
</event>
<event>
12    1  0.1345781E-002  0.1827437E+03  0.7818608E-02  0.1165174E+00
         -2   -1    0    0    0  501 -0.00000000000E+00  0.00000000000E+00  0.98165805723E+02  0.98165805723E+02  0.00000000000E+00 0. -1.
          2   -1    0    0  502    0  0.00000000000E+00 -0.00000000000E+00 -0.36780784183E+03  0.36780784183E+03  0.00000000000E+00 0.  1.
          6    2    1    2  502    0 -0.53822898492E+02  0.29547991356E+02 -0.19841905133E+03  0.26951186156E+03  0.17174555422E+03 0.  0.
         24    2    3    3    0    0  0.13341383501E+01 -0.23456272993E+02 -0.16796434852E+03  0.18704168710E+03  0.78870740269E+02 0.  0.
         -6    2    1    2    0  501  0.53822898492E+02 -0.29547991356E+02 -0.71222984777E+02  0.19646178599E+03  0.17249501906E+03 0.  0.
        -24    2    5    5    0    0 -0.26508127567E+02 -0.27830353885E+02  0.24473223519E+01  0.87349787669E+02  0.78401445106E+02 0.  0.
          5    1    3    3  502    0 -0.55157036842E+02  0.53004264349E+02 -0.30454702810E+02  0.82470174461E+02  0.47000000000E+01 0. -1.
        -13    1    4    4    0    0 -0.90960115255E+01  0.23575121605E+02 -0.10365012116E+03  0.10668585380E+03  0.00000000000E+00 0.  1.
         14    1    4    4    0    0  0.10430149876E+02 -0.47031394597E+02 -0.64314227362E+02  0.80355833300E+02  0.00000000000E+00 0. -1.
         -5    1    5    5    0  501  0.80331026059E+02 -0.17176374718E+01 -0.73670307128E+02  0.10911199833E+03  0.47000000000E+01 0.  1.
         11    1    6    6    0    0 -0.63344289628E+01  0.27591663683E+02  0.18028041605E+01  0.28366793931E+02  0.00000000000E+00 0. -1.
        -12    1    6    6    0    0 -0.20173698604E+02 -0.55422017567E+02  0.64451819149E+00  0.58982993738E+02  0.00000000000E+00 0.  1.
</event>
<event>
12    1  0.1345781E-002  0.1765464E+03  0.7818608E-02  0.1171188E+00
          2   -1    0    0  502    0  0.00000000000E+00  0.00000000000E+00  0.15326370408E+03  0.15326370408E+03  0.00000000000E+00 0.  1.
         -2   -1    0    0    0  501 -0.00000000000E+00 -0.00000000000E+00 -0.24565212794E+03  0.24565212794E+03  0.00000000000E+00 0. -1.
          6    2    1    2  502    0  0.42948673695E+01 -0.16510212178E+02  0.37238677564E+02  0.17697098339E+03  0.17216555075E+03 0.  0.
         24    2    3    3    0    0 -0.12584288318E+01 -0.16915226869E+02  0.78251745094E+02  0.13531567348E+03  0.10908385460E+03 0.  0.
         -6    2    1    2    0  501 -0.42948673695E+01  0.16510212178E+02 -0.12962710142E+03  0.22194484863E+03  0.17934686342E+03 0.  0.
        -24    2    5    5    0    0 -0.41725030156E+02  0.58575131542E+02 -0.36984745467E+02  0.11343139028E+03  0.79541088291E+02 0.  0.
          5    1    3    3  502    0  0.55532962013E+01  0.40501469121E+00 -0.41013067531E+02  0.41655309912E+02  0.47000000000E+01 0. -1.
        -13    1    4    4    0    0 -0.36963471810E+02 -0.84591569842E+01 -0.10442925136E+02  0.39330780192E+02  0.00000000000E+00 0.  1.
         14    1    4    4    0    0  0.35705042978E+02 -0.84560698847E+01  0.88694670230E+02  0.95984893286E+02  0.00000000000E+00 0. -1.
         -5    1    5    5    0  501  0.37430162787E+02 -0.42064919365E+02 -0.92642355956E+02  0.10851345836E+03  0.47000000000E+01 0.  1.
         13    1    6    6    0    0  0.21743451623E+02  0.14805130393E+02 -0.23275385859E+02  0.35124253178E+02  0.00000000000E+00 0. -1.
        -14    1    6    6    0    0 -0.63468481779E+02  0.43770001149E+02 -0.13709359608E+02  0.78307137100E+02  0.00000000000E+00 0.  1.
</event>
<event>
12    1  0.1345781E-002  0.1866428E+03  0.7818608E-02  0.1161525E+00
         -1   -1    0    0    0  501 -0.00000000000E+00  0.00000000000E+00  0.40673939656E+02  0.40673939656E+02  0.00000000000E+00 0. -1.
          1   -1    0    0  502    0  0.00000000000E+00 -0.00000000000E+00 -0.85952043987E+03  0.85952043987E+03  0.00000000000E+00 0.  1.
          6    2    1    2  502    0 -0.39198582051E+02  0.67846665226E+02 -0.44268253381E+03  0.48183315641E+03  0.17336570035E+03 0.  0.
         24    2    3    3    0    0 -0.80566955293E+02  0.31292268729E+02 -0.38092246419E+03  0.39886350890E+03  0.80746112228E+02 0.  0.
         -6    2    1    2    0  501  0.39198582051E+02 -0.67846665226E+02 -0.37616396641E+03  0.41836122312E+03  0.16549043649E+03 0.  0.
        -24    2    5    5    0    0  0.26912272072E+02 -0.13958526275E+02 -0.77134308137E+02  0.11423014701E+03  0.78611157922E+02 0.  0.
          5    1    3    3  502    0  0.41368373242E+02  0.36554396497E+02 -0.61760069616E+02  0.82969647504E+02  0.47000000000E+01 0. -1.
        -11    1    4    4    0    0 -0.18911893565E+02  0.47368645043E+02 -0.12233357967E+03  0.13254038240E+03  0.00000000000E+00 0.  1.
         12    1    4    4    0    0 -0.61655061728E+02 -0.16076376315E+02 -0.25858888453E+03  0.26632312651E+03  0.00000000000E+00 0. -1.
         -5    1    5    5    0  501  0.12286309979E+02 -0.53888138951E+02 -0.29902965827E+03  0.30413107611E+03  0.47000000000E+01 0.  1.
         13    1    6    6    0    0 -0.17419600511E+02 -0.30382688388E+02 -0.45192912546E+02  0.57174728509E+02  0.00000000000E+00 0. -1.
        -14    1    6    6    0    0  0.44331872582E+02  0.16424162114E+02 -0.31941395591E+02  0.57055418499E+02  0.00000000000E+00 0.  1.
</event>
<event>
12    1  0.1345781E-002  0.1927022E+03  0.7818608E-02  0.1156046E+00
         -1   -1    0    0    0  501 -0.00000000000E+00  0.00000000000E+00  0.65542304616E+02  0.65542304616E+02  0.00000000000E+00 0.  1.
          1   -1    0    0  502    0  0.00000000000E+00 -0.00000000000E+00 -0.58201983710E+03  0.58201983710E+03  0.00000000000E+00 0. -1.
          6    2    1    2  502    0 -0.39829057772E+02 -0.77618065130E+02 -0.20508066688E+03  0.28119949742E+03  0.17147641105E+03 0.  0.
         24    2    3    3    0    0 -0.24585485001E+02 -0.11690898200E+03 -0.12357171605E+03  0.18931945756E+03  0.79370850197E+02 0.  0.
         -6    2    1    2    0  501  0.39829057772E+02  0.77618065130E+02 -0.31139686561E+03  0.36636264430E+03  0.17217044273E+03 0.  0.
        -24    2    5    5    0    0 -0.41480023164E+02  0.18580687056E+02 -0.14588497148E+03  0.17268028643E+03  0.80437691187E+02 0.  0.
          5    1    3    3  502    0 -0.15243572771E+02  0.39290916866E+02 -0.81508950827E+02  0.91880039855E+02  0.47000000000E+01 0. -1.
        -13    1    4    4    0    0 -0.38166808158E+02 -0.46469952305E+02 -0.94297237948E+02  0.11183975499E+03  0.00000000000E+00 0.  1.
         14    1    4    4    0    0  0.13581323157E+02 -0.70439029691E+02 -0.29274478101E+02  0.77479702572E+02  0.00000000000E+00 0. -1.
         -5    1    5    5    0  501  0.81309080935E+02  0.59037378074E+02 -0.16551189413E+03  0.19368235787E+03  0.47000000000E+01 0.  1.
         11    1    6    6    0    0 -0.10397613955E+02  0.37454949778E+02 -0.24459472790E+02  0.45926565820E+02  0.00000000000E+00 0. -1.
        -12    1    6    6    0    0 -0.31082409209E+02 -0.18874262722E+02 -0.12142549869E+03  0.12675372061E+03  0.00000000000E+00 0.  1.
</event>
<event>
12    1  0.1345781E-002  0.2317712E+03  0.7818608E-02  0.1125399E+00
          1   -1    0    0  502    0  0.00000000000E+00  0.00000000000E+00  0.75408171445E+03  0.75408171445E+03  0.00000000000E+00 0. -1.
         -1   -1    0    0    0  501 -0.00000000000E+00 -0.00000000000E+00 -0.91454117402E+02  0.91454117402E+02  0.00000000000E+00 0.  1.
          6    2    1    2  502    0  0.42420021963E+02 -0.14566371426E+03  0.53179598883E+03  0.58072958366E+03  0.17726392661E+03 0.  0.
         24    2    3    3    0    0  0.45381123510E+01 -0.14976562892E+02  0.93675480945E+02  0.12194222546E+03  0.76484761358E+02 0.  0.
         -6    2    1    2    0  501 -0.42420021963E+02  0.14566371426E+03  0.13083160822E+03  0.26480624820E+03  0.17317061951E+03 0.  0.
        -24    2    5    5    0    0 -0.18548013540E+02  0.16278223878E+03  0.67312005683E+02  0.19466534306E+03  0.80756446243E+02 0.  0.
          5    1    3    3  502    0  0.37881909612E+02 -0.13068715137E+03  0.43812050789E+03  0.45878735820E+03  0.47000000000E+01 0. -1.
        -13    1    4    4    0    0 -0.33018434370E+02 -0.16940337293E+02  0.64223078582E+02  0.74174091558E+02  0.00000000000E+00 0.  1.
         14    1    4    4    0    0  0.37556546721E+02  0.19637744012E+01  0.29452402363E+02  0.47768133902E+02  0.00000000000E+00 0. -1.
         -5    1    5    5    0  501 -0.23872008423E+02 -0.17118524519E+02  0.63519602532E+02  0.70140905139E+02  0.47000000000E+01 0.  1.
         11    1    6    6    0    0 -0.48460058719E+02  0.10486743523E+03  0.56471262198E+02  0.12858677894E+03  0.00000000000E+00 0. -1.
        -12    1    6    6    0    0  0.29912045179E+02  0.57914803549E+02  0.10840743485E+02  0.66078564120E+02  0.00000000000E+00 0.  1.
</event>
<event>
12    1  0.1345781E-002  0.2923717E+03  0.7818608E-02  0.1089117E+00
         -2   -1    0    0    0  501 -0.00000000000E+00  0.00000000000E+00  0.52892578902E+02  0.52892578902E+02  0.00000000000E+00 0. -1.
          2   -1    0    0  502    0  0.00000000000E+00 -0.00000000000E+00 -0.18949649816E+04  0.18949649816E+04  0.00000000000E+00 0.  1.
          6    2    1    2  502    0  0.75118558697E+02 -0.22146791293E+03 -0.55166088442E+03  0.62508125894E+03  0.17806182790E+03 0.  0.
         24    2    3    3    0    0  0.71305636968E+02 -0.18294046323E+03 -0.28295317555E+03  0.35355810052E+03  0.79931995694E+02 0.  0.
         -6    2    1    2    0  501 -0.75118558697E+02  0.22146791293E+03 -0.12904115183E+04  0.13227763016E+04  0.17287111720E+03 0.  0.
        -24    2    5    5    0    0 -0.97918683933E+02  0.14776182527E+03 -0.67784346122E+03  0.70535088292E+03  0.81403221307E+02 0.  0.
          5    1    3    3  502    0  0.38129217290E+01 -0.38527449697E+02 -0.26870770887E+03  0.27152315842E+03  0.47000000000E+01 0. -1.
        -13    1    4    4    0    0  0.30992825593E+02 -0.10606611388E+03 -0.22044707937E+03  0.24659174876E+03  0.00000000000E+00 0.  1.
         14    1    4    4    0    0  0.40312811375E+02 -0.76874349352E+02 -0.62506096182E+02  0.10696635176E+03  0.00000000000E+00 0. -1.
         -5    1    5    5    0  501  0.22800125236E+02  0.73706087658E+02 -0.61256805708E+03  0.61742541867E+03  0.47000000000E+01 0.  1.
         11    1    6    6    0    0 -0.21949903964E+02  0.93648920109E+02 -0.25994167606E+03  0.27716708584E+03  0.00000000000E+00 0. -1.
        -12    1    6    6    0    0 -0.75968779969E+02  0.54112905164E+02 -0.41790178516E+03  0.42818379708E+03  0.00000000000E+00 0.  1.
</event>
<event>
12    1  0.1345781E-002  0.1738535E+03  0.7818608E-02  0.1173888E+00
          2   -1    0    0  502    0  0.00000000000E+00  0.00000000000E+00  0.25192920262E+04  0.25192920262E+04  0.00000000000E+00 0.  1.
         -2   -1    0    0    0  501 -0.00000000000E+00 -0.00000000000E+00 -0.17585809044E+02  0.17585809044E+02  0.00000000000E+00 0. -1.
          6    2    1    2  502    0  0.21140305861E+02 -0.15926568458E+02  0.53150087851E+03  0.55893879273E+03  0.17093513989E+03 0.  0.
         24    2    3    3    0    0 -0.14813292225E+02  0.49706650300E+02  0.33130821565E+03  0.34516420846E+03  0.81749693150E+02 0.  0.
         -6    2    1    2    0  501 -0.21140305861E+02  0.15926568458E+02  0.19702053387E+04  0.19779390425E+04  0.17272293232E+03 0.  0.
        -24    2    5    5    0    0  0.29948486270E+02 -0.16343068380E+02  0.16360145095E+04  0.16382965916E+04  0.79424424481E+02 0.  0.
          5    1    3    3  502    0  0.35953598086E+02 -0.65633218757E+02  0.20019266286E+03  0.21377458427E+03  0.47000000000E+01 0. -1.
        -11    1    4    4    0    0 -0.13278295608E+02  0.19271634821E+02  0.30192923971E+03  0.30283489699E+03  0.00000000000E+00 0.  1.
         12    1    4    4    0    0 -0.15349966170E+01  0.30435015479E+02  0.29378975941E+02  0.42329311466E+02  0.00000000000E+00 0. -1.
         -5    1    5    5    0  501 -0.51088792130E+02  0.32269636837E+02  0.33419082921E+03  0.33964245092E+03  0.47000000000E+01 0.  1.
         11    1    6    6    0    0 -0.14708978238E+02  0.76181409167E+01  0.93923031736E+02  0.95372564202E+02  0.00000000000E+00 0. -1.
        -12    1    6    6    0    0  0.44657464507E+02 -0.23961209296E+02  0.15420914777E+04  0.15429240274E+04  0.00000000000E+00 0.  1.
</event>
<event>
12    1  0.1345781E-002  0.2477233E+03  0.7818608E-02  0.1114752E+00
          1   -1    0    0  502    0  0.00000000000E+00  0.00000000000E+00  0.45572575543E+03  0.45572575543E+03  0.00000000000E+00 0. -1.
         -1   -1    0    0    0  501 -0.00000000000E+00 -0.00000000000E+00 -0.14932865611E+03  0.14932865611E+03  0.00000000000E+00 0.  1.
          6    2    1    2  502    0 -0.17158163367E+03 -0.32622851666E+02  0.57047321381E+02  0.25182138062E+03  0.17220657188E+03 0.  0.
         24    2    3    3    0    0 -0.14241511656E+03 -0.20073437094E+02 -0.22154459866E+02  0.16636270243E+03  0.80627044875E+02 0.  0.
         -6    2    1    2    0  501  0.17158163367E+03  0.32622851666E+02  0.24934977794E+03  0.35323303092E+03  0.17914729947E+03 0.  0.
        -24    2    5    5    0    0  0.34683107743E+02  0.65389477011E+02  0.11938872854E+03  0.16159059695E+03  0.79869586530E+02 0.  0.
          5    1    3    3  502    0 -0.29166517112E+02 -0.12549414572E+02  0.79201781247E+02  0.85458678198E+02  0.47000000000E+01 0. -1.
        -11    1    4    4    0    0 -0.70057755084E+02 -0.18087325895E+02 -0.50915077770E+02  0.88473643249E+02  0.00000000000E+00 0.  1.
         12    1    4    4    0    0 -0.72357361474E+02 -0.19861111989E+01  0.28760617903E+02  0.77889059176E+02  0.00000000000E+00 0. -1.
         -5    1    5    5    0  501  0.13689852593E+03 -0.32766625345E+02  0.12996104940E+03  0.19164243397E+03  0.47000000000E+01 0.  1.
         13    1    6    6    0    0  0.23728997466E+02 -0.13891152446E+02  0.42420479424E+02  0.50552215694E+02  0.00000000000E+00 0. -1.
        -14    1    6    6    0    0  0.10954110277E+02  0.79280629457E+02  0.76968249120E+02  0.11103838125E+03  0.00000000000E+00 0.  1.
</event>
<event>
12    1  0.1345781E-002  0.1748563E+03  0.7818608E-02  0.1172876E+00
          2   -1    0    0  502    0  0.00000000000E+00  0.00000000000E+00  0.10135213507E+04  0.10135213507E+04  0.00000000000E+00 0. -1.
         -2   -1    0    0    0  501 -0.00000000000E+00 -0.00000000000E+00 -0.35271945835E+02  0.35271945835E+02  0.00000000000E+00 0.  1.
          6    2    1    2  502    0  0.13071989329E+02 -0.27065690063E+02  0.68771149109E+03  0.70949896597E+03  0.17186698127E+03 0.  0.
         24    2    3    3    0    0  0.36637358455E+02 -0.75879990087E+02  0.53247136459E+03  0.54500048761E+03  0.79998177792E+02 0.  0.
         -6    2    1    2    0  501 -0.13071989329E+02  0.27065690063E+02  0.29053791382E+03  0.33929433061E+03  0.17264105808E+03 0.  0.
        -24    2    5    5    0    0  0.58294052085E+02  0.18473277924E+01  0.16190498033E+03  0.18997052393E+03  0.80460973016E+02 0.  0.
          5    1    3    3  502    0 -0.23565369125E+02  0.48814300024E+02  0.15524012649E+03  0.16449847836E+03  0.47000000000E+01 0. -1.
        -13    1    4    4    0    0  0.42021678183E+02 -0.53595825707E+02  0.50335692872E+03  0.50794343352E+03  0.00000000000E+00 0.  1.
         14    1    4    4    0    0 -0.53843197289E+01 -0.22284164380E+02  0.29114435875E+02  0.37057054084E+02  0.00000000000E+00 0. -1.
         -5    1    5    5    0  501 -0.71366041414E+02  0.25218362271E+02  0.12863293349E+03  0.14932380667E+03  0.47000000000E+01 0.  1.
         11    1    6    6    0    0  0.39974688424E+02  0.30807784976E+02  0.14116359274E+03  0.14991415959E+03  0.00000000000E+00 0. -1.
        -12    1    6    6    0    0  0.18319363661E+02 -0.28960457184E+02  0.20741387591E+02  0.40056364344E+02  0.00000000000E+00 0.  1.
</event>
<event>
12    1  0.1345781E-002  0.1920305E+03  0.7818608E-02  0.1156643E+00
          1   -1    0    0  502    0  0.00000000000E+00  0.00000000000E+00  0.56044384113E+03  0.56044384113E+03  0.00000000000E+00 0.  1.
         -1   -1    0    0    0  501 -0.00000000000E+00 -0.00000000000E+00 -0.87134644928E+02  0.87134644928E+02  0.00000000000E+00 0. -1.
          6    2    1    2  502    0 -0.76075961927E+02  0.39180858992E+02  0.76230801960E+02  0.20641161851E+03  0.17167390423E+03 0.  0.
         24    2    3    3    0    0  0.14936175017E+01  0.27897010507E+02  0.93470449420E+02  0.12601472595E+03  0.79765356841E+02 0.  0.
         -6    2    1    2    0  501  0.76075961927E+02 -0.39180858992E+02  0.39707839424E+03  0.44116686755E+03  0.17214604891E+03 0.  0.
        -24    2    5    5    0    0  0.70406933258E+02 -0.91717558352E+02  0.28780678661E+03  0.31969828354E+03  0.77491930687E+02 0.  0.
          5    1    3    3  502    0 -0.77569579429E+02  0.11283848484E+02 -0.17239647460E+02  0.80396892564E+02  0.47000000000E+01 0. -1.
        -13    1    4    4    0    0  0.20231507586E+02  0.50904727210E+02  0.62980567684E+02  0.83469497766E+02  0.00000000000E+00 0.  1.
         14    1    4    4    0    0 -0.18737890084E+02 -0.23007716702E+02  0.30489881736E+02  0.42545228181E+02  0.00000000000E+00 0. -1.
         -5    1    5    5    0  501  0.56690286695E+01  0.52536699360E+02  0.10927160764E+03  0.12146858401E+03  0.47000000000E+01 0.  1.
         11    1    6    6    0    0 -0.38999535296E+01 -0.45812764165E+02  0.59085342600E+02  0.74867193804E+02  0.00000000000E+00 0. -1.
        -12    1    6    6    0    0  0.74306886787E+02 -0.45904794187E+02  0.22872144401E+03  0.24483108974E+03  0.00000000000E+00 0.  1.
</event>
<event>
12    1  0.1345781E-002  0.1854558E+03  0.7818608E-02  0.1162625E+00
         -1   -1    0    0    0  501 -0.00000000000E+00  0.00000000000E+00  0.17464918043E+02  0.17464918043E+02  0.00000000000E+00 0.  1.
          1   -1    0    0  502    0  0.00000000000E+00 -0.00000000000E+00 -0.21303404513E+04  0.21303404513E+04  0.00000000000E+00 0. -1.
          6    2    1    2  502    0 -0.23919037758E+02  0.70950553349E+02 -0.75773124815E+03  0.77993997977E+03  0.16894859050E+03 0.  0.
         24    2    3    3    0    0 -0.35665610021E+02  0.14034330964E+02 -0.18902333101E+03  0.20825105794E+03  0.78547344201E+02 0.  0.
         -6    2    1    2    0  501  0.23919037758E+02 -0.70950553349E+02 -0.13551442851E+04  0.13678653896E+04  0.17039245626E+03 0.  0.
        -24    2    5    5    0    0 -0.15682097944E+01 -0.64889928297E+02 -0.13166077220E+04  0.13210307052E+04  0.86331155252E+02 0.  0.
          5    1    3    3  502    0  0.11746572263E+02  0.56916222385E+02 -0.56870791714E+03  0.57168892183E+03  0.47000000000E+01 0. -1.
        -13    1    4    4    0    0 -0.15624852408E+02  0.46560166206E+02 -0.11080753928E+03  0.12120353068E+03  0.00000000000E+00 0.  1.
         14    1    4    4    0    0 -0.20040757613E+02 -0.32525835242E+02 -0.78215791739E+02  0.87047527255E+02  0.00000000000E+00 0. -1.
         -5    1    5    5    0  501  0.25487247552E+02 -0.60606250526E+01 -0.38536563057E+02  0.46834684327E+02  0.47000000000E+01 0.  1.
         11    1    6    6    0    0 -0.34851805227E+02 -0.51535756345E+02 -0.10724711371E+04  0.10742741374E+04  0.00000000000E+00 0. -1.
        -12    1    6    6    0    0  0.33283595433E+02 -0.13354171951E+02 -0.24413658497E+03  0.24675656781E+03  0.00000000000E+00 0.  1.
</event>
<event>
12    1  0.1345781E-002  0.2950488E+03  0.7818608E-02  0.1087742E+00
         -2   -1    0    0    0  501 -0.00000000000E+00  0.00000000000E+00  0.83173976029E+02  0.83173976029E+02  0.00000000000E+00 0. -1.
          2   -1    0    0  502    0  0.00000000000E+00 -0.00000000000E+00 -0.11546939687E+04  0.11546939687E+04  0.00000000000E+00 0.  1.
          6    2    1    2  502    0  0.56824740219E+02  0.23231863661E+03 -0.34523699747E+03  0.45366639344E+03  0.17153312243E+03 0.  0.
         24    2    3    3    0    0  0.70954563786E+02  0.11670198689E+03 -0.11518077612E+03  0.19576172773E+03  0.80013367582E+02 0.  0.
         -6    2    1    2    0  501 -0.56824740219E+02 -0.23231863661E+03 -0.72628299523E+03  0.78420155132E+03  0.17402322811E+03 0.  0.
        -24    2    5    5    0    0 -0.40105567413E+01 -0.36863172509E+02 -0.15851716674E+03  0.18139784992E+03  0.80015684412E+02 0.  0.
          5    1    3    3  502    0 -0.14129823567E+02  0.11561664972E+03 -0.23005622136E+03  0.25790466570E+03  0.47000000000E+01 0. -1.
        -11    1    4    4    0    0 -0.17085099277E+02  0.14769401131E+02 -0.24888831106E+02  0.33607882124E+02  0.00000000000E+00 0.  1.
         12    1    4    4    0    0  0.88039663062E+02  0.10193258576E+03 -0.90291945012E+02  0.16215384561E+03  0.00000000000E+00 0. -1.
         -5    1    5    5    0  501 -0.52814183478E+02 -0.19545546410E+03 -0.56776582849E+03  0.60280370140E+03  0.47000000000E+01 0.  1.
         11    1    6    6    0    0 -0.14693894170E+02  0.13560564117E+02 -0.10578963820E+03  0.10766265357E+03  0.00000000000E+00 0. -1.
        -12    1    6    6    0    0  0.10683337429E+02 -0.50423736626E+02 -0.52727528545E+02  0.73735196347E+02  0.00000000000E+00 0.  1.
</event>
<event>
12    1  0.1345781E-002  0.1891884E+03  0.7818608E-02  0.1159195E+00
         -1   -1    0    0    0  501 -0.00000000000E+00  0.00000000000E+00  0.29309759620E+02  0.29309759620E+02  0.00000000000E+00 0.  1.
          1   -1    0    0  502    0  0.00000000000E+00 -0.00000000000E+00 -0.15244359092E+04  0.15244359092E+04  0.00000000000E+00 0. -1.
          6    2    1    2  502    0 -0.37488586591E+02 -0.67977056155E+02 -0.10920751840E+04  0.11082348172E+04  0.17184274324E+03 0.  0.
         24    2    3    3    0    0  0.44800300022E+02 -0.25228243338E+02 -0.53198308242E+03  0.54049880986E+03  0.80557012922E+02 0.  0.
         -6    2    1    2    0  501  0.37488586591E+02  0.67977056155E+02 -0.40305096558E+03  0.44551085156E+03  0.17321536800E+03 0.  0.
        -24    2    5    5    0    0 -0.24890099139E+02  0.99401724091E+02 -0.29997095873E+03  0.32090672642E+03  0.49983309149E+02 0.  0.
          5    1    3    3  502    0 -0.82288886612E+02 -0.42748812817E+02 -0.56009210156E+03  0.56773600739E+03  0.47000000000E+01 0. -1.
        -13    1    4    4    0    0  0.51707617486E+02 -0.45438852698E+02 -0.46823769541E+03  0.47327043690E+03  0.00000000000E+00 0.  1.
         14    1    4    4    0    0 -0.69073174645E+01  0.20210609361E+02 -0.63745387009E+02  0.67228372956E+02  0.00000000000E+00 0. -1.
         -5    1    5    5    0  501  0.62378685730E+02 -0.31424667936E+02 -0.10308000686E+03  0.12460412514E+03  0.47000000000E+01 0.  1.
         13    1    6    6    0    0  0.34881010528E+01  0.53600847256E+02 -0.96708527043E+02  0.11062439549E+03  0.00000000000E+00 0. -1.
        -14    1    6    6    0    0 -0.28378200192E+02  0.45800876835E+02 -0.20326243169E+03  0.21028233093E+03  0.00000000000E+00 0.  1.
</event>
<event>
12    1  0.1345781E-002  0.1860605E+03  0.7818608E-02  0.1162063E+00
         -2   -1    0    0    0  501 -0.00000000000E+00  0.00000000000E+00  0.17106970999E+02  0.17106970999E+02  0.00000000000E+00 0.  1.
          2   -1    0    0  502    0  0.00000000000E+00 -0.00000000000E+00 -0.20385339152E+04  0.20385339152E+04  0.00000000000E+00 0. -1.
          6    2    1    2  502    0 -0.61553786635E+02 -0.38031140769E+02 -0.10987046141E+04  0.11143525118E+04  0.17144811230E+03 0.  0.
         24    2    3    3    0    0 -0.71973213463E+02 -0.46563687750E+02 -0.10927349007E+04  0.10988897730E+04  0.78363572060E+02 0.  0.
         -6    2    1    2    0  501  0.61553786635E+02  0.38031140769E+02 -0.92272233012E+03  0.94128837441E+03  0.17138281413E+03 0.  0.
        -24    2    5    5    0    0 -0.24593131692E+02  0.39679644837E+02 -0.60270730338E+03  0.60984348240E+03  0.80459201661E+02 0.  0.
          5    1    3    3  502    0  0.10419426828E+02  0.85325469811E+01 -0.59697133291E+01  0.15462738782E+02  0.47000000000E+01 0. -1.
        -13    1    4    4    0    0 -0.15247155515E+01 -0.10943086630E+02 -0.17080787910E+02  0.20342792780E+02  0.00000000000E+00 0.  1.
         14    1    4    4    0    0 -0.70448497911E+02 -0.35620601120E+02 -0.10756541128E+04  0.10785469802E+04  0.00000000000E+00 0. -1.
         -5    1    5    5    0  501  0.86146918327E+02 -0.16485040683E+01 -0.32001502674E+03  0.33144489202E+03  0.47000000000E+01 0.  1.
         11    1    6    6    0    0  0.24795062015E+02  0.35707128787E+02 -0.27971030456E+03  0.28306827555E+03  0.00000000000E+00 0. -1.
        -12    1    6    6    0    0 -0.49388193707E+02  0.39725160501E+01 -0.32299699882E+03  0.32677520685E+03  0.00000000000E+00 0.  1.
</event>
<event>
12    1  0.1345781E-002  0.1788685E+03  0.7818608E-02  0.1168903E+00
          1   -1    0    0  502    0  0.00000000000E+00  0.00000000000E+00  0.97179311629E+02  0.97179311629E+02  0.00000000000E+00 0.  1.
         -1   -1    0    0    0  501 -0.00000000000E+00 -0.00000000000E+00 -0.69786885627E+03  0.69786885627E+03  0.00000000000E+00 0. -1.
          6    2    1    2  502    0 -0.28685241550E+02 -0.35322982292E+02 -0.11984944212E+02  0.17997430946E+03  0.17371400928E+03 0.  0.
         24    2    3    3    0    0  0.39674086419E+02 -0.48853235217E+02 -0.31500040081E+02  0.10745538482E+03  0.81201819424E+02 0.  0.
         -6    2    1    2    0  501  0.28685241550E+02  0.35322982292E+02 -0.58870460043E+03  0.61507385843E+03  0.17225617145E+03 0.  0.
        -24    2    5    5    0    0  0.89036321714E+01  0.87833930668E+02 -0.44267705901E+03  0.45856556912E+03  0.80779505892E+02 0.  0.
          5    1    3    3  502    0 -0.68359327968E+02  0.13530252925E+02  0.19515095870E+02  0.72518924642E+02  0.47000000000E+01 0. -1.
        -11    1    4    4    0    0  0.47563690769E+02 -0.53087231246E+02  0.34648727669E+01  0.71362203891E+02  0.00000000000E+00 0.  1.
         12    1    4    4    0    0 -0.78896043501E+01  0.42339960294E+01 -0.34964912848E+02  0.36093180930E+02  0.00000000000E+00 0. -1.
         -5    1    5    5    0  501  0.19781609378E+02 -0.52510948377E+02 -0.14602754142E+03  0.15650828931E+03  0.47000000000E+01 0.  1.
         11    1    6    6    0    0 -0.24717695909E+02  0.60738062831E+02 -0.35293656655E+03  0.35897673570E+03  0.00000000000E+00 0. -1.
        -12    1    6    6    0    0  0.33621328081E+02  0.27095867837E+02 -0.89740492459E+02  0.99588833423E+02  0.00000000000E+00 0.  1.
</event>
<event>
12    1  0.1345781E-002  0.2857919E+03  0.7818608E-02  0.1092567E+00
         -3   -1    0    0    0  501 -0.00000000000E+00  0.00000000000E+00  0.95318642417E+02  0.95318642417E+02  0.00000000000E+00 0. -1.
          3   -1    0    0  502    0  0.00000000000E+00 -0.00000000000E+00 -0.85846035174E+03  0.85846035174E+03  0.00000000000E+00 0.  1.
          6    2    1    2  502    0  0.13851067881E+03  0.18524169342E+03 -0.40482651898E+03  0.49694601353E+03  0.17196260283E+03 0.  0.
         24    2    3    3    0    0  0.16534471277E+03  0.13496212700E+03 -0.34154790594E+03  0.41165607833E+03  0.85159291975E+02 0.  0.
         -6    2    1    2    0  501 -0.13851067881E+03 -0.18524169342E+03 -0.35831519035E+03  0.45683298063E+03  0.16372813878E+03 0.  0.
        -24    2    5    5    0    0 -0.10744846568E+03 -0.60754449453E+02 -0.24507758180E+03  0.28564074661E+03  0.79317962173E+02 0.  0.
          5    1    3    3  502    0 -0.26834033965E+02  0.50279566425E+02 -0.63278613037E+02  0.85289935202E+02  0.47000000000E+01 0. -1.
        -13    1    4    4    0    0  0.10187781518E+02  0.53676333063E+02 -0.80900181032E+02  0.97620586529E+02  0.00000000000E+00 0.  1.
         14    1    4    4    0    0  0.15515693125E+03  0.81285793935E+02 -0.26064772491E+03  0.31403549180E+03  0.00000000000E+00 0. -1.
         -5    1    5    5    0  501 -0.31062213128E+02 -0.12448724397E+03 -0.11323760855E+03  0.17119223401E+03  0.47000000000E+01 0.  1.
         11    1    6    6    0    0 -0.29262254568E+02  0.22025537959E+01 -0.11702610094E+02  0.31592433725E+02  0.00000000000E+00 0. -1.
        -12    1    6    6    0    0 -0.78186211109E+02 -0.62957003249E+02 -0.23337497170E+03  0.25404831289E+03  0.00000000000E+00 0.  1.
</event>
<event>
12    1  0.1345781E-002  0.1954668E+03  0.7818608E-02  0.1153621E+00
          1   -1    0    0  502    0  0.00000000000E+00  0.00000000000E+00  0.10966838392E+03  0.10966838392E+03  0.00000000000E+00 0.  1.
         -1   -1    0    0    0  501 -0.00000000000E+00 -0.00000000000E+00 -0.37398812129E+03  0.37398812129E+03  0.00000000000E+00 0. -1.
          6    2    1    2  502    0  0.52202830775E+02  0.71212245434E+02 -0.67113042218E+02  0.20385968358E+03  0.17105055017E+03 0.  0.
         24    2    3    3    0    0  0.13249757433E+01  0.99012651509E+02 -0.70961702270E+02  0.14556456462E+03  0.79675708749E+02 0.  0.
         -6    2    1    2    0  501 -0.52202830775E+02 -0.71212245434E+02 -0.19720669515E+03  0.27979682162E+03  0.17776237323E+03 0.  0.
        -24    2    5    5    0    0  0.32997033522E+02 -0.70487285319E+02 -0.11091629238E+03  0.15843922584E+03  0.82117615383E+02 0.  0.
          5    1    3    3  502    0  0.50877855032E+02 -0.27800406075E+02  0.38486600523E+01  0.58295118962E+02  0.47000000000E+01 0. -1.
        -11    1    4    4    0    0  0.49568399285E+01 -0.12407656563E+02  0.10141634461E+00  0.13361530180E+02  0.00000000000E+00 0.  1.
         12    1    4    4    0    0 -0.36318641852E+01  0.11142030807E+03 -0.71063118615E+02  0.13220303444E+03  0.00000000000E+00 0. -1.
         -5    1    5    5    0  501 -0.85199864297E+02 -0.72496011479E+00 -0.86290402769E+02  0.12135759578E+03  0.47000000000E+01 0.  1.
         11    1    6    6    0    0 -0.16552652622E+02 -0.36949473204E+02 -0.83138103861E+02  0.92472688900E+02  0.00000000000E+00 0. -1.
        -12    1    6    6    0    0  0.49549686144E+02 -0.33537812115E+02 -0.27778188524E+02  0.65966536942E+02  0.00000000000E+00 0.  1.
</event>
<event>
12    1  0.1345781E-002  0.3243829E+03  0.7818608E-02  0.1073650E+00
         -2   -1    0    0    0  501 -0.00000000000E+00  0.00000000000E+00  0.11455099062E+03  0.11455099062E+03  0.00000000000E+00 0.  1.
          2   -1    0    0  502    0  0.00000000000E+00 -0.00000000000E+00 -0.97383630737E+03  0.97383630737E+03  0.00000000000E+00 0. -1.
          6    2    1    2  502    0 -0.16779395198E+03  0.21790338135E+03 -0.30071065087E+03  0.44273212210E+03  0.17305531622E+03 0.  0.
         24    2    3    3    0    0 -0.18703171464E+03  0.19878446531E+03 -0.22871159457E+03  0.36565048635E+03  0.83037092599E+02 0.  0.
         -6    2    1    2    0  501  0.16779395198E+03 -0.21790338135E+03 -0.55857466587E+03  0.64565517589E+03  0.17096272948E+03 0.  0.
        -24    2    5    5    0    0  0.11737675559E+03 -0.12321726867E+03 -0.47068680129E+03  0.50689740001E+03  0.80244072512E+02 0.  0.
          5    1    3    3  502    0  0.19237762656E+02  0.19118916037E+02 -0.71999056298E+02  0.77081635752E+02  0.47000000000E+01 0. -1.
        -11    1    4    4    0    0 -0.14055552247E+02  0.63096640852E+02 -0.63822429367E+02  0.90840778982E+02  0.00000000000E+00 0.  1.
         12    1    4    4    0    0 -0.17297616239E+03  0.13568782446E+03 -0.16488916520E+03  0.27480970737E+03  0.00000000000E+00 0. -1.
         -5    1    5    5    0  501  0.50417196389E+02 -0.94686112681E+02 -0.87887864584E+02  0.13875777588E+03  0.47000000000E+01 0.  1.
         11    1    6    6    0    0  0.22172277569E+02 -0.66894173981E+02 -0.11983798804E+03  0.13902368065E+03  0.00000000000E+00 0. -1.
        -12    1    6    6    0    0  0.95204478025E+02 -0.56323094685E+02 -0.35084881325E+03  0.36787371935E+03  0.00000000000E+00 0.  1.
</event>
<event>
12    1  0.1345781E-002  0.1766039E+03  0.7818608E-02  0.1171131E+00
          2   -1    0    0  502    0  0.00000000000E+00  0.00000000000E+00  0.20891346444E+04  0.20891346444E+04  0.00000000000E+00 0. -1.
         -2   -1    0    0    0  501 -0.00000000000E+00 -0.00000000000E+00 -0.34623698865E+02  0.34623698865E+02  0.00000000000E+00 0.  1.
          6    2    1    2  502    0  0.36107807284E+02 -0.35636294576E+01  0.22913155167E+03  0.28995978823E+03  0.17395096326E+03 0.  0.
         24    2    3    3    0    0 -0.11571090244E+02  0.42881623186E+02  0.62735774115E+02  0.11068323217E+03  0.79638412806E+02 0.  0.
         -6    2    1    2    0  501 -0.36107807284E+02  0.35636294576E+01  0.18253793939E+04  0.18337985550E+04  0.17172866885E+03 0.  0.
        -24    2    5    5    0    0 -0.89652436374E+02 -0.55843090039E+01  0.12231544698E+04  0.12291104857E+04  0.80851624041E+02 0.  0.
          5    1    3    3  502    0  0.47678897527E+02 -0.46445252644E+02  0.16639577756E+03  0.17927655606E+03  0.47000000000E+01 0. -1.
        -13    1    4    4    0    0 -0.15663750005E+02 -0.13749144224E+02  0.47537658728E+02  0.51905886260E+02  0.00000000000E+00 0.  1.
         14    1    4    4    0    0  0.40926597618E+01  0.56630767410E+02  0.15198115387E+02  0.58777345914E+02  0.00000000000E+00 0. -1.
         -5    1    5    5    0  501  0.53544629090E+02  0.91479384616E+01  0.60222492407E+03  0.60468806938E+03  0.47000000000E+01 0.  1.
         13    1    6    6    0    0 -0.63327440670E+02  0.27239461780E+02  0.97326527937E+03  0.97570367277E+03  0.00000000000E+00 0. -1.
        -14    1    6    6    0    0 -0.26324995704E+02 -0.32823770784E+02  0.24988919044E+03  0.25340681290E+03  0.00000000000E+00 0.  1.
</event>
<event>
12    1  0.1345781E-002  0.1798767E+03  0.7818608E-02  0.1167922E+00
          2   -1    0    0  502    0  0.00000000000E+00  0.00000000000E+00  0.86521416579E+03  0.86521416579E+03  0.00000000000E+00 0. -1.
         -2   -1    0    0    0  501 -0.00000000000E+00 -0.00000000000E+00 -0.37657974218E+02  0.37657974218E+02  0.00000000000E+00 0.  1.
          6    2    1    2  502    0 -0.48837305721E+02 -0.15697327271E+02  0.37691753607E+03  0.41778587488E+03  0.17276203211E+03 0.  0.
         24    2    3    3    0    0 -0.68021581649E+02  0.26152892556E+02  0.15045281687E+03  0.18664125265E+03  0.82993962000E+02 0.  0.
         -6    2    1    2    0  501  0.48837305721E+02  0.15697327271E+02  0.45063865551E+03  0.48508626513E+03  0.17205231259E+03 0.  0.
        -24    2    5    5    0    0 -0.19561834403E+02 -0.38954389900E+02  0.21857115210E+03  0.23700831630E+03  0.80619374886E+02 0.  0.
          5    1    3    3  502    0  0.19184275927E+02 -0.41850219827E+02  0.22646471920E+03  0.23114462223E+03  0.47000000000E+01 0. -1.
        -11    1    4    4    0    0 -0.12418981534E+02 -0.22413574557E+02  0.82190582674E+02  0.86092341744E+02  0.00000000000E+00 0.  1.
         12    1    4    4    0    0 -0.55602600114E+02  0.48566467113E+02  0.68262234196E+02  0.10054891091E+03  0.00000000000E+00 0. -1.
         -5    1    5    5    0  501  0.68399140124E+02  0.54651717171E+02  0.23206750341E+03  0.24807794883E+03  0.47000000000E+01 0.  1.
         11    1    6    6    0    0  0.13183233365E+02 -0.31472790907E+01  0.16163018900E+03  0.16219747533E+03  0.00000000000E+00 0. -1.
        -12    1    6    6    0    0 -0.32745067768E+02 -0.35807110809E+02  0.56940963101E+02  0.74810840969E+02  0.00000000000E+00 0.  1.
</event>
<event>
12    1  0.1345781E-002  0.2371693E+03  0.7818608E-02  0.1121693E+00
          2   -1    0    0  502    0  0.00000000000E+00  0.00000000000E+00  0.81375562285E+03  0.81375562285E+03  0.00000000000E+00 0.  1.
         -2   -1    0    0    0  501 -0.00000000000E+00 -0.00000000000E+00 -0.73912149512E+02  0.73912149512E+02  0.00000000000E+00 0. -1.
          6    2    1    2  502    0  0.96839958764E+02 -0.13127799762E+03  0.25714151450E+03  0.34990697572E+03  0.17234048540E+03 0.  0.
         24    2    3    3    0    0  0.17641677626E+02 -0.16140511926E+01  0.72098103429E+02  0.11043200685E+03  0.81751193676E+02 0.  0.
         -6    2    1    2    0  501 -0.96839958764E+02  0.13127799762E+03  0.48270195884E+03  0.53776079664E+03  0.17196977370E+03 0.  0.
        -24    2    5    5    0    0 -0.88573419735E+02  0.21621926732E+02  0.18855737195E+03  0.22369724010E+03  0.78573623523E+02 0.  0.
          5    1    3    3  502    0  0.79198281138E+02 -0.12966394642E+03  0.18504341107E+03  0.23947496888E+03  0.47000000000E+01 0. -1.
        -13    1    4    4    0    0  0.47173834397E+02  0.20959102965E+01  0.64093943968E+02  0.79610282910E+02  0.00000000000E+00 0.  1.
         14    1    4    4    0    0 -0.29532156771E+02 -0.37099614891E+01  0.80041594616E+01  0.30821723937E+02  0.00000000000E+00 0. -1.
         -5    1    5    5    0  501 -0.82665390289E+01  0.10965607088E+03  0.29414458689E+03  0.31406355654E+03  0.47000000000E+01 0.  1.
         11    1    6    6    0    0  0.48984974270E+01  0.22334036625E+02  0.64033613298E+02  0.67993441602E+02  0.00000000000E+00 0. -1.
        -12    1    6    6    0    0 -0.93471917162E+02 -0.71210989230E+00  0.12452375865E+03  0.15570379850E+03  0.00000000000E+00 0.  1.
</event>
<event>
12    1  0.1345781E-002  0.3059971E+03  0.7818608E-02  0.1082281E+00
          2   -1    0    0  502    0  0.00000000000E+00  0.00000000000E+00  0.12271911677E+04  0.12271911677E+04  0.00000000000E+00 0. -1.
         -2   -1    0    0    0  501 -0.00000000000E+00 -0.00000000000E+00 -0.10520157701E+03  0.10520157701E+03  0.00000000000E+00 0.  1.
          6    2    1    2  502    0  0.19464799952E+03 -0.16340734020E+03  0.21051687242E+03  0.37061477227E+03  0.16866580359E+03 0.  0.
         24    2    3    3    0    0  0.52487259574E+02 -0.17559859473E+02  0.55182570994E+02  0.11442734319E+03  0.83577746118E+02 0.  0.
         -6    2    1    2    0  501 -0.19464799952E+03  0.16340734020E+03  0.91147271828E+03  0.96177797245E+03  0.17217592623E+03 0.  0.
        -24    2    5    5    0    0 -0.12723286047E+03  0.51197574772E+02  0.65408787945E+03  0.67297894598E+03  0.79122153933E+02 0.  0.
          5    1    3    3  502    0  0.14216073995E+03 -0.14584748073E+03  0.15533430142E+03  0.25618742908E+03  0.47000000000E+01 0. -1.
        -11    1    4    4    0    0 -0.55658497779E+01 -0.26971432871E+01  0.54140669095E+02  0.54492800586E+02  0.00000000000E+00 0.  1.
         12    1    4    4    0    0  0.58053109352E+02 -0.14862716186E+02  0.10419018993E+01  0.59934542606E+02  0.00000000000E+00 0. -1.
         -5    1    5    5    0  501 -0.67415139053E+02  0.11220976543E+03  0.25738483884E+03  0.28879902648E+03  0.47000000000E+01 0.  1.
         13    1    6    6    0    0  0.74148420922E+01 -0.73930645605E+01  0.66557512779E+02  0.67376106997E+02  0.00000000000E+00 0. -1.
        -14    1    6    6    0    0 -0.13464770256E+03  0.58590639332E+02  0.58753036667E+03  0.60560283898E+03  0.00000000000E+00 0.  1.
</event>
<event>
12    1  0.1345781E-002  0.1942968E+03  0.7818608E-02  0.1154642E+00
         -1   -1    0    0    0  501 -0.00000000000E+00  0.00000000000E+00  0.54233234340E+02  0.54233234340E+02  0.00000000000E+00 0. -1.
          1   -1    0    0  502    0  0.00000000000E+00 -0.00000000000E+00 -0.71877498437E+03  0.71877498437E+03  0.00000000000E+00 0.  1.
          6    2    1    2  502    0 -0.77719711814E+02 -0.47096782021E+01 -0.40985925941E+03  0.45623367333E+03  0.18466731569E+03 0.  0.
         24    2    3    3    0    0 -0.12771230761E+03 -0.10068720853E+02 -0.28217763154E+03  0.31892865861E+03  0.75362197988E+02 0.  0.
         -6    2    1    2    0  501  0.77719711814E+02  0.47096782021E+01 -0.25468249061E+03  0.31677454538E+03  0.17152377940E+03 0.  0.
        -24    2    5    5    0    0  0.89725610996E+02 -0.12593431569E+02 -0.90079861320E+02  0.15076353733E+03  0.80037384918E+02 0.  0.
          5    1    3    3  502    0  0.49992595793E+02  0.53590426514E+01 -0.12768162787E+03  0.13730501472E+03  0.47000000000E+01 0. -1.
        -11    1    4    4    0    0 -0.50392202670E+02 -0.36270585676E+02 -0.82870197164E+02  0.10354901763E+03  0.00000000000E+00 0.  1.
         12    1    4    4    0    0 -0.77320104938E+02  0.26201864822E+02 -0.19930743438E+03  0.21537964098E+03  0.00000000000E+00 0. -1.
         -5    1    5    5    0  501 -0.12005899181E+02  0.17303109771E+02 -0.16460262929E+03  0.16601100805E+03  0.47000000000E+01 0.  1.
         11    1    6    6    0    0  0.41109966347E+02  0.31743420817E+02 -0.23008904530E+02  0.56807427207E+02  0.00000000000E+00 0. -1.
        -12    1    6    6    0    0  0.48615644648E+02 -0.44336852386E+02 -0.67070956790E+02  0.93956110120E+02  0.00000000000E+00 0.  1.
</event>
<event>
12    1  0.1345781E-002  0.2053953E+03  0.7818608E-02  0.1145265E+00
         -2   -1    0    0    0  501 -0.00000000000E+00  0.00000000000E+00  0.11768342611E+02  0.11768342611E+02  0.00000000000E+00 0. -1.
          2   -1    0    0  502    0  0.00000000000E+00 -0.00000000000E+00 -0.38279661969E+04  0.38279661969E+04  0.00000000000E+00 0.  1.
          6    2    1    2  502    0  0.10694945228E+03  0.22651578088E+02 -0.23891485850E+04  0.23979335915E+04  0.17350293689E+03 0.  0.
         24    2    3    3    0    0  0.11914869183E+03 -0.36338491050E+01 -0.22605563075E+04  0.22660328374E+04  0.10286099870E+03 0.  0.
         -6    2    1    2    0  501 -0.10694945228E+03 -0.22651578088E+02 -0.14270492693E+04  0.14418009480E+04  0.17426725778E+03 0.  0.
        -24    2    5    5    0    0 -0.24521461677E+02 -0.34258602637E+02 -0.11221297581E+04  0.11256884759E+04  0.78894846942E+02 0.  0.
          5    1    3    3  502    0 -0.12199239550E+02  0.26285427193E+02 -0.12859227744E+03  0.13190075415E+03  0.47000000000E+01 0. -1.
        -11    1    4    4    0    0  0.33036742374E+02 -0.49617104930E+02 -0.91571358714E+03  0.91765170796E+03  0.00000000000E+00 0.  1.
         12    1    4    4    0    0  0.86111949452E+02  0.45983255825E+02 -0.13448427204E+04  0.13483811294E+04  0.00000000000E+00 0. -1.
         -5    1    5    5    0  501 -0.82427990598E+02  0.11607024549E+02 -0.30491951120E+03  0.31611247201E+03  0.47000000000E+01 0.  1.
         13    1    6    6    0    0 -0.46193496939E+01 -0.50630643649E+02 -0.41698602019E+03  0.42007397146E+03  0.00000000000E+00 0. -1.
        -14    1    6    6    0    0 -0.19902111984E+02  0.16372041011E+02 -0.70514373793E+03  0.70561450448E+03  0.00000000000E+00 0.  1.
</event>
<event>
12    1  0.1345781E-002  0.1871037E+03  0.7818608E-02  0.1161100E+00
          2   -1    0    0  502    0  0.00000000000E+00  0.00000000000E+00  0.78899781422E+03  0.78899781422E+03  0.00000000000E+00 0. -1.
         -2   -1    0    0    0  501 -0.00000000000E+00 -0.00000000000E+00 -0.48037492358E+02  0.48037492358E+02  0.00000000000E+00 0.  1.
          6    2    1    2  502    0 -0.37997952084E+02  0.64824712114E+02  0.25765951753E+03  0.31932393594E+03  0.17301231582E+03 0.  0.
         24    2    3    3    0    0  0.30647461215E+01 -0.29158011099E+02  0.13046308171E+03  0.15586164447E+03  0.80079049993E+02 0.  0.
         -6    2    1    2    0  501  0.37997952084E+02 -0.64824712114E+02  0.48330080433E+03  0.51771137064E+03  0.16970358911E+03 0.  0.
        -24    2    5    5    0    0  0.41391107237E+02 -0.60829782928E+02  0.15363309413E+03  0.18796849792E+03  0.79470386612E+02 0.  0.
          5    1    3    3  502    0 -0.41062698205E+02  0.93982723213E+02  0.12719643582E+03  0.16346229146E+03  0.47000000000E+01 0. -1.
        -13    1    4    4    0    0 -0.38529534817E+02 -0.13420314132E+02  0.61536341797E+02  0.73833266529E+02  0.00000000000E+00 0.  1.
         14    1    4    4    0    0  0.41594280939E+02 -0.15737696967E+02  0.68926739916E+02  0.82028377943E+02  0.00000000000E+00 0. -1.
         -5    1    5    5    0  501 -0.33931551537E+01 -0.39949291864E+01  0.32966771020E+03  0.32974287272E+03  0.47000000000E+01 0.  1.
         13    1    6    6    0    0  0.29437071298E+02 -0.69416367923E+02  0.15580515807E+03  0.17309078711E+03  0.00000000000E+00 0. -1.
        -14    1    6    6    0    0  0.11954035939E+02  0.85865849948E+01 -0.21720639374E+01  0.14877710807E+02  0.00000000000E+00 0.  1.
</event>
<event>
12    1  0.1345781E-002  0.1724936E+03  0.7818608E-02  0.1175272E+00
         -1   -1    0    0    0  501 -0.00000000000E+00  0.00000000000E+00  0.70268384815E+02  0.70268384815E+02  0.00000000000E+00 0. -1.
          1   -1    0    0  502    0  0.00000000000E+00 -0.00000000000E+00 -0.12854117991E+04  0.12854117991E+04  0.00000000000E+00 0.  1.
          6    2    1    2  502    0 -0.11582421252E+02 -0.15978872450E+02 -0.11629240525E+04  0.11756819941E+04  0.17159930783E+03 0.  0.
         24    2    3    3    0    0 -0.69895369261E+02 -0.12258513220E+01 -0.60636831137E+03  0.61586556477E+03  0.81981702046E+02 0.  0.
         -6    2    1    2    0  501  0.11582421252E+02  0.15978872450E+02 -0.52219361753E+02  0.17999818981E+03  0.17112279143E+03 0.  0.
        -24    2    5    5    0    0 -0.14768474629E+02  0.64866996359E+02 -0.10412427216E+01  0.10432978002E+03  0.80360336940E+02 0.  0.
          5    1    3    3  502    0  0.58312948009E+02 -0.14753021128E+02 -0.55655574112E+03  0.55981642930E+03  0.47000000000E+01 0. -1.
        -13    1    4    4    0    0 -0.53108038687E+02  0.34530005075E+02 -0.27777355633E+03  0.28490513091E+03  0.00000000000E+00 0.  1.
         14    1    4    4    0    0 -0.16787330573E+02 -0.35755856396E+02 -0.32859475504E+03  0.33096043385E+03  0.00000000000E+00 0. -1.
         -5    1    5    5    0  501  0.26350895881E+02 -0.48888123909E+02 -0.51178119031E+02  0.75668409793E+02  0.47000000000E+01 0.  1.
         11    1    6    6    0    0 -0.12821745388E+02  0.23092255277E+00 -0.30637702905E+02  0.33213240121E+02  0.00000000000E+00 0. -1.
        -12    1    6    6    0    0 -0.19467292416E+01  0.64636073806E+02  0.29596460184E+02  0.71116539899E+02  0.00000000000E+00 0.  1.
</event>
<event>
12    1  0.1345781E-002  0.1774987E+03  0.7818608E-02  0.1170246E+00
          1   -1    0    0  502    0  0.00000000000E+00  0.00000000000E+00  0.97217944656E+02  0.97217944656E+02  0.00000000000E+00 0.  1.
         -1   -1    0    0    0  501 -0.00000000000E+00 -0.00000000000E+00 -0.36260058303E+03  0.36260058303E+03  0.00000000000E+00 0. -1.
          6    2    1    2  502    0 -0.29184703450E+02  0.32901064942E+02 -0.20763479171E+03  0.27316454418E+03  0.17196637600E+03 0.  0.
         24    2    3    3    0    0 -0.77027579094E+02  0.49864347024E+02 -0.11345714259E+03  0.16607480011E+03  0.79300788036E+02 0.  0.
         -6    2    1    2    0  501  0.29184703450E+02 -0.32901064942E+02 -0.57747846655E+02  0.18665398350E+03  0.17196124207E+03 0.  0.
        -24    2    5    5    0    0 -0.43713807167E+02 -0.41072939374E+02 -0.54204821561E+02  0.11306311852E+03  0.79039375022E+02 0.  0.
          5    1    3    3  502    0  0.47842875644E+02 -0.16963282081E+02 -0.94177649124E+02  0.10708974406E+03  0.47000000000E+01 0. -1.
        -13    1    4    4    0    0 -0.79782912295E+01  0.46384781671E+02 -0.70209579846E+02  0.84525654116E+02  0.00000000000E+00 0.  1.
         14    1    4    4    0    0 -0.69049287865E+02  0.34795653522E+01 -0.43247562744E+02  0.81549145998E+02  0.00000000000E+00 0. -1.
         -5    1    5    5    0  501  0.72898510617E+02  0.81718744312E+01 -0.35430250945E+01  0.73590864981E+02  0.47000000000E+01 0.  1.
         13    1    6    6    0    0 -0.20729629137E+02 -0.11326353644E+02 -0.68796363418E+02  0.72738871523E+02  0.00000000000E+00 0. -1.
        -14    1    6    6    0    0 -0.22984178030E+02 -0.29746585730E+02  0.14591541857E+02  0.40324246999E+02  0.00000000000E+00 0.  1.
</event>
<event>
12    1  0.1345781E-002  0.1863200E+03  0.7818608E-02  0.1161823E+00
          2   -1    0    0  502    0  0.00000000000E+00  0.00000000000E+00  0.47096842580E+04  0.47096842580E+04  0.00000000000E+00 0.  1.
         -2   -1    0    0    0  501 -0.00000000000E+00 -0.00000000000E+00 -0.23567803231E+02  0.23567803231E+02  0.00000000000E+00 0. -1.
          6    2    1    2  502    0  0.57285020172E+02 -0.65230779857E+02  0.37040980892E+03  0.41340425724E+03  0.16174988464E+03 0.  0.
         24    2    3    3    0    0  0.78615965574E+02 -0.60789774120E+02  0.36979292188E+03  0.39110622339E+03  0.79632946846E+02 0.  0.
         -6    2    1    2    0  501 -0.57285020172E+02  0.65230779857E+02  0.43157066459E+04  0.43198478040E+04  0.16800169184E+03 0.  0.
        -24    2    5    5    0    0  0.37976324084E+01 -0.18650389501E+02  0.17101938063E+04  0.17122653244E+04  0.82020892873E+02 0.  0.
          5    1    3    3  502    0 -0.21330945402E+02 -0.44410057372E+01  0.61688703844E+00  0.22298033845E+02  0.47000000000E+01 0. -1.
        -11    1    4    4    0    0  0.55159094038E+02 -0.66302465223E+02  0.34829351703E+03  0.35881320566E+03  0.00000000000E+00 0.  1.
         12    1    4    4    0    0  0.23456871536E+02  0.55126911030E+01  0.21499404847E+02  0.32293017732E+02  0.00000000000E+00 0. -1.
         -5    1    5    5    0  501 -0.61082652580E+02  0.83881169358E+02  0.26055128395E+04  0.26075824796E+04  0.47000000000E+01 0.  1.
         11    1    6    6    0    0  0.21203759704E+02  0.25015188497E+02  0.44905473913E+03  0.45025050563E+03  0.00000000000E+00 0. -1.
        -12    1    6    6    0    0 -0.17406127296E+02 -0.43665577998E+02  0.12611390672E+04  0.12620148188E+04  0.00000000000E+00 0.  1.
</event>
<event>
12    1  0.1345781E-002  0.2243910E+03  0.7818608E-02  0.1130651E+00
          1   -1    0    0  502    0  0.00000000000E+00  0.00000000000E+00  0.97899543988E+03  0.97899543988E+03  0.00000000000E+00 0.  1.
         -1   -1    0    0    0  501 -0.00000000000E+00 -0.00000000000E+00 -0.67283147559E+02  0.67283147559E+02  0.00000000000E+00 0. -1.
          6    2    1    2  502    0 -0.13361322795E+03 -0.40133904120E+02  0.70722918170E+03  0.74148560198E+03  0.17367946788E+03 0.  0.
         24    2    3    3    0    0 -0.35483704222E+02  0.41389058613E+02  0.30109482516E+03  0.31575963092E+03  0.77935250955E+02 0.  0.
         -6    2    1    2    0  501  0.13361322795E+03  0.40133904120E+02  0.20448311063E+03  0.30479298546E+03  0.17782630994E+03 0.  0.
        -24    2    5    5    0    0  0.22052821740E+02  0.34494872249E+02  0.29056577766E+02  0.96768752862E+02  0.82726559586E+02 0.  0.
          5    1    3    3  502    0 -0.98129523732E+02 -0.81522962732E+02  0.40613435654E+03  0.42572597107E+03  0.47000000000E+01 0. -1.
        -11    1    4    4    0    0  0.22777319033E+02  0.67556295055E+01  0.12149899765E+03  0.12380004533E+03  0.00000000000E+00 0.  1.
         12    1    4    4    0    0 -0.58261023254E+02  0.34633429107E+02  0.17959582750E+03  0.19195958559E+03  0.00000000000E+00 0. -1.
         -5    1    5    5    0  501  0.11156040621E+03  0.56390318706E+01  0.17542653286E+03  0.20802423260E+03  0.47000000000E+01 0.  1.
         11    1    6    6    0    0 -0.17974596587E+02  0.32814227480E+02  0.40466869392E+02  0.55112858445E+02  0.00000000000E+00 0. -1.
        -12    1    6    6    0    0  0.40027418326E+02  0.16806447687E+01 -0.11410291626E+02  0.41655894417E+02  0.00000000000E+00 0.  1.
</event>
<event>
12    1  0.1345781E-002  0.1839427E+03  0.7818608E-02  0.1164041E+00
          1   -1    0    0  502    0  0.00000000000E+00  0.00000000000E+00  0.78231135083E+03  0.78231135083E+03  0.00000000000E+00 0. -1.
         -1   -1    0    0    0  501 -0.00000000000E+00 -0.00000000000E+00 -0.50076931592E+02  0.50076931592E+02  0.00000000000E+00 0.  1.
          6    2    1    2  502    0 -0.18377111353E+02  0.66881101570E+02  0.51891317078E+03  0.55038159100E+03  0.16981818787E+03 0.  0.
         24    2    3    3    0    0 -0.74969569957E+01 -0.25642974854E+02  0.20630182116E+03  0.22415003460E+03  0.83480716784E+02 0.  0.
         -6    2    1    2    0  501  0.18377111353E+02 -0.66881101570E+02  0.21332124846E+03  0.28200669143E+03  0.17091231376E+03 0.  0.
        -24    2    5    5    0    0 -0.25339924440E+01 -0.67133107286E+02  0.23124737949E+03  0.25406435898E+03  0.80994276166E+02 0.  0.
          5    1    3    3  502    0 -0.10880154357E+02  0.92524076424E+02  0.31261134962E+03  0.32623155640E+03  0.47000000000E+01 0. -1.
        -13    1    4    4    0    0 -0.26134411347E+02  0.23342799350E+02  0.90149890966E+02  0.96720714323E+02  0.00000000000E+00 0.  1.
         14    1    4    4    0    0  0.18637454351E+02 -0.48985774204E+02  0.11615193019E+03  0.12742932027E+03  0.00000000000E+00 0. -1.
         -5    1    5    5    0  501  0.20911103797E+02  0.25200571677E+00 -0.17926131028E+02  0.27942332446E+02  0.47000000000E+01 0.  1.
         11    1    6    6    0    0 -0.26710133611E+02 -0.14560218756E+02  0.15705715096E+03  0.15997618533E+03  0.00000000000E+00 0. -1.
        -12    1    6    6    0    0  0.24176141167E+02 -0.52572888531E+02  0.74190228534E+02  0.94088173647E+02  0.00000000000E+00 0.  1.
</event>
<event>
12    1  0.1345781E-002  0.1755740E+03  0.7818608E-02  0.1172157E+00
          2   -1    0    0  502    0  0.00000000000E+00  0.00000000000E+00  0.11192801863E+04  0.11192801863E+04  0.00000000000E+00 0. -1.
         -2   -1    0    0    0  501 -0.00000000000E+00 -0.00000000000E+00 -0.28437856759E+02  0.28437856759E+02  0.00000000000E+00 0.  1.
          6    2    1    2  502    0  0.38780159995E+02 -0.27902782079E+01  0.64846311368E+03  0.67191113443E+03  0.17160558356E+03 0.  0.
         24    2    3    3    0    0  0.21296145753E+02  0.68207012304E+01  0.64549274343E+03  0.65119942810E+03  0.83064827367E+02 0.  0.
         -6    2    1    2    0  501 -0.38780159995E+02  0.27902782079E+01  0.44237921590E+03  0.47580690867E+03  0.17082493147E+03 0.  0.
        -24    2    5    5    0    0 -0.49346990526E+01 -0.16635569773E+02  0.42497637647E+03  0.43282054319E+03  0.80172368170E+02 0.  0.
          5    1    3    3  502    0  0.17484014242E+02 -0.96109794382E+01  0.29703702473E+01  0.20711706332E+02  0.47000000000E+01 0. -1.
        -11    1    4    4    0    0 -0.16721538523E+02 -0.29154602998E+02  0.23954901670E+03  0.24189529166E+03  0.00000000000E+00 0.  1.
         12    1    4    4    0    0  0.38017684276E+02  0.35975304228E+02  0.40594372674E+03  0.40930413644E+03  0.00000000000E+00 0. -1.
         -5    1    5    5    0  501 -0.33845460942E+02  0.19425847981E+02  0.17402839433E+02  0.42986365472E+02  0.47000000000E+01 0.  1.
         13    1    6    6    0    0 -0.36337364681E+02 -0.18554483259E+02  0.33554879295E+03  0.33802021444E+03  0.00000000000E+00 0. -1.
        -14    1    6    6    0    0  0.31402665629E+02  0.19189134860E+01  0.89427583517E+02  0.94800328750E+02  0.00000000000E+00 0.  1.
</event>
<event>
12    1  0.1345781E-002  0.1937505E+03  0.7818608E-02  0.1155121E+00
         -1   -1    0    0    0  501 -0.00000000000E+00  0.00000000000E+00  0.63862903999E+02  0.63862903999E+02  0.00000000000E+00 0.  1.
          1   -1    0    0  502    0  0.00000000000E+00 -0.00000000000E+00 -0.86790180141E+03  0.86790180141E+03  0.00000000000E+00 0. -1.
          6    2    1    2  502    0  0.46827837180E+02  0.77365838457E+02 -0.66640708345E+03  0.69394690453E+03  0.17113031916E+03 0.  0.
         24    2    3    3    0    0 -0.21623165060E+02  0.68848606473E+01 -0.42906377649E+03  0.43702854531E+03  0.79895322476E+02 0.  0.
         -6    2    1    2    0  501 -0.46827837180E+02 -0.77365838457E+02 -0.13763181396E+03  0.23781780087E+03  0.17157060035E+03 0.  0.
        -24    2    5    5    0    0  0.32792391334E+02 -0.69938299530E+02 -0.80630399882E+02  0.13950299868E+03  0.83624868229E+02 0.  0.
          5    1    3    3  502    0  0.68451002240E+02  0.70480977810E+02 -0.23734330697E+03  0.25691835922E+03  0.47000000000E+01 0. -1.
        -13    1    4    4    0    0 -0.22064027207E+01  0.41146371549E+02 -0.16623294808E+03  0.17126378815E+03  0.00000000000E+00 0.  1.
         14    1    4    4    0    0 -0.19416762339E+02 -0.34261510902E+02 -0.26283082841E+03  0.26576475716E+03  0.00000000000E+00 0. -1.
         -5    1    5    5    0  501 -0.79620228515E+02 -0.74275389271E+01 -0.57001414074E+02  0.98314802190E+02  0.47000000000E+01 0.  1.
         11    1    6    6    0    0  0.18553195437E+02  0.16984596457E+02 -0.24139820254E+02  0.34862996136E+02  0.00000000000E+00 0. -1.
        -12    1    6    6    0    0  0.14239195898E+02 -0.86922895987E+02 -0.56490579628E+02  0.10464000255E+03  0.00000000000E+00 0.  1.
</event>
<event>
12    1  0.1345781E-002  0.1705173E+03  0.7818608E-02  0.1177309E+00
          2   -1    0    0  502    0  0.00000000000E+00  0.00000000000E+00  0.21468887444E+03  0.21468887444E+03  0.00000000000E+00 0. -1.
         -2   -1    0    0    0  501 -0.00000000000E+00 -0.00000000000E+00 -0.14524080020E+03  0.14524080020E+03  0.00000000000E+00 0.  1.
          6    2    1    2  502    0 -0.59802139499E+01 -0.10721212941E+02 -0.11619122401E+02  0.17289123929E+03  0.17206298048E+03 0.  0.
         24    2    3    3    0    0 -0.12374950949E+02 -0.73692252543E+02 -0.10102159953E+02  0.10940395186E+03  0.79268427207E+02 0.  0.
         -6    2    1    2    0  501  0.59802139499E+01  0.10721212941E+02  0.81067196642E+02  0.18703843536E+03  0.16810942437E+03 0.  0.
        -24    2    5    5    0    0 -0.53940278832E+02  0.53852384275E+01  0.15305292075E+02  0.97787910588E+02  0.79935405286E+02 0.  0.
          5    1    3    3  502    0  0.63947369992E+01  0.62971039603E+02 -0.15169624485E+01  0.63487287428E+02  0.47000000000E+01 0. -1.
        -13    1    4    4    0    0 -0.36543637370E+01 -0.90194960184E+02 -0.86464718320E+01  0.90682118922E+02  0.00000000000E+00 0.  1.
         14    1    4    4    0    0 -0.87205872122E+01  0.16502707641E+02 -0.14556881207E+01  0.18721832942E+02  0.00000000000E+00 0. -1.
         -5    1    5    5    0  501  0.59920492782E+02  0.53359745131E+01  0.65761904567E+02  0.89250524768E+02  0.47000000000E+01 0.  1.
         11    1    6    6    0    0 -0.10039161725E+02  0.22795460510E+02  0.37964366332E+02  0.45406066764E+02  0.00000000000E+00 0. -1.
        -12    1    6    6    0    0 -0.43901117107E+02 -0.17410222083E+02 -0.22659074257E+02  0.52381843824E+02  0.00000000000E+00 0.  1.
</event>
<event>
12    1  0.1345781E-002  0.3446636E+03  0.7818608E-02  0.1064827E+00
          2   -1    0    0  502    0  0.00000000000E+00  0.00000000000E+00  0.14955107220E+04  0.14955107220E+04  0.00000000000E+00 0.  1.
         -2   -1    0    0    0  501 -0.00000000000E+00 -0.00000000000E+00 -0.14236281437E+03  0.14236281437E+03  0.00000000000E+00 0. -1.
          6    2    1    2  502    0 -0.28939940428E+03  0.73473624188E+02  0.13247995443E+03  0.36957456847E+03  0.17286999360E+03 0.  0.
         24    2    3    3    0    0 -0.12724515329E+03  0.57066344241E+01  0.10237296560E+02  0.15544441315E+03  0.88511403930E+02 0.  0.
         -6    2    1    2    0  501  0.28939940428E+03 -0.73473624188E+02  0.12206679532E+04  0.12682989679E+04  0.17146903913E+03 0.  0.
        -24    2    5    5    0    0  0.13075532904E+03 -0.10182361664E+03  0.62961680199E+03  0.65565288898E+03  0.77449264044E+02 0.  0.
          5    1    3    3  502    0 -0.16215425098E+03  0.67766989764E+02  0.12224265787E+03  0.21413015532E+03  0.47000000000E+01 0. -1.
        -13    1    4    4    0    0 -0.61622508847E+01 -0.16724550849E+02 -0.21842047185E+02  0.28191469673E+02  0.00000000000E+00 0.  1.
         14    1    4    4    0    0 -0.12108290241E+03  0.22431185273E+02  0.32079343745E+02  0.12725294348E+03  0.00000000000E+00 0. -1.
         -5    1    5    5    0  501  0.15864407523E+03  0.28349992452E+02  0.59105115117E+03  0.61264607889E+03  0.47000000000E+01 0.  1.
         13    1    6    6    0    0  0.16947108340E+02 -0.20913125210E+01  0.15151240654E+02  0.22828450725E+02  0.00000000000E+00 0. -1.
        -14    1    6    6    0    0  0.11380822070E+03 -0.99732304118E+02  0.61446556134E+03  0.63282443826E+03  0.00000000000E+00 0.  1.
</event>
<event>
12    1  0.1345781E-002  0.2610999E+03  0.7818608E-02  0.1106484E+00
          2   -1    0    0  502    0  0.00000000000E+00  0.00000000000E+00  0.74453254529E+03  0.74453254529E+03  0.00000000000E+00 0.  1.
         -2   -1    0    0    0  501 -0.00000000000E+00 -0.00000000000E+00 -0.91779951285E+02  0.91779951285E+02  0.00000000000E+00 0. -1.
          6    2    1    2  502    0 -0.19008275445E+03 -0.48020602134E+02  0.30720300265E+03  0.40370168468E+03  0.17367767159E+03 0.  0.
         24    2    3    3    0    0 -0.11951830671E+03 -0.77656457143E+02  0.26387552398E+03  0.31562793379E+03  0.98364370894E+02 0.  0.
         -6    2    1    2    0  501  0.19008275445E+03  0.48020602134E+02  0.34554959136E+03  0.43261081190E+03  0.17120211072E+03 0.  0.
        -24    2    5    5    0    0  0.17192048009E+03 -0.15344353354E+02  0.22095974007E+03  0.29157993997E+03  0.80022209441E+02 0.  0.
          5    1    3    3  502    0 -0.70564447742E+02  0.29635855009E+02  0.43327478672E+02  0.88073750887E+02  0.47000000000E+01 0. -1.
        -11    1    4    4    0    0  0.10546457323E+02 -0.15118253272E+02  0.78841002428E+02  0.80967234162E+02  0.00000000000E+00 0.  1.
         12    1    4    4    0    0 -0.13006476403E+03 -0.62538203871E+02  0.18503452155E+03  0.23466069963E+03  0.00000000000E+00 0. -1.
         -5    1    5    5    0  501  0.18162274357E+02  0.63364955488E+02  0.12458985129E+03  0.14103087193E+03  0.47000000000E+01 0.  1.
         13    1    6    6    0    0  0.14225235179E+03 -0.35887245869E+02  0.13932132715E+03  0.20232167013E+03  0.00000000000E+00 0. -1.
        -14    1    6    6    0    0  0.29668128302E+02  0.20542892515E+02  0.81638412918E+02  0.89258269833E+02  0.00000000000E+00 0.  1.
</event>
<event>
12    1  0.1345781E-002  0.2112032E+03  0.7818608E-02  0.1140617E+00
         -1   -1    0    0    0  501 -0.00000000000E+00  0.00000000000E+00  0.10198178139E+03  0.10198178139E+03  0.00000000000E+00 0. -1.
          1   -1    0    0  502    0  0.00000000000E+00 -0.00000000000E+00 -0.44708234405E+03  0.44708234405E+03  0.00000000000E+00 0.  1.
          6    2    1    2  502    0  0.35784727244E+02  0.11935367857E+03 -0.21171358143E+03  0.29800002212E+03  0.16868765612E+03 0.  0.
         24    2    3    3    0    0 -0.59131510569E+01  0.14069924545E+03 -0.15195575891E+03  0.22192483804E+03  0.79553994553E+02 0.  0.
         -6    2    1    2    0  501 -0.35784727244E+02 -0.11935367857E+03 -0.13338698123E+03  0.25106410333E+03  0.17238111824E+03 0.  0.
        -24    2    5    5    0    0 -0.66851194513E+02 -0.44461455023E+02 -0.12651634600E+03  0.16955786942E+03  0.79357306455E+02 0.  0.
          5    1    3    3  502    0  0.41697878301E+02 -0.21345566875E+02 -0.59757822523E+02  0.76075184080E+02  0.47000000000E+01 0. -1.
        -11    1    4    4    0    0 -0.27812041881E+02  0.53376636926E+02 -0.10339222356E+03  0.11963497372E+03  0.00000000000E+00 0.  1.
         12    1    4    4    0    0  0.21898890824E+02  0.87322608520E+02 -0.48563535346E+02  0.10228986432E+03  0.00000000000E+00 0. -1.
         -5    1    5    5    0  501  0.31066467268E+02 -0.74892223549E+02 -0.68706352323E+01  0.81506233903E+02  0.47000000000E+01 0.  1.
         11    1    6    6    0    0 -0.43188421637E+02  0.11410926945E+02 -0.85044419011E+02  0.96062491234E+02  0.00000000000E+00 0. -1.
        -12    1    6    6    0    0 -0.23662772876E+02 -0.55872381968E+02 -0.41471926987E+02  0.73495378188E+02  0.00000000000E+00 0.  1.
</event>
<event>
12    1  0.1345781E-002  0.2149779E+03  0.7818608E-02  0.1137684E+00
          1   -1    0    0  502    0  0.00000000000E+00  0.00000000000E+00  0.10026249497E+03  0.10026249497E+03  0.00000000000E+00 0.  1.
         -1   -1    0    0    0  501 -0.00000000000E+00 -0.00000000000E+00 -0.49452843691E+03  0.49452843691E+03  0.00000000000E+00 0. -1.
          6    2    1    2  502    0 -0.86133499070E+02 -0.93308944284E+02 -0.12129333835E+03  0.24849099659E+03  0.17581286276E+03 0.  0.
         24    2    3    3    0    0  0.68231785017E+01 -0.65335270349E+00 -0.75028440589E+02  0.10924828288E+03  0.79113448800E+02 0.  0.
         -6    2    1    2    0  501  0.86133499070E+02  0.93308944284E+02 -0.27297260358E+03  0.34629993529E+03  0.17112587218E+03 0.  0.
        -24    2    5    5    0    0  0.53813729166E+02  0.12473473909E+03 -0.24983933131E+03  0.29541392157E+03  0.79968875249E+02 0.  0.
          5    1    3    3  502    0 -0.92956677572E+02 -0.92655591581E+02 -0.46264897766E+02  0.13924271371E+03  0.47000000000E+01 0. -1.
        -11    1    4    4    0    0  0.26477654234E+02 -0.30106023065E+02 -0.56514902679E+02  0.69291940537E+02  0.00000000000E+00 0.  1.
         12    1    4    4    0    0 -0.19654475732E+02  0.29452670362E+02 -0.18513537910E+02  0.39956342346E+02  0.00000000000E+00 0. -1.
         -5    1    5    5    0  501  0.32319769904E+02 -0.31425794803E+02 -0.23133272269E+02  0.50886013712E+02  0.47000000000E+01 0.  1.
         13    1    6    6    0    0 -0.15601131403E+02  0.43977566868E+02 -0.46493401553E+02  0.65871527055E+02  0.00000000000E+00 0. -1.
        -14    1    6    6    0    0  0.69414860569E+02  0.80757172219E+02 -0.20334592976E+03  0.22954239452E+03  0.00000000000E+00 0.  1.
</event>
<event>
12    1  0.1345781E-002  0.2001292E+03  0.7818608E-02  0.1149630E+00
          2   -1    0    0  502    0  0.00000000000E+00  0.00000000000E+00  0.10933837644E+04  0.10933837644E+04  0.00000000000E+00 0. -1.
         -2   -1    0    0    0  501 -0.00000000000E+00 -0.00000000000E+00 -0.44993479966E+02  0.44993479966E+02  0.00000000000E+00 0.  1.
          6    2    1    2  502    0  0.93154612809E+02 -0.43509833996E+02  0.76694144002E+03  0.79231492626E+03  0.17027296443E+03 0.  0.
         24    2    3    3    0    0  0.20445531141E+02 -0.89489560139E+01  0.61023516602E+03  0.61607641981E+03  0.81640024785E+02 0.  0.
         -6    2    1    2    0  501 -0.93154612809E+02  0.43509833996E+02  0.28144884446E+03  0.34606231815E+03  0.17313228600E+03 0.  0.
        -24    2    5    5    0    0 -0.15796996836E+02  0.54104175933E+02  0.72748142447E+02  0.12318451789E+03  0.81886056535E+02 0.  0.
          5    1    3    3  502    0  0.72709081668E+02 -0.34560877982E+02  0.15670627400E+03  0.17623850645E+03  0.47000000000E+01 0. -1.
        -11    1    4    4    0    0  0.18475000284E+02  0.35517460144E+02  0.30321904067E+03  0.30585062079E+03  0.00000000000E+00 0.  1.
         12    1    4    4    0    0  0.19705308575E+01 -0.44466416158E+02  0.30701612535E+03  0.31022579902E+03  0.00000000000E+00 0. -1.
         -5    1    5    5    0  501 -0.77357615973E+02 -0.10594341937E+02  0.20870070202E+03  0.22287780027E+03  0.47000000000E+01 0.  1.
         13    1    6    6    0    0  0.15882602434E+02  0.62832086210E+00 -0.10678963246E+02  0.19149206333E+02  0.00000000000E+00 0. -1.
        -14    1    6    6    0    0 -0.31679599270E+02  0.53475855071E+02  0.83427105693E+02  0.10403531155E+03  0.00000000000E+00 0.  1.
</event>
<event>
12    1  0.1345781E-002  0.1728317E+03  0.7818608E-02  0.1174927E+00
         -2   -1    0    0    0  501 -0.00000000000E+00  0.00000000000E+00  0.29908238993E+02  0.29908238993E+02  0.00000000000E+00 0.  1.
          2   -1    0    0  502    0  0.00000000000E+00 -0.00000000000E+00 -0.13591137378E+04  0.13591137378E+04  0.00000000000E+00 0. -1.
          6    2    1    2  502    0 -0.22744613428E+02 -0.44160283389E-01 -0.10228300353E+04  0.10373651642E+04  0.17154557208E+03 0.  0.
         24    2    3    3    0    0  0.42137352851E+02 -0.37106461725E+02 -0.63684696699E+03  0.64418797413E+03  0.79067317135E+02 0.  0.
         -6    2    1    2    0  501  0.22744613428E+02  0.44160283389E-01 -0.30637546342E+03  0.35165681255E+03  0.17111186352E+03 0.  0.
        -24    2    5    5    0    0  0.16044682078E+02 -0.62628231626E+02 -0.22637442282E+03  0.24970106586E+03  0.83219683736E+02 0.  0.
          5    1    3    3  502    0 -0.64881966279E+02  0.37062301442E+02 -0.38598306836E+03  0.39317719008E+03  0.47000000000E+01 0. -1.
        -11    1    4    4    0    0  0.17176602408E+02  0.23677803298E+02 -0.14069861376E+03  0.14370725088E+03  0.00000000000E+00 0.  1.
         12    1    4    4    0    0  0.24960750443E+02 -0.60784265023E+02 -0.49614835322E+03  0.50048072325E+03  0.00000000000E+00 0. -1.
         -5    1    5    5    0  501  0.66999313501E+01  0.62672391909E+02 -0.80001040593E+02  0.10195574669E+03  0.47000000000E+01 0.  1.
         13    1    6    6    0    0  0.50550820527E+01  0.11791395364E+02 -0.11245733763E+03  0.11318676445E+03  0.00000000000E+00 0. -1.
        -14    1    6    6    0    0  0.10989600025E+02 -0.74419626990E+02 -0.11391708519E+03  0.13651430141E+03  0.00000000000E+00 0.  1.
</event>
<event>
12    1  0.1345781E-002  0.2890070E+03  0.7818608E-02  0.1090869E+00
          2   -1    0    0  502    0  0.00000000000E+00  0.00000000000E+00  0.50795960662E+03  0.50795960662E+03  0.00000000000E+00 0.  1.
         -2   -1    0    0    0  501 -0.00000000000E+00 -0.00000000000E+00 -0.16746749911E+03  0.16746749911E+03  0.00000000000E+00 0. -1.
          6    2    1    2  502    0 -0.21358508872E+03 -0.92757875512E+02  0.21610240891E+03  0.36142189526E+03  0.17234535573E+03 0.  0.
         24    2    3    3    0    0 -0.94914608049E+02  0.20879952212E+02  0.53231310940E+02  0.13002327075E+03  0.68027371299E+02 0.  0.
         -6    2    1    2    0  501  0.21358508872E+03  0.92757875512E+02  0.12438969860E+03  0.31400521047E+03  0.17001135695E+03 0.  0.
        -24    2    5    5    0    0  0.11886987044E+03  0.10084316524E+03  0.13110663461E+03  0.21859267610E+03  0.79337370362E+02 0.  0.
          5    1    3    3  502    0 -0.11867048068E+03 -0.11363782772E+03  0.16287109797E+03  0.23139862452E+03  0.47000000000E+01 0. -1.
        -13    1    4    4    0    0 -0.87027735712E+02 -0.40256776416E+01  0.56284834250E+02  0.10372085340E+03  0.00000000000E+00 0.  1.
         14    1    4    4    0    0 -0.78868723373E+01  0.24905629853E+02 -0.30535233103E+01  0.26302417346E+02  0.00000000000E+00 0. -1.
         -5    1    5    5    0  501  0.94715218288E+02 -0.80852897233E+01 -0.67169360093E+01  0.95412534369E+02  0.47000000000E+01 0.  1.
         11    1    6    6    0    0  0.11241523593E+03  0.93085867644E+02  0.79881032765E+02  0.16638252138E+03  0.00000000000E+00 0. -1.
        -12    1    6    6    0    0  0.64546345062E+01  0.77572975919E+01  0.51225601841E+02  0.52210154726E+02  0.00000000000E+00 0.  1.
</event>
<event>
12    1  0.1345781E-002  0.2146457E+03  0.7818608E-02  0.1137939E+00
          2   -1    0    0  502    0  0.00000000000E+00  0.00000000000E+00  0.88825290266E+03  0.88825290266E+03  0.00000000000E+00 0.  1.
         -2   -1    0    0    0  501 -0.00000000000E+00 -0.00000000000E+00 -0.53416257065E+02  0.53416257065E+02  0.00000000000E+00 0. -1.
          6    2    1    2  502    0 -0.60092435916E+02 -0.11557342783E+03  0.33839122768E+03  0.40103785413E+03  0.17133131471E+03 0.  0.
         24    2    3    3    0    0 -0.10280126875E+03 -0.62696735153E+02  0.26587079328E+03  0.30153261590E+03  0.75734128873E+02 0.  0.
         -6    2    1    2    0  501  0.60092435916E+02  0.11557342783E+03  0.49644541791E+03  0.54063130559E+03  0.16987006076E+03 0.  0.
        -24    2    5    5    0    0  0.83422276609E+02  0.87633155245E+02  0.47804600790E+03  0.49957562891E+03  0.80056087824E+02 0.  0.
          5    1    3    3  502    0  0.42708832832E+02 -0.52876692677E+02  0.72520434399E+02  0.99505238233E+02  0.47000000000E+01 0. -1.
        -11    1    4    4    0    0 -0.53003337200E+02 -0.54866356360E+02  0.87072238756E+02  0.11576374897E+03  0.00000000000E+00 0.  1.
         12    1    4    4    0    0 -0.49797931549E+02 -0.78303787933E+01  0.17879855452E+03  0.18576886692E+03  0.00000000000E+00 0. -1.
         -5    1    5    5    0  501 -0.23329840693E+02  0.27940272585E+02  0.18399410011E+02  0.41055676680E+02  0.47000000000E+01 0.  1.
         13    1    6    6    0    0 -0.55989234273E+01  0.45987919303E+02  0.13493849826E+03  0.14266967084E+03  0.00000000000E+00 0. -1.
        -14    1    6    6    0    0  0.89021200036E+02  0.41645235942E+02  0.34310750964E+03  0.35690595807E+03  0.00000000000E+00 0.  1.
</event>
<event>
12    1  0.1345781E-002  0.1922069E+03  0.7818608E-02  0.1156486E+00
         -3   -1    0    0    0  501 -0.00000000000E+00  0.00000000000E+00  0.77244717197E+03  0.77244717197E+03  0.00000000000E+00 0.  1.
          3   -1    0    0  502    0  0.00000000000E+00 -0.00000000000E+00 -0.54195683729E+02  0.54195683729E+02  0.00000000000E+00 0. -1.
          6    2    1    2  502    0  0.68542684139E+02 -0.53397165237E+02  0.50062037763E+03  0.53620737892E+03  0.17131326249E+03 0.  0.
         24    2    3    3    0    0  0.24999805019E+02 -0.19432263240E+02  0.92266281130E+02  0.12410938691E+03  0.76729851950E+02 0.  0.
         -6    2    1    2    0  501 -0.68542684139E+02  0.53397165237E+02  0.21763111061E+03  0.29043547678E+03  0.17158120253E+03 0.  0.
        -24    2    5    5    0    0 -0.18520587153E+02  0.11355722607E+02  0.25215227600E+02  0.87172949193E+02  0.80568919464E+02 0.  0.
          5    1    3    3  502    0  0.43542879120E+02 -0.33964901997E+02  0.40835409650E+03  0.41209799201E+03  0.47000000000E+01 0. -1.
        -13    1    4    4    0    0  0.48309737535E+02 -0.43858937763E+01  0.32995793347E+02  0.58666763874E+02  0.00000000000E+00 0.  1.
         14    1    4    4    0    0 -0.23309932516E+02 -0.15046369464E+02  0.59270487784E+02  0.65442623038E+02  0.00000000000E+00 0. -1.
         -5    1    5    5    0  501 -0.50022096986E+02  0.42041442630E+02  0.19241588301E+03  0.20326252759E+03  0.47000000000E+01 0.  1.
         11    1    6    6    0    0  0.22519398393E+02  0.17455755663E+02  0.34410271652E+02  0.44675423948E+02  0.00000000000E+00 0. -1.
        -12    1    6    6    0    0 -0.41039985546E+02 -0.61000330560E+01 -0.91950440517E+01  0.42497525245E+02  0.00000000000E+00 0.  1.
</event>
<event>
12    1  0.1345781E-002  0.2060113E+03  0.7818608E-02  0.1144764E+00
         -2   -1    0    0    0  501 -0.00000000000E+00  0.00000000000E+00  0.26406323199E+03  0.26406323199E+03  0.00000000000E+00 0. -1.
          2   -1    0    0  502    0  0.00000000000E+00 -0.00000000000E+00 -0.16428744222E+03  0.16428744222E+03  0.00000000000E+00 0.  1.
          6    2    1    2  502    0  0.43889587311E+01 -0.11119323575E+03  0.18070262230E+02  0.20558817595E+03  0.17192081049E+03 0.  0.
         24    2    3    3    0    0 -0.52633687520E+02 -0.99796694108E+02  0.21193283362E+02  0.14716466521E+03  0.92079303911E+02 0.  0.
         -6    2    1    2    0  501 -0.43889587311E+01  0.11119323575E+03  0.81705527538E+02  0.22276249826E+03  0.17482602427E+03 0.  0.
        -24    2    5    5    0    0  0.31286049319E+02  0.13605113932E+03  0.37938157962E+02  0.16088928751E+03  0.70408306424E+02 0.  0.
          5    1    3    3  502    0  0.57022646251E+02 -0.11396541644E+02 -0.31230211318E+01  0.58423510746E+02  0.47000000000E+01 0. -1.
        -11    1    4    4    0    0 -0.48867620275E+02 -0.10585063754E+03 -0.82427531043E+01  0.11687747754E+03  0.00000000000E+00 0.  1.
         12    1    4    4    0    0 -0.37660672453E+01  0.60539434306E+01  0.29436036466E+02  0.30287187661E+02  0.00000000000E+00 0. -1.
         -5    1    5    5    0  501 -0.35675008051E+02 -0.24857903564E+02  0.43767369576E+02  0.61873210750E+02  0.47000000000E+01 0.  1.
         13    1    6    6    0    0  0.29951964523E+02  0.64846575271E+02 -0.13943820842E+02  0.72777940634E+02  0.00000000000E+00 0. -1.
        -14    1    6    6    0    0  0.13340847962E+01  0.71204564044E+02  0.51881978804E+02  0.88111346872E+02  0.00000000000E+00 0.  1.
</event>
<event>
12    1  0.1345781E-002  0.1777206E+03  0.7818608E-02  0.1170027E+00
         -2   -1    0    0    0  501 -0.00000000000E+00  0.00000000000E+00  0.16253363360E+02  0.16253363360E+02  0.00000000000E+00 0.  1.
          2   -1    0    0  502    0  0.00000000000E+00 -0.00000000000E+00 -0.33643753719E+04  0.33643753719E+04  0.00000000000E+00 0. -1.
          6    2    1    2  502    0 -0.41900354225E+02  0.16844450808E+02 -0.27710742065E+04  0.27767490566E+04  0.17159163829E+03 0.  0.
         24    2    3    3    0    0 -0.89590966379E+02  0.68973248774E+01 -0.21343500677E+04  0.21381466305E+04  0.90259001840E+02 0.  0.
         -6    2    1    2    0  501  0.41900354225E+02 -0.16844450808E+02 -0.57704780212E+03  0.60387967871E+03  0.17218340578E+03 0.  0.
        -24    2    5    5    0    0  0.49901312295E+02  0.17877483724E+02 -0.16138780763E+03  0.18666876193E+03  0.77391581160E+02 0.  0.
          5    1    3    3  502    0  0.47690612154E+02  0.99471259307E+01 -0.63672413875E+03  0.63860242614E+03  0.47000000000E+01 0. -1.
        -13    1    4    4    0    0 -0.28152702187E+02 -0.13029799658E+01 -0.13870462476E+03  0.14153884742E+03  0.00000000000E+00 0.  1.
         14    1    4    4    0    0 -0.61438264192E+02  0.82003048432E+01 -0.19956454430E+04  0.19966077830E+04  0.00000000000E+00 0. -1.
         -5    1    5    5    0  501 -0.80009580704E+01 -0.34721934532E+02 -0.41565999449E+03  0.41721091679E+03  0.47000000000E+01 0.  1.
         11    1    6    6    0    0  0.18616868667E+02 -0.17641948474E+02 -0.12323063308E+03  0.12587142279E+03  0.00000000000E+00 0. -1.
        -12    1    6    6    0    0  0.31284443628E+02  0.35519432198E+02 -0.38157174547E+02  0.60797339137E+02  0.00000000000E+00 0.  1.
</event>
<event>
12    1  0.1345781E-002  0.1844656E+03  0.7818608E-02  0.1163550E+00
         -2   -1    0    0    0  501 -0.00000000000E+00  0.00000000000E+00  0.24665073959E+02  0.24665073959E+02  0.00000000000E+00 0. -1.
          2   -1    0    0  502    0  0.00000000000E+00 -0.00000000000E+00 -0.13833804208E+04  0.13833804208E+04  0.00000000000E+00 0.  1.
          6    2    1    2  502    0 -0.60954535204E+02  0.24962854127E+02 -0.64344056520E+03  0.66943179846E+03  0.17258207438E+03 0.  0.
         24    2    3    3    0    0 -0.79815641742E+02 -0.93214667816E+01 -0.59997735664E+03  0.61076071104E+03  0.81230482374E+02 0.  0.
         -6    2    1    2    0  501  0.60954535204E+02 -0.24962854127E+02 -0.71527478169E+03  0.73861369635E+03  0.17202784560E+03 0.  0.
        -24    2    5    5    0    0  0.19946902494E+02  0.19193806243E+02 -0.16787338890E+03  0.18788525925E+03  0.79706429018E+02 0.  0.
          5    1    3    3  502    0  0.18861106538E+02  0.34284320908E+02 -0.43463208560E+02  0.58671087413E+02  0.47000000000E+01 0. -1.
        -11    1    4    4    0    0 -0.86613122497E+02 -0.15504266075E+02 -0.35962733676E+03  0.37023510990E+03  0.00000000000E+00 0.  1.
         12    1    4    4    0    0  0.67974807557E+01  0.61827992938E+01 -0.24035001988E+03  0.24052560114E+03  0.00000000000E+00 0. -1.
         -5    1    5    5    0  501  0.41007632710E+02 -0.44156660370E+02 -0.54740139279E+03  0.55072843710E+03  0.47000000000E+01 0.  1.
         11    1    6    6    0    0  0.79856645037E+01 -0.31337761103E+02 -0.59824960948E+02  0.68006264865E+02  0.00000000000E+00 0. -1.
        -12    1    6    6    0    0  0.11961237990E+02  0.50531567346E+02 -0.10804842795E+03  0.11987899439E+03  0.00000000000E+00 0.  1.
</event>
<event>
12    1  0.1345781E-002  0.2299436E+03  0.7818608E-02  0.1126679E+00
          2   -1    0    0  502    0  0.00000000000E+00  0.00000000000E+00  0.14273466142E+04  0.14273466142E+04  0.00000000000E+00 0.  1.
         -2   -1    0    0    0  501 -0.00000000000E+00 -0.00000000000E+00 -0.42216218671E+02  0.42216218671E+02  0.00000000000E+00 0. -1.
          6    2    1    2  502    0 -0.10831196717E+03  0.10876427445E+03  0.95370301405E+03  0.98138712517E+03  0.17323423685E+03 0.  0.
         24    2    3    3    0    0 -0.42896429011E+02  0.12932626550E+03  0.75159103652E+03  0.76790801713E+03  0.78919262717E+02 0.  0.
         -6    2    1    2    0  501  0.10831196717E+03 -0.10876427445E+03  0.43142738146E+03  0.48817570768E+03  0.16918861211E+03 0.  0.
        -24    2    5    5    0    0 -0.14930126262E+01 -0.84059513128E+02  0.25102430205E+03  0.27549091772E+03  0.76248375010E+02 0.  0.
          5    1    3    3  502    0 -0.65415538161E+02 -0.20561991052E+02  0.20211197753E+03  0.21347910804E+03  0.47000000000E+01 0. -1.
        -11    1    4    4    0    0 -0.37131066632E+02  0.72248164688E+02  0.60603027158E+03  0.61145008257E+03  0.00000000000E+00 0.  1.
         12    1    4    4    0    0 -0.57653623792E+01  0.57078100812E+02  0.14556076494E+03  0.15645793455E+03  0.00000000000E+00 0. -1.
         -5    1    5    5    0  501  0.10980497980E+03 -0.24704761321E+02  0.18040307941E+03  0.21268478996E+03  0.47000000000E+01 0.  1.
         13    1    6    6    0    0 -0.25452188083E+02 -0.31867280257E+01  0.91661508452E+02  0.95182988214E+02  0.00000000000E+00 0. -1.
        -14    1    6    6    0    0  0.23959175457E+02 -0.80872785102E+02  0.15936279360E+03  0.18030792951E+03  0.00000000000E+00 0.  1.
</event>
<event>
12    1  0.1345781E-002  0.2079387E+03  0.7818608E-02  0.1143209E+00
          1   -1    0    0  502    0  0.00000000000E+00  0.00000000000E+00  0.91282532296E+03  0.91282532296E+03  0.00000000000E+00 0. -1.
         -1   -1    0    0    0  501 -0.00000000000E+00 -0.00000000000E+00 -0.47801866536E+02  0.47801866536E+02  0.00000000000E+00 0.  1.
          6    2    1    2  502    0  0.10764796233E+03  0.45233952642E+02  0.38625845609E+03  0.43856179647E+03  0.17177502776E+03 0.  0.
         24    2    3    3    0    0  0.60039261904E+02  0.90157167797E+02  0.19984689431E+03  0.24093577597E+03  0.79863878583E+02 0.  0.
         -6    2    1    2    0  501 -0.10764796233E+03 -0.45233952642E+02  0.47876500034E+03  0.52206539303E+03  0.17234313093E+03 0.  0.
        -24    2    5    5    0    0 -0.31414150029E+02 -0.49929390422E+02  0.40050849486E+03  0.41261306585E+03  0.79766501774E+02 0.  0.
          5    1    3    3  502    0  0.47608700425E+02 -0.44923215155E+02  0.18641156177E+03  0.19762602050E+03  0.47000000000E+01 0. -1.
        -11    1    4    4    0    0  0.53808544863E+02  0.40112182545E+02  0.52535459402E+02  0.85230987225E+02  0.00000000000E+00 0.  1.
         12    1    4    4    0    0  0.62307170418E+01  0.50044985252E+02  0.14731143491E+03  0.15570478875E+03  0.00000000000E+00 0. -1.
         -5    1    5    5    0  501 -0.76233812300E+02  0.46954377800E+01  0.78256505481E+02  0.10945232717E+03  0.47000000000E+01 0.  1.
         11    1    6    6    0    0 -0.84562429394E+01  0.19815418255E+02  0.15085692060E+03  0.15238756294E+03  0.00000000000E+00 0. -1.
        -12    1    6    6    0    0 -0.22957907089E+02 -0.69744808677E+02  0.24965157426E+03  0.26022550291E+03  0.00000000000E+00 0.  1.
</event>
<event>
12    1  0.1345781E-002  0.2632803E+03  0.7818608E-02  0.1105188E+00
         -2   -1    0    0    0  501 -0.00000000000E+00  0.00000000000E+00  0.22810446527E+03  0.22810446527E+03  0.00000000000E+00 0.  1.
          2   -1    0    0  502    0  0.00000000000E+00 -0.00000000000E+00 -0.55219466116E+03  0.55219466116E+03  0.00000000000E+00 0. -1.
          6    2    1    2  502    0  0.74613647638E+02  0.18574868283E+03 -0.42340719099E+03  0.49817636325E+03  0.16981245517E+03 0.  0.
         24    2    3    3    0    0  0.50626593676E+02  0.20587297623E+03 -0.35567865516E+03  0.42341266546E+03  0.88454763603E+02 0.  0.
         -6    2    1    2    0  501 -0.74613647638E+02 -0.18574868283E+03  0.99316995095E+02  0.28212276319E+03  0.17221968066E+03 0.  0.
        -24    2    5    5    0    0  0.20917079193E+02 -0.67959838523E+02  0.63441604415E+02  0.12620783360E+03  0.82749720464E+02 0.  0.
          5    1    3    3  502    0  0.23987053962E+02 -0.20124293390E+02 -0.67728535827E+02  0.74763697792E+02  0.47000000000E+01 0. -1.
        -13    1    4    4    0    0  0.15517227165E+01  0.15824334494E+03 -0.21467486253E+03  0.26669957005E+03  0.00000000000E+00 0.  1.
         14    1    4    4    0    0  0.49074870959E+02  0.47629631283E+02 -0.14100379263E+03  0.15671309540E+03  0.00000000000E+00 0. -1.
         -5    1    5    5    0  501 -0.95530726831E+02 -0.11778884431E+03  0.35875390680E+02  0.15591492959E+03  0.47000000000E+01 0.  1.
         13    1    6    6    0    0  0.46907618926E+01 -0.34754628835E+01  0.59297566963E+02  0.59584255782E+02  0.00000000000E+00 0. -1.
        -14    1    6    6    0    0  0.16226317300E+02 -0.64484375639E+02  0.41440374522E+01  0.66623577817E+02  0.00000000000E+00 0.  1.
</event>
<event>
12    1  0.1345781E-002  0.1855766E+03  0.7818608E-02  0.1162513E+00
          2   -1    0    0  502    0  0.00000000000E+00  0.00000000000E+00  0.78145335377E+03  0.78145335377E+03  0.00000000000E+00 0.  1.
         -2   -1    0    0    0  501 -0.00000000000E+00 -0.00000000000E+00 -0.90315980158E+02  0.90315980158E+02  0.00000000000E+00 0. -1.
          6    2    1    2  502    0 -0.13326448596E+02  0.69113413294E+02  0.32985794905E+02  0.18775139853E+03  0.17090426225E+03 0.  0.
         24    2    3    3    0    0 -0.50973029895E+01 -0.25040332773E+02 -0.60450822247E+01  0.85388582506E+02  0.81250638398E+02 0.  0.
         -6    2    1    2    0  501  0.13326448596E+02 -0.69113413294E+02  0.65815157871E+03  0.68401793539E+03  0.17251891855E+03 0.  0.
        -24    2    5    5    0    0 -0.58596246666E+02 -0.56365190168E+02  0.32929853947E+03  0.34711764940E+03  0.73773841179E+02 0.  0.
          5    1    3    3  502    0 -0.82291456068E+01  0.94153746067E+02  0.39030877130E+02  0.10236281603E+03  0.47000000000E+01 0. -1.
        -13    1    4    4    0    0  0.12818688137E+02 -0.13162179010E+02  0.34732225703E+02  0.39292355798E+02  0.00000000000E+00 0.  1.
         14    1    4    4    0    0 -0.17915991126E+02 -0.11878153763E+02 -0.40777307928E+02  0.46096226708E+02  0.00000000000E+00 0. -1.
         -5    1    5    5    0  501  0.71922695262E+02 -0.12748223126E+02  0.32885303924E+03  0.33690028600E+03  0.47000000000E+01 0.  1.
         13    1    6    6    0    0  0.75517684521E+01  0.11811179492E+02  0.30165835432E+02  0.33264257019E+02  0.00000000000E+00 0. -1.
        -14    1    6    6    0    0 -0.66148015118E+02 -0.68176369660E+02  0.29913270404E+03  0.31385339238E+03  0.00000000000E+00 0.  1.
</event>
<event>
12    1  0.1345781E-002  0.2031190E+03  0.7818608E-02  0.1147134E+00
          2   -1    0    0  502    0  0.00000000000E+00  0.00000000000E+00  0.18089870387E+03  0.18089870387E+03  0.00000000000E+00 0. -1.
         -2   -1    0    0    0  501 -0.00000000000E+00 -0.00000000000E+00 -0.23471564962E+03  0.23471564962E+03  0.00000000000E+00 0.  1.
          6    2    1    2  502    0  0.10574222854E+03  0.21106552295E+02  0.80295912484E+01  0.20352234111E+03  0.17242379056E+03 0.  0.
         24    2    3    3    0    0  0.16853070109E+02 -0.44280258652E+02  0.46676651963E+01  0.93022974245E+02  0.79916952898E+02 0.  0.
         -6    2    1    2    0  501 -0.10574222854E+03 -0.21106552295E+02 -0.61846536994E+02  0.21209201238E+03  0.17184621651E+03 0.  0.
        -24    2    5    5    0    0 -0.11802323137E+03 -0.50541052883E+02 -0.94168796331E+01  0.15054388628E+03  0.78044236842E+02 0.  0.
          5    1    3    3  502    0  0.88889158427E+02  0.65386810947E+02  0.33619260521E+01  0.11049936687E+03  0.47000000000E+01 0. -1.
        -11    1    4    4    0    0  0.25921058012E+02 -0.64053112505E+02  0.11864376441E+02  0.70110383670E+02  0.00000000000E+00 0.  1.
         12    1    4    4    0    0 -0.90679879030E+01  0.19772853853E+02 -0.71967112451E+01  0.22912590574E+02  0.00000000000E+00 0. -1.
         -5    1    5    5    0  501  0.12281002831E+02  0.29434500588E+02 -0.52429657361E+02  0.61548126100E+02  0.47000000000E+01 0.  1.
         11    1    6    6    0    0 -0.52132895211E+01 -0.86939430915E+01  0.23675605340E+02  0.25754559253E+02  0.00000000000E+00 0. -1.
        -12    1    6    6    0    0 -0.11280994185E+03 -0.41847109792E+02 -0.33092484973E+02  0.12478932702E+03  0.00000000000E+00 0.  1.
</event>
<event>
12    1  0.1345781E-002  0.1983858E+03  0.7818608E-02  0.1151108E+00
         -2   -1    0    0    0  501 -0.00000000000E+00  0.00000000000E+00  0.11372509536E+03  0.11372509536E+03  0.00000000000E+00 0.  1.
          2   -1    0    0  502    0  0.00000000000E+00 -0.00000000000E+00 -0.37801654127E+03  0.37801654127E+03  0.00000000000E+00 0. -1.
          6    2    1    2  502    0 -0.12263797887E+01 -0.93079192614E+02 -0.60880510666E+02  0.20784551949E+03  0.17557927922E+03 0.  0.
         24    2    3    3    0    0  0.19686859336E+01 -0.83542722054E+02  0.27193018782E+02  0.11907508914E+03  0.80350198823E+02 0.  0.
         -6    2    1    2    0  501  0.12263797887E+01  0.93079192614E+02 -0.20341093524E+03  0.28389611714E+03  0.17480204988E+03 0.  0.
        -24    2    5    5    0    0 -0.11634138144E+02  0.47966946447E+02 -0.21589130224E+03  0.23512771306E+03  0.78992442324E+02 0.  0.
          5    1    3    3  502    0 -0.31950657223E+01 -0.95364705598E+01 -0.88073529448E+02  0.88770430354E+02  0.47000000000E+01 0. -1.
        -13    1    4    4    0    0 -0.34369284130E+02 -0.21793103917E+02  0.24235057686E+02  0.47365864195E+02  0.00000000000E+00 0.  1.
         14    1    4    4    0    0  0.36337970063E+02 -0.61749618137E+02  0.29579610958E+01  0.71709224946E+02  0.00000000000E+00 0. -1.
         -5    1    5    5    0  501  0.12860517932E+02  0.45112246167E+02  0.12480366997E+02  0.48768404075E+02  0.47000000000E+01 0.  1.
         13    1    6    6    0    0 -0.36306793651E+02  0.53333424031E+02 -0.18024936489E+03  0.19144835055E+03  0.00000000000E+00 0. -1.
        -14    1    6    6    0    0  0.24672655507E+02 -0.53664775838E+01 -0.35641937348E+02  0.43679362511E+02  0.00000000000E+00 0.  1.
</event>
<event>
12    1  0.1345781E-002  0.3054969E+03  0.7818608E-02  0.1082525E+00
          3   -1    0    0  502    0  0.00000000000E+00  0.00000000000E+00  0.32061641746E+03  0.32061641746E+03  0.00000000000E+00 0.  1.
         -3   -1    0    0    0  501 -0.00000000000E+00 -0.00000000000E+00 -0.47353709719E+03  0.47353709719E+03  0.00000000000E+00 0. -1.
          6    2    1    2  502    0 -0.13193191486E+03 -0.21410030956E+03 -0.32313473908E+03  0.44562066883E+03  0.17583159036E+03 0.  0.
         24    2    3    3    0    0 -0.13770833077E+02 -0.14022399559E+03 -0.21874828120E+03  0.27144152655E+03  0.77312916291E+02 0.  0.
         -6    2    1    2    0  501  0.13193191486E+03  0.21410030956E+03  0.17021405935E+03  0.34853284582E+03  0.17104778835E+03 0.  0.
        -24    2    5    5    0    0  0.48339708656E+02  0.58730151094E+02  0.10336676587E+02  0.11039336862E+03  0.79334046110E+02 0.  0.
          5    1    3    3  502    0 -0.11816108178E+03 -0.73876313969E+02 -0.10438645788E+03  0.17417914227E+03  0.47000000000E+01 0. -1.
        -11    1    4    4    0    0  0.23740621973E+01  0.95282395928E+01 -0.17556181254E+02  0.20115740635E+02  0.00000000000E+00 0.  1.
         12    1    4    4    0    0 -0.16144895274E+02 -0.14975223518E+03 -0.20119209994E+03  0.25132578592E+03  0.00000000000E+00 0. -1.
         -5    1    5    5    0  501  0.83592206205E+02  0.15537015847E+03  0.15987738276E+03  0.23813947720E+03  0.47000000000E+01 0.  1.
         13    1    6    6    0    0  0.14953191038E+02  0.57934738522E+02  0.34596864693E+02  0.69115663177E+02  0.00000000000E+00 0. -1.
        -14    1    6    6    0    0  0.33386517618E+02  0.79541257223E+00 -0.24260188105E+02  0.41277705444E+02  0.00000000000E+00 0.  1.
</event>
<event>
12    1  0.1345781E-002  0.1847992E+03  0.7818608E-02  0.1163238E+00
          2   -1    0    0  502    0  0.00000000000E+00  0.00000000000E+00  0.87985562177E+03  0.87985562177E+03  0.00000000000E+00 0.  1.
         -2   -1    0    0    0  501 -0.00000000000E+00 -0.00000000000E+00 -0.46822269099E+02  0.46822269099E+02  0.00000000000E+00 0. -1.
          6    2    1    2  502    0 -0.18860427171E+02 -0.64024122684E+02  0.60882356756E+03  0.63635952459E+03  0.17272088503E+03 0.  0.
         24    2    3    3    0    0 -0.17281507902E+02  0.30393906629E+02  0.26071292366E+03  0.27563751578E+03  0.82355154465E+02 0.  0.
         -6    2    1    2    0  501  0.18860427171E+02  0.64024122684E+02  0.22420978511E+03  0.29031836627E+03  0.17192999174E+03 0.  0.
        -24    2    5    5    0    0 -0.16195774686E+02  0.31586071971E+02  0.30179125650E+02  0.90440525499E+02  0.77515972337E+02 0.  0.
          5    1    3    3  502    0 -0.15789192689E+01 -0.94418029313E+02  0.34811064390E+03  0.36072200881E+03  0.47000000000E+01 0. -1.
        -13    1    4    4    0    0 -0.38875266561E+02  0.31290314257E+02  0.24186955525E+03  0.24696407000E+03  0.00000000000E+00 0.  1.
         14    1    4    4    0    0  0.21593758659E+02 -0.89640762768E+00  0.18843368412E+02  0.28673445778E+02  0.00000000000E+00 0. -1.
         -5    1    5    5    0  501  0.35056201856E+02  0.32438050713E+02  0.19403065946E+03  0.19987784078E+03  0.47000000000E+01 0.  1.
         11    1    6    6    0    0 -0.46547755609E+01 -0.24439381848E+02  0.20896951586E+02  0.32490504863E+02  0.00000000000E+00 0. -1.
        -12    1    6    6    0    0 -0.11540999125E+02  0.56025453819E+02  0.92821740633E+01  0.57950020636E+02  0.00000000000E+00 0.  1.
</event>
<event>
12    1  0.1345781E-002  0.1929744E+03  0.7818608E-02  0.1155806E+00
         -1   -1    0    0    0  501 -0.00000000000E+00  0.00000000000E+00  0.50667753056E+02  0.50667753056E+02  0.00000000000E+00 0. -1.
          1   -1    0    0  502    0  0.00000000000E+00 -0.00000000000E+00 -0.86194642264E+03  0.86194642264E+03  0.00000000000E+00 0.  1.
          6    2    1    2  502    0  0.93176373706E+00  0.88024282794E+02 -0.23054264262E+03  0.30066297730E+03  0.17175323375E+03 0.  0.
         24    2    3    3    0    0  0.10734435562E+01 -0.11642846936E+02 -0.33960993755E+02  0.80208919738E+02  0.71717595769E+02 0.  0.
         -6    2    1    2    0  501 -0.93176373706E+00 -0.88024282794E+02 -0.58073602696E+03  0.61195119840E+03  0.17169971948E+03 0.  0.
        -24    2    5    5    0    0 -0.40316561366E+02  0.97355585199E+00 -0.20598589644E+03  0.22474127098E+03  0.80324818197E+02 0.  0.
          5    1    3    3  502    0 -0.14167981910E+00  0.99667129730E+02 -0.19658164887E+03  0.22045405756E+03  0.47000000000E+01 0. -1.
        -11    1    4    4    0    0  0.18239902084E+02  0.19808859224E+02 -0.35245255552E+02  0.44354401931E+02  0.00000000000E+00 0.  1.
         12    1    4    4    0    0 -0.17166458527E+02 -0.31451706160E+02  0.12842617972E+01  0.35854517807E+02  0.00000000000E+00 0. -1.
         -5    1    5    5    0  501  0.39384797629E+02 -0.88997838646E+02 -0.37475013052E+03  0.38720992742E+03  0.47000000000E+01 0.  1.
         13    1    6    6    0    0  0.16598973831E+02  0.87080241612E+01 -0.11592523934E+02  0.22039560526E+02  0.00000000000E+00 0. -1.
        -14    1    6    6    0    0 -0.56915535197E+02 -0.77344683092E+01 -0.19439337251E+03  0.20270171046E+03  0.00000000000E+00 0.  1.
</event>
<event>
12    1  0.1345781E-002  0.1732219E+03  0.7818608E-02  0.1174529E+00
          2   -1    0    0  502    0  0.00000000000E+00  0.00000000000E+00  0.15620660313E+04  0.15620660313E+04  0.00000000000E+00 0.  1.
         -2   -1    0    0    0  501 -0.00000000000E+00 -0.00000000000E+00 -0.33768659524E+02  0.33768659524E+02  0.00000000000E+00 0. -1.
          6    2    1    2  502    0 -0.11477504958E+02  0.21947474285E+02  0.12884402161E+04  0.13000513779E+04  0.17158662527E+03 0.  0.
         24    2    3    3    0    0 -0.28826021170E+02  0.67545356299E+02  0.11010783899E+04  0.11063849591E+04  0.79503096408E+02 0.  0.
         -6    2    1    2    0  501  0.11477504958E+02 -0.21947474285E+02  0.23985715566E+03  0.29578331291E+03  0.17129766001E+03 0.  0.
        -24    2    5    5    0    0 -0.42514493901E+02 -0.53950744833E+02  0.18044055965E+03  0.20922831797E+03  0.80619652788E+02 0.  0.
          5    1    3    3  502    0  0.17348516212E+02 -0.45597882014E+02  0.18736182622E+03  0.19366641884E+03  0.47000000000E+01 0. -1.
        -11    1    4    4    0    0  0.21729403927E+02  0.46761574830E+02  0.42908353995E+03  0.43217067940E+03  0.00000000000E+00 0.  1.
         12    1    4    4    0    0 -0.50555425097E+02  0.20783781469E+02  0.67199484992E+03  0.67421427966E+03  0.00000000000E+00 0. -1.
         -5    1    5    5    0  501  0.53991998858E+02  0.32003270547E+02  0.59416596008E+02  0.86554994931E+02  0.47000000000E+01 0.  1.
         13    1    6    6    0    0 -0.21148081431E+02 -0.36396584751E+02  0.20328959783E+02  0.46746329648E+02  0.00000000000E+00 0. -1.
        -14    1    6    6    0    0 -0.21366412470E+02 -0.17554160082E+02  0.16011159987E+03  0.16248198833E+03  0.00000000000E+00 0.  1.
</event>
<event>
12    1  0.1345781E-002  0.2673039E+03  0.7818608E-02  0.1102833E+00
          1   -1    0    0  502    0  0.00000000000E+00  0.00000000000E+00  0.10273957565E+04  0.10273957565E+04  0.00000000000E+00 0. -1.
         -1   -1    0    0    0  501 -0.00000000000E+00 -0.00000000000E+00 -0.71359261844E+02  0.71359261844E+02  0.00000000000E+00 0.  1.
          6    2    1    2  502    0  0.65011381246E+02  0.19402540306E+03  0.38998981811E+03  0.47265521308E+03  0.17157667526E+03 0.  0.
         24    2    3    3    0    0  0.25751532198E+02  0.16886805227E+03  0.19384900404E+03  0.27099327569E+03  0.81733460791E+02 0.  0.
         -6    2    1    2    0  501 -0.65011381246E+02 -0.19402540306E+03  0.56604667656E+03  0.62609980528E+03  0.17239428472E+03 0.  0.
        -24    2    5    5    0    0  0.52990191351E+01 -0.41027428288E+02  0.27740656523E+03  0.29190355073E+03  0.80882328239E+02 0.  0.
          5    1    3    3  502    0  0.39259849048E+02  0.25157350795E+02  0.19614081408E+03  0.20166193739E+03  0.47000000000E+01 0. -1.
        -11    1    4    4    0    0  0.41647471070E+02  0.12192942872E+03  0.93896522263E+02  0.15942977867E+03  0.00000000000E+00 0.  1.
         12    1    4    4    0    0 -0.15895938872E+02  0.46938623554E+02  0.99952481775E+02  0.11156349702E+03  0.00000000000E+00 0. -1.
         -5    1    5    5    0  501 -0.70310400381E+02 -0.15299797478E+03  0.28864011132E+03  0.33419625455E+03  0.47000000000E+01 0.  1.
         11    1    6    6    0    0  0.30175327202E+02 -0.10470902574E+01  0.19214998724E+03  0.19450774885E+03  0.00000000000E+00 0. -1.
        -12    1    6    6    0    0 -0.24876308067E+02 -0.39980338030E+02  0.85256577996E+02  0.97395801879E+02  0.00000000000E+00 0.  1.
</event>
<event>
12    1  0.1345781E-002  0.1993608E+03  0.7818608E-02  0.1150279E+00
         -1   -1    0    0    0  501 -0.00000000000E+00  0.00000000000E+00  0.16132363214E+04  0.16132363214E+04  0.00000000000E+00 0. -1.
          1   -1    0    0  502    0  0.00000000000E+00 -0.00000000000E+00 -0.28345817054E+02  0.28345817054E+02  0.00000000000E+00 0.  1.
          6    2    1    2  502    0  0.56200900999E+02  0.85896949296E+02  0.48932944595E+03  0.52770053098E+03  0.16878304580E+03 0.  0.
         24    2    3    3    0    0 -0.21922704870E+02  0.23854602898E+02  0.30644123289E+03  0.31931929618E+03  0.83719392189E+02 0.  0.
         -6    2    1    2    0  501 -0.56200900999E+02 -0.85896949296E+02  0.10955610584E+04  0.11138816075E+04  0.17303576402E+03 0.  0.
        -24    2    5    5    0    0 -0.97895119051E+02 -0.64573527609E+02  0.97915028112E+03  0.98831626513E+03  0.65426081248E+02 0.  0.
          5    1    3    3  502    0  0.78123605869E+02  0.62042346398E+02  0.18288821306E+03  0.20838123480E+03  0.47000000000E+01 0. -1.
        -11    1    4    4    0    0 -0.18803101746E+02  0.55002289881E+02  0.21205238295E+03  0.21987501368E+03  0.00000000000E+00 0.  1.
         12    1    4    4    0    0 -0.31196031239E+01 -0.31147686982E+02  0.94388849945E+02  0.99444282500E+02  0.00000000000E+00 0. -1.
         -5    1    5    5    0  501  0.41694218052E+02 -0.21323421687E+02  0.11641077726E+03  0.12556534232E+03  0.47000000000E+01 0.  1.
         11    1    6    6    0    0 -0.98311031204E+02 -0.55336840631E+02  0.96391829278E+03  0.97049765581E+03  0.00000000000E+00 0. -1.
        -12    1    6    6    0    0  0.41591215248E+00 -0.92366869774E+01  0.15231988342E+02  0.17818609320E+02  0.00000000000E+00 0.  1.
</event>
<event>
12    1  0.1345781E-002  0.1806176E+03  0.7818608E-02  0.1167207E+00
         -1   -1    0    0    0  501 -0.00000000000E+00  0.00000000000E+00  0.20055547855E+03  0.20055547855E+03  0.00000000000E+00 0.  1.
          1   -1    0    0  502    0  0.00000000000E+00 -0.00000000000E+00 -0.18808626857E+03  0.18808626857E+03  0.00000000000E+00 0. -1.
          6    2    1    2  502    0  0.48614426799E+02 -0.36894938573E+02  0.77597804534E+02  0.19491351601E+03  0.16806326329E+03 0.  0.
         24    2    3    3    0    0 -0.39282734666E+02 -0.20225811156E+02  0.42530207891E+02  0.98707501970E+02  0.77344267287E+02 0.  0.
         -6    2    1    2    0  501 -0.48614426799E+02  0.36894938573E+02 -0.65128594554E+02  0.19372823110E+03  0.17194270765E+03 0.  0.
        -24    2    5    5    0    0 -0.79874508343E+02 -0.21443504747E+02 -0.54876164046E+02  0.12658831006E+03  0.78571278999E+02 0.  0.
          5    1    3    3  502    0  0.87897161465E+02 -0.16669127417E+02  0.35067596643E+02  0.96206014036E+02  0.47000000000E+01 0. -1.
        -11    1    4    4    0    0  0.14588883196E+02 -0.30160299491E+02  0.98557859382E+01  0.34922996646E+02  0.00000000000E+00 0.  1.
         12    1    4    4    0    0 -0.53871617862E+02  0.99344883349E+01  0.32674421953E+02  0.63784505324E+02  0.00000000000E+00 0. -1.
         -5    1    5    5    0  501  0.31260081544E+02  0.58338443320E+02 -0.10252430508E+02  0.67139921049E+02  0.47000000000E+01 0.  1.
         11    1    6    6    0    0 -0.10416380290E+02 -0.35871521222E+02 -0.38781063492E+02  0.53844571673E+02  0.00000000000E+00 0. -1.
        -12    1    6    6    0    0 -0.69458128053E+02  0.14428016475E+02 -0.16095100554E+02  0.72743738383E+02  0.00000000000E+00 0.  1.
</event>
<event>
12    1  0.1345781E-002  0.3172282E+03  0.7818608E-02  0.1076932E+00
         -1   -1    0    0    0  501 -0.00000000000E+00  0.00000000000E+00  0.17613275882E+03  0.17613275882E+03  0.00000000000E+00 0.  1.
          1   -1    0    0  502    0  0.00000000000E+00 -0.00000000000E+00 -0.57220630734E+03  0.57220630734E+03  0.00000000000E+00 0. -1.
          6    2    1    2  502    0 -0.20811977064E+02  0.26621692755E+03 -0.18339887056E+03  0.36617690223E+03  0.17072137271E+03 0.  0.
         24    2    3    3    0    0  0.16475238298E+02  0.89890525972E+02 -0.13464793296E+03  0.17941480693E+03  0.75550426605E+02 0.  0.
         -6    2    1    2    0  501  0.20811977064E+02 -0.26621692755E+03 -0.21267467797E+03  0.38216216393E+03  0.17179292764E+03 0.  0.
        -24    2    5    5    0    0 -0.24496190507E+02 -0.52881117082E+02 -0.54134082257E+02  0.11249160831E+03  0.79544875297E+02 0.  0.
          5    1    3    3  502    0 -0.37287215362E+02  0.17632640158E+03 -0.48750937599E+02  0.18676209530E+03  0.47000000000E+01 0. -1.
        -13    1    4    4    0    0  0.25423414424E+01 -0.10360058789E+02  0.36773048232E+00  0.10673778330E+02  0.00000000000E+00 0.  1.
         14    1    4    4    0    0  0.13932896856E+02  0.10025058476E+03 -0.13501566344E+03  0.16874102860E+03  0.00000000000E+00 0. -1.
         -5    1    5    5    0  501  0.45308167571E+02 -0.21333581047E+03 -0.15854059571E+03  0.26967055562E+03  0.47000000000E+01 0.  1.
         13    1    6    6    0    0 -0.13553306320E+02 -0.16721847820E+02 -0.68706822438E+02  0.71999581639E+02  0.00000000000E+00 0. -1.
        -14    1    6    6    0    0 -0.10942884187E+02 -0.36159269262E+02  0.14572740180E+02  0.40492026675E+02  0.00000000000E+00 0.  1.
</event>
<event>
12    1  0.1345781E-002  0.1833322E+03  0.7818608E-02  0.1164617E+00
          2   -1    0    0  502    0  0.00000000000E+00  0.00000000000E+00  0.15958997186E+04  0.15958997186E+04  0.00000000000E+00 0.  1.
         -2   -1    0    0    0  501 -0.00000000000E+00 -0.00000000000E+00 -0.21195755895E+02  0.21195755895E+02  0.00000000000E+00 0. -1.
          6    2    1    2  502    0  0.55551535317E+02  0.77792241525E+01  0.86491690577E+03  0.88486946243E+03  0.17823081172E+03 0.  0.
         24    2    3    3    0    0  0.48683024031E+02  0.67014144597E+02  0.67573909617E+03  0.68646007280E+03  0.87995301304E+02 0.  0.
         -6    2    1    2    0  501 -0.55551535317E+02 -0.77792241525E+01  0.70978705691E+03  0.73222601204E+03  0.17091160624E+03 0.  0.
        -24    2    5    5    0    0  0.36470891113E+02  0.81387151298E+01  0.31533854404E+03  0.32684566340E+03  0.77416572807E+02 0.  0.
          5    1    3    3  502    0  0.68685112864E+01 -0.59234920445E+02  0.18917780960E+03  0.19840938962E+03  0.47000000000E+01 0. -1.
        -13    1    4    4    0    0  0.61015524536E+02  0.80996698870E+02  0.59640262991E+03  0.60496235951E+03  0.00000000000E+00 0.  1.
         14    1    4    4    0    0 -0.12332500505E+02 -0.13982554273E+02  0.79336466265E+02  0.81497713294E+02  0.00000000000E+00 0. -1.
         -5    1    5    5    0  501 -0.92022426430E+02 -0.15917939282E+02  0.39444851287E+03  0.40538034864E+03  0.47000000000E+01 0.  1.
         11    1    6    6    0    0  0.10660325624E+02 -0.34331204758E+02  0.11869766047E+03  0.12402180761E+03  0.00000000000E+00 0. -1.
        -12    1    6    6    0    0  0.25810565489E+02  0.42469919888E+02  0.19664088357E+03  0.20282385579E+03  0.00000000000E+00 0.  1.
</event>
<event>
12    1  0.1345781E-002  0.1740038E+03  0.7818608E-02  0.1173736E+00
          2   -1    0    0  502    0  0.00000000000E+00  0.00000000000E+00  0.65511258620E+03  0.65511258620E+03  0.00000000000E+00 0.  1.
         -2   -1    0    0    0  501 -0.00000000000E+00 -0.00000000000E+00 -0.61640454852E+02  0.61640454852E+02  0.00000000000E+00 0. -1.
          6    2    1    2  502    0 -0.20852697796E+02 -0.16370876504E+02  0.47614270949E+03  0.50697886064E+03  0.17208383056E+03 0.  0.
         24    2    3    3    0    0  0.44330201721E+02  0.24690733354E+02  0.22146667538E+03  0.24086452706E+03  0.79958945664E+02 0.  0.
         -6    2    1    2    0  501  0.20852697796E+02  0.16370876504E+02  0.11732942186E+03  0.20977418041E+03  0.17186091158E+03 0.  0.
        -24    2    5    5    0    0 -0.41094082154E+02  0.28896690409E+02  0.11336637389E+03  0.14627539846E+03  0.77593911871E+02 0.  0.
          5    1    3    3  502    0 -0.65182899517E+02 -0.41061609859E+02  0.25467603410E+03  0.26611433358E+03  0.47000000000E+01 0. -1.
        -13    1    4    4    0    0  0.33904712060E+02  0.51104317812E+02  0.11109806913E+03  0.12690138598E+03  0.00000000000E+00 0.  1.
         14    1    4    4    0    0  0.10425489661E+02 -0.26413584458E+02  0.11036860625E+03  0.11396314108E+03  0.00000000000E+00 0. -1.
         -5    1    5    5    0  501  0.61946779950E+02 -0.12525813905E+02  0.39630479694E+01  0.63498781952E+02  0.47000000000E+01 0.  1.
         13    1    6    6    0    0 -0.28522919462E+02  0.23336747305E+01 -0.55601621030E+00  0.28623628813E+02  0.00000000000E+00 0. -1.
        -14    1    6    6    0    0 -0.12571162692E+02  0.26563015679E+02  0.11392239011E+03  0.11765176965E+03  0.00000000000E+00 0.  1.
</event>
<event>
12    1  0.1345781E-002  0.1881883E+03  0.7818608E-02  0.1160106E+00
          1   -1    0    0  502    0  0.00000000000E+00  0.00000000000E+00  0.58632836361E+03  0.58632836361E+03  0.00000000000E+00 0.  1.
         -1   -1    0    0    0  501 -0.00000000000E+00 -0.00000000000E+00 -0.60593454937E+02  0.60593454937E+02  0.00000000000E+00 0. -1.
          6    2    1    2  502    0 -0.34586780712E+02 -0.61322156726E+02  0.28423248171E+03  0.34238145169E+03  0.17742689340E+03 0.  0.
         24    2    3    3    0    0  0.11514793508E+02 -0.16204418132E+02  0.26106044536E+03  0.27367920464E+03  0.79703056950E+02 0.  0.
         -6    2    1    2    0  501  0.34586780712E+02  0.61322156726E+02  0.24150242697E+03  0.30454036685E+03  0.17165302359E+03 0.  0.
        -24    2    5    5    0    0 -0.46322501989E+02  0.83140444446E+01  0.94496015561E+02  0.12850302141E+03  0.73270949428E+02 0.  0.
          5    1    3    3  502    0 -0.46101574220E+02 -0.45117738594E+02  0.23172036350E+02  0.68702247052E+02  0.47000000000E+01 0. -1.
        -11    1    4    4    0    0  0.27591239260E+02 -0.39657544891E+02  0.20738092241E+03  0.21293389662E+03  0.00000000000E+00 0.  1.
         12    1    4    4    0    0 -0.16076445752E+02  0.23453126759E+02  0.53679522949E+02  0.60745308023E+02  0.00000000000E+00 0. -1.
         -5    1    5    5    0  501  0.80909282701E+02  0.53008112282E+02  0.14700641141E+03  0.17603734544E+03  0.47000000000E+01 0.  1.
         11    1    6    6    0    0 -0.37243425147E+02  0.30753374522E+02  0.23933862002E+02  0.53904290289E+02  0.00000000000E+00 0. -1.
        -12    1    6    6    0    0 -0.90790768421E+01 -0.22439330078E+02  0.70562153559E+02  0.74598731125E+02  0.00000000000E+00 0.  1.
</event>
<event>
12    1  0.1345781E-002  0.2090398E+03  0.7818608E-02  0.1142329E+00
          4   -1    0    0  502    0  0.00000000000E+00  0.00000000000E+00  0.10755589759E+03  0.10755589759E+03  0.00000000000E+00 0.  1.
         -4   -1    0    0    0  501 -0.00000000000E+00 -0.00000000000E+00 -0.41177209952E+03  0.41177209952E+03  0.00000000000E+00 0. -1.
          6    2    1    2  502    0  0.28109573966E+02 -0.11359715742E+03 -0.18119781800E+03  0.27573407062E+03  0.17176194611E+03 0.  0.
         24    2    3    3    0    0 -0.16925347412E+01 -0.43042340763E+02 -0.14960474049E+02  0.92640945791E+02  0.80641312497E+02 0.  0.
         -6    2    1    2    0  501 -0.28109573966E+02  0.11359715742E+03 -0.12301838393E+03  0.24359392649E+03  0.17467116509E+03 0.  0.
        -24    2    5    5    0    0 -0.24451887835E+01  0.32452337469E+02  0.10193429990E+02  0.85446464160E+02  0.78345766108E+02 0.  0.
          5    1    3    3  502    0  0.29802108707E+02 -0.70554816661E+02 -0.16623734395E+03  0.18309312483E+03  0.47000000000E+01 0. -1.
        -13    1    4    4    0    0 -0.24545567771E+01 -0.18455958069E+02 -0.47980233814E+02  0.51466008919E+02  0.00000000000E+00 0.  1.
         14    1    4    4    0    0  0.76202203590E+00 -0.24586382694E+02  0.33019759765E+02  0.41174936873E+02  0.00000000000E+00 0. -1.
         -5    1    5    5    0  501 -0.25664385182E+02  0.81144819955E+02 -0.13321181392E+03  0.15814746233E+03  0.47000000000E+01 0.  1.
         11    1    6    6    0    0 -0.38082720145E+02  0.28092707723E+02  0.13977637924E+02  0.49344383295E+02  0.00000000000E+00 0. -1.
        -12    1    6    6    0    0  0.35637531361E+02  0.43596297458E+01 -0.37842079346E+01  0.36102080864E+02  0.00000000000E+00 0.  1.
</event>
<event>
12    1  0.1345781E-002  0.1988924E+03  0.7818608E-02  0.1150677E+00
          2   -1    0    0  502    0  0.00000000000E+00  0.00000000000E+00  0.10620967365E+04  0.10620967365E+04  0.00000000000E+00 0.  1.
         -2   -1    0    0    0  501 -0.00000000000E+00 -0.00000000000E+00 -0.40586920058E+02  0.40586920058E+02  0.00000000000E+00 0. -1.
          6    2    1    2  502    0  0.97029555362E+02  0.13467354832E+02  0.67006041003E+03  0.69909033051E+03  0.17363822410E+03 0.  0.
         24    2    3    3    0    0  0.73979995983E+02 -0.64818013728E+01  0.65633685936E+03  0.66533123005E+03  0.79828060086E+02 0.  0.
         -6    2    1    2    0  501 -0.97029555362E+02 -0.13467354832E+02  0.35144940643E+03  0.40359332606E+03  0.17255371136E+03 0.  0.
        -24    2    5    5    0    0 -0.91021528074E+02 -0.37447298116E+02  0.13471509751E+03  0.18540307711E+03  0.80863618508E+02 0.  0.
          5    1    3    3  502    0  0.23049559379E+02  0.19949156205E+02  0.13723550672E+02  0.33759100460E+02  0.47000000000E+01 0. -1.
        -11    1    4    4    0    0 -0.85270631878E+01  0.56810748716E+01  0.26539446273E+03  0.26559218036E+03  0.00000000000E+00 0.  1.
         12    1    4    4    0    0  0.82507059171E+02 -0.12162876244E+02  0.39094239663E+03  0.39973904969E+03  0.00000000000E+00 0. -1.
         -5    1    5    5    0  501 -0.60080272878E+01  0.23979943284E+02  0.21673430892E+03  0.21819024895E+03  0.47000000000E+01 0.  1.
         13    1    6    6    0    0 -0.32745611645E+01  0.97050220622E+00 -0.10723454669E+02  0.11254203899E+02  0.00000000000E+00 0. -1.
        -14    1    6    6    0    0 -0.87746966909E+02 -0.38417800323E+02  0.14543855217E+03  0.17414887321E+03  0.00000000000E+00 0.  1.
</event>
<event>
12    1  0.1345781E-002  0.2260894E+03  0.7818608E-02  0.1129423E+00
         -1   -1    0    0    0  501 -0.00000000000E+00  0.00000000000E+00  0.45789771771E+03  0.45789771771E+03  0.00000000000E+00 0. -1.
          1   -1    0    0  502    0  0.00000000000E+00 -0.00000000000E+00 -0.11636979633E+03  0.11636979633E+03  0.00000000000E+00 0.  1.
          6    2    1    2  502    0  0.14430004793E+03 -0.26301887067E+02  0.22884025546E+03  0.32183105792E+03  0.17231678452E+03 0.  0.
         24    2    3    3    0    0  0.77863434639E+02 -0.74889994337E+02  0.95426571937E+02  0.16500016586E+03  0.80296938903E+02 0.  0.
         -6    2    1    2    0  501 -0.14430004793E+03  0.26301887067E+02  0.11268766592E+03  0.25243645612E+03  0.17178871101E+03 0.  0.
        -24    2    5    5    0    0 -0.13657249733E+03  0.75797535441E+02  0.85221149967E+02  0.19511251919E+03  0.80055838871E+02 0.  0.
          5    1    3    3  502    0  0.66436613292E+02  0.48588107270E+02  0.13341368352E+03  0.15683089206E+03  0.47000000000E+01 0. -1.
        -13    1    4    4    0    0 -0.11993855473E+02 -0.23287644347E+01 -0.37340167213E+01  0.12775703260E+02  0.00000000000E+00 0.  1.
         14    1    4    4    0    0  0.89857290113E+02 -0.72561229902E+02  0.99160588658E+02  0.15222446260E+03  0.00000000000E+00 0. -1.
         -5    1    5    5    0  501 -0.77275505967E+01 -0.49495648374E+02  0.27466515958E+02  0.57323936929E+02  0.47000000000E+01 0.  1.
         11    1    6    6    0    0 -0.20000596540E+02 -0.16045355218E+02  0.22063030973E+02  0.33826832866E+02  0.00000000000E+00 0. -1.
        -12    1    6    6    0    0 -0.11657190080E+03  0.91842890659E+02  0.63158118993E+02  0.16128568633E+03  0.00000000000E+00 0.  1.
</event>
<event>
12    1  0.1345781E-002  0.2674211E+03  0.7818608E-02  0.1102765E+00
          2   -1    0    0  502    0  0.00000000000E+00  0.00000000000E+00  0.16172236803E+04  0.16172236803E+04  0.00000000000E+00 0.  1.
         -2   -1    0    0    0  501 -0.00000000000E+00 -0.00000000000E+00 -0.47897507797E+02  0.47897507797E+02  0.00000000000E+00 0. -1.
          6    2    1    2  502    0 -0.17481197860E+03  0.10520337426E+03  0.55384332319E+03  0.61500414092E+03  0.17280245623E+03 0.  0.
         24    2    3    3    0    0 -0.62958749861E+02  0.10271343263E+03  0.39303350019E+03  0.41904691660E+03  0.81308871657E+02 0.  0.
         -6    2    1    2    0  501  0.17481197860E+03 -0.10520337426E+03  0.10154828493E+04  0.10501170471E+04  0.17295495863E+03 0.  0.
        -24    2    5    5    0    0  0.18607002669E+03 -0.75931016875E+02  0.68873850102E+03  0.72183732851E+03  0.79377779511E+02 0.  0.
          5    1    3    3  502    0 -0.11185322874E+03  0.24899416318E+01  0.16080982300E+03  0.19595722432E+03  0.47000000000E+01 0. -1.
        -11    1    4    4    0    0 -0.89307352898E+01  0.85817263353E+02  0.19841656465E+03  0.21636426195E+03  0.00000000000E+00 0.  1.
         12    1    4    4    0    0 -0.54028014571E+02  0.16896169279E+02  0.19461693555E+03  0.20268265465E+03  0.00000000000E+00 0. -1.
         -5    1    5    5    0  501 -0.11258048090E+02 -0.29272357388E+02  0.32674434825E+03  0.32827971864E+03  0.47000000000E+01 0.  1.
         11    1    6    6    0    0  0.14724145069E+03 -0.89008693636E+02  0.59836505716E+03  0.62261009787E+03  0.00000000000E+00 0. -1.
        -12    1    6    6    0    0  0.38828576003E+02  0.13077676761E+02  0.90373443865E+02  0.99227230637E+02  0.00000000000E+00 0.  1.
</event>
<event>
12    1  0.1345781E-002  0.2134625E+03  0.7818608E-02  0.1138853E+00
         -2   -1    0    0    0  501 -0.00000000000E+00  0.00000000000E+00  0.55479595908E+03  0.55479595908E+03  0.00000000000E+00 0.  1.
          2   -1    0    0  502    0  0.00000000000E+00 -0.00000000000E+00 -0.95507270168E+02  0.95507270168E+02  0.00000000000E+00 0. -1.
          6    2    1    2  502    0 -0.65552304609E+02 -0.10654555333E+03  0.35089317713E+03  0.41047985146E+03  0.17239091369E+03 0.  0.
         24    2    3    3    0    0 -0.34029939187E+02 -0.12926149084E+03  0.33305652389E+03  0.36746927674E+03  0.78996528199E+02 0.  0.
         -6    2    1    2    0  501  0.65552304609E+02  0.10654555333E+03  0.10839551179E+03  0.23982337780E+03  0.17354136679E+03 0.  0.
        -24    2    5    5    0    0  0.39410503795E+02 -0.45193896377E+01  0.85062961511E+02  0.12326732601E+03  0.79909408380E+02 0.  0.
          5    1    3    3  502    0 -0.31522365422E+02  0.22715937505E+02  0.17836653236E+02  0.43010574713E+02  0.47000000000E+01 0. -1.
        -11    1    4    4    0    0  0.24836690194E+02 -0.39281819647E+02  0.12309833832E+03  0.13157934272E+03  0.00000000000E+00 0.  1.
         12    1    4    4    0    0 -0.58866629381E+02 -0.89979671189E+02  0.20995818558E+03  0.23588993402E+03  0.00000000000E+00 0. -1.
         -5    1    5    5    0  501  0.26141800813E+02  0.11106494297E+03  0.23332550274E+02  0.11655605179E+03  0.47000000000E+01 0.  1.
         11    1    6    6    0    0  0.12472362050E+02 -0.36863920338E+02  0.15355458626E+02  0.41836569499E+02  0.00000000000E+00 0. -1.
        -12    1    6    6    0    0  0.26938141745E+02  0.32344530701E+02  0.69707502885E+02  0.81430756508E+02  0.00000000000E+00 0.  1.
</event>
<event>
12    1  0.1345781E-002  0.2091444E+03  0.7818608E-02  0.1142245E+00
         -1   -1    0    0    0  501 -0.00000000000E+00  0.00000000000E+00  0.66105731917E+02  0.66105731917E+02  0.00000000000E+00 0. -1.
          1   -1    0    0  502    0  0.00000000000E+00 -0.00000000000E+00 -0.78169382782E+03  0.78169382782E+03  0.00000000000E+00 0.  1.
          6    2    1    2  502    0 -0.95138412681E+02 -0.59001000053E+02 -0.19292774011E+03  0.28515810304E+03  0.17765583370E+03 0.  0.
         24    2    3    3    0    0 -0.59852303360E+02 -0.79745451877E+02 -0.20599606078E+03  0.24193411898E+03  0.78460853675E+02 0.  0.
         -6    2    1    2    0  501  0.95138412681E+02  0.59001000053E+02 -0.52266035580E+03  0.56264145670E+03  0.17566765697E+03 0.  0.
        -24    2    5    5    0    0  0.79950371842E+02 -0.15094948287E+02 -0.19691119811E+03  0.22819341907E+03  0.81720848887E+02 0.  0.
          5    1    3    3  502    0 -0.35286109322E+02  0.20744451824E+02  0.13068320667E+02  0.43223984055E+02  0.47000000000E+01 0. -1.
        -13    1    4    4    0    0  0.12694482768E+02 -0.35176609249E+02 -0.94612410527E+02  0.10173520510E+03  0.00000000000E+00 0.  1.
         14    1    4    4    0    0 -0.72546786128E+02 -0.44568842628E+02 -0.11138365025E+03  0.14019891388E+03  0.00000000000E+00 0. -1.
         -5    1    5    5    0  501  0.15188040839E+02  0.74095948340E+02 -0.32574915769E+03  0.33444803763E+03  0.47000000000E+01 0.  1.
         13    1    6    6    0    0  0.20351985222E+01 -0.31994766881E+02 -0.84519029781E+02  0.90395096858E+02  0.00000000000E+00 0. -1.
        -14    1    6    6    0    0  0.77915173320E+02  0.16899818594E+02 -0.11239216833E+03  0.13779832221E+03  0.00000000000E+00 0.  1.
</event>
<event>
12    1  0.1345781E-002  0.3202494E+03  0.7818608E-02  0.1075535E+00
          1   -1    0    0  502    0  0.00000000000E+00  0.00000000000E+00  0.59979792607E+03  0.59979792607E+03  0.00000000000E+00 0. -1.
         -1   -1    0    0    0  501 -0.00000000000E+00 -0.00000000000E+00 -0.18705603059E+03  0.18705603059E+03  0.00000000000E+00 0.  1.
          6    2    1    2  502    0 -0.27015154098E+03  0.14966882077E+01  0.91080366221E+02  0.33296396238E+03  0.17200369753E+03 0.  0.
         24    2    3    3    0    0 -0.12593314958E+03 -0.63083217840E+02  0.39897216948E+02  0.16679743912E+03  0.79943400230E+02 0.  0.
         -6    2    1    2    0  501  0.27015154098E+03 -0.14966882077E+01  0.32166152926E+03  0.45388999428E+03  0.17194735337E+03 0.  0.
        -24    2    5    5    0    0  0.85532468807E+02  0.49961933576E+02  0.14228136552E+03  0.19134185639E+03  0.80967407052E+02 0.  0.
          5    1    3    3  502    0 -0.14421839141E+03  0.64579906048E+02  0.51183149273E+02  0.16616652327E+03  0.47000000000E+01 0. -1.
        -13    1    4    4    0    0 -0.76186971566E+02 -0.11968678389E+02 -0.12720445874E+02  0.78163377882E+02  0.00000000000E+00 0.  1.
         14    1    4    4    0    0 -0.49746178010E+02 -0.51114539451E+02  0.52617662822E+02  0.88634061234E+02  0.00000000000E+00 0. -1.
         -5    1    5    5    0  501  0.18461907217E+03 -0.51458621784E+02  0.17938016374E+03  0.26254813789E+03  0.47000000000E+01 0.  1.
         13    1    6    6    0    0  0.82069297730E+02  0.47817765613E+01  0.84216144296E+02  0.11768854650E+03  0.00000000000E+00 0. -1.
        -14    1    6    6    0    0  0.34631710769E+01  0.45180157015E+02  0.58065221222E+02  0.73653309887E+02  0.00000000000E+00 0.  1.
</event>
<event>
12    1  0.1345781E-002  0.1798840E+03  0.7818608E-02  0.1167915E+00
         -1   -1    0    0    0  501 -0.00000000000E+00  0.00000000000E+00  0.47556331509E+03  0.47556331509E+03  0.00000000000E+00 0.  1.
          1   -1    0    0  502    0  0.00000000000E+00 -0.00000000000E+00 -0.86752002233E+02  0.86752002233E+02  0.00000000000E+00 0. -1.
          6    2    1    2  502    0  0.44941673914E+01 -0.45030172706E+02  0.32352992098E+03  0.36936690778E+03  0.17237281919E+03 0.  0.
         24    2    3    3    0    0  0.16578290112E+02 -0.49693391396E+02  0.33705969762E+03  0.35005586207E+03  0.78648547068E+02 0.  0.
         -6    2    1    2    0  501 -0.44941673914E+01  0.45030172706E+02  0.65281391877E+02  0.19294840955E+03  0.17583945697E+03 0.  0.
        -24    2    5    5    0    0  0.41607897214E+02  0.30594952677E+02 -0.18279476270E+02  0.96313609277E+02  0.79214290626E+02 0.  0.
          5    1    3    3  502    0 -0.12084122720E+02  0.46632186905E+01 -0.13529776639E+02  0.19311045709E+02  0.47000000000E+01 0. -1.
        -13    1    4    4    0    0 -0.18252665309E+02 -0.56100957059E+02  0.20327415061E+03  0.21166213048E+03  0.00000000000E+00 0.  1.
         14    1    4    4    0    0  0.34830955420E+02  0.64075656625E+01  0.13378554702E+03  0.13839373159E+03  0.00000000000E+00 0. -1.
         -5    1    5    5    0  501 -0.46102064605E+02  0.14435220029E+02  0.83560868147E+02  0.96634800272E+02  0.47000000000E+01 0.  1.
         13    1    6    6    0    0  0.13572084414E+02 -0.26835167874E+02 -0.10875590448E+02  0.31978214111E+02  0.00000000000E+00 0. -1.
        -14    1    6    6    0    0  0.28035812800E+02  0.57430120551E+02 -0.74038858224E+01  0.64335395166E+02  0.00000000000E+00 0.  1.
</event>
<event>
12    1  0.1345781E-002  0.2115108E+03  0.7818608E-02  0.1140375E+00
          4   -1    0    0  502    0  0.00000000000E+00  0.00000000000E+00  0.38906451330E+03  0.38906451330E+03  0.00000000000E+00 0.  1.
         -4   -1    0    0    0  501 -0.00000000000E+00 -0.00000000000E+00 -0.32079904380E+03  0.32079904380E+03  0.00000000000E+00 0. -1.
          6    2    1    2  502    0 -0.98317143512E+01 -0.12259517380E+03 -0.25015340489E+03  0.32765640015E+03  0.17220845315E+03 0.  0.
         24    2    3    3    0    0 -0.11484280540E+02 -0.67202118300E+02 -0.25088050086E+03  0.27203499922E+03  0.80087462736E+02 0.  0.
         -6    2    1    2    0  501  0.98317143512E+01  0.12259517380E+03  0.31841887440E+03  0.38220715695E+03  0.17194618927E+03 0.  0.
        -24    2    5    5    0    0 -0.29393375509E+02  0.99315398184E+02  0.11654228053E+03  0.17518830569E+03  0.79883167551E+02 0.  0.
          5    1    3    3  502    0  0.16525661885E+01 -0.55393055500E+02  0.72709596944E+00  0.55621400927E+02  0.47000000000E+01 0. -1.
        -11    1    4    4    0    0 -0.20218674557E+01 -0.30666363554E+02 -0.16985077586E+02  0.35114194597E+02  0.00000000000E+00 0.  1.
         12    1    4    4    0    0 -0.94624130839E+01 -0.36535754746E+02 -0.23389542327E+03  0.23692080463E+03  0.00000000000E+00 0. -1.
         -5    1    5    5    0  501  0.39225089860E+02  0.23279775615E+02  0.20187659386E+03  0.20701885126E+03  0.47000000000E+01 0.  1.
         13    1    6    6    0    0 -0.21342144325E+02  0.51843077507E+02  0.11391810073E+03  0.12696663138E+03  0.00000000000E+00 0. -1.
        -14    1    6    6    0    0 -0.80512311839E+01  0.47472320676E+02  0.26241798085E+01  0.48221674314E+02  0.00000000000E+00 0.  1.
</event>
<event>
12    1  0.1345781E-002  0.1742366E+03  0.7818608E-02  0.1173500E+00
          1   -1    0    0  502    0  0.00000000000E+00  0.00000000000E+00  0.57799357736E+03  0.57799357736E+03  0.00000000000E+00 0. -1.
         -1   -1    0    0    0  501 -0.00000000000E+00 -0.00000000000E+00 -0.55334987478E+02  0.55334987478E+02  0.00000000000E+00 0.  1.
          6    2    1    2  502    0 -0.25550753891E+02  0.57630105662E+01  0.33147669588E+03  0.37408594322E+03  0.17139848216E+03 0.  0.
         24    2    3    3    0    0  0.40844120590E+02 -0.33939102987E+02  0.18906007917E+03  0.21194674409E+03  0.79734584075E+02 0.  0.
         -6    2    1    2    0  501  0.25550753891E+02 -0.57630105662E+01  0.19118189400E+03  0.25924262162E+03  0.17311893875E+03 0.  0.
        -24    2    5    5    0    0  0.61926935711E+01  0.56807592271E+02  0.15682737510E+03  0.18513366260E+03  0.80088672433E+02 0.  0.
          5    1    3    3  502    0 -0.66394874480E+02  0.39702113554E+02  0.14241661672E+03  0.16213919913E+03  0.47000000000E+01 0. -1.
        -11    1    4    4    0    0 -0.21800126559E+01 -0.47331033928E+01 -0.72149799161E+01  0.89000369716E+01  0.00000000000E+00 0.  1.
         12    1    4    4    0    0  0.43024133245E+02 -0.29205999595E+02  0.19627505908E+03  0.20304670712E+03  0.00000000000E+00 0. -1.
         -5    1    5    5    0  501  0.19358060320E+02 -0.62570602837E+02  0.34354518902E+02  0.74108959025E+02  0.47000000000E+01 0.  1.
         11    1    6    6    0    0 -0.32747869429E+02  0.91000296442E+01  0.78149546559E+02  0.85220802149E+02  0.00000000000E+00 0. -1.
        -12    1    6    6    0    0  0.38940563000E+02  0.47707562627E+02  0.78677828542E+02  0.99912860446E+02  0.00000000000E+00 0.  1.
</event>
<event>
12    1  0.1345781E-002  0.1783477E+03  0.7818608E-02  0.1169412E+00
         -2   -1    0    0    0  501 -0.00000000000E+00  0.00000000000E+00  0.17623774954E+02  0.17623774954E+02  0.00000000000E+00 0.  1.
          2   -1    0    0  502    0  0.00000000000E+00 -0.00000000000E+00 -0.22012772768E+04  0.22012772768E+04  0.00000000000E+00 0. -1.
          6    2    1    2  502    0 -0.51845584762E+02  0.93273446289E+01 -0.62675098804E+03  0.65194518837E+03  0.17158310991E+03 0.  0.
         24    2    3    3    0    0 -0.27371027773E+02  0.65591818622E+02 -0.27838199277E+03  0.29818292096E+03  0.79781330040E+02 0.  0.
         -6    2    1    2    0  501  0.51845584762E+02 -0.93273446289E+01 -0.15569025138E+04  0.15669558634E+04  0.16920483533E+03 0.  0.
        -24    2    5    5    0    0  0.29670580781E+02  0.56490355050E+02 -0.73895942428E+03  0.74605593764E+03  0.80417210705E+02 0.  0.
          5    1    3    3  502    0 -0.24474556989E+02 -0.56264473993E+02 -0.34836899527E+03  0.35376226741E+03  0.47000000000E+01 0. -1.
        -13    1    4    4    0    0 -0.47663648603E+02  0.48512701571E+02 -0.12296892459E+03  0.14052281675E+03  0.00000000000E+00 0.  1.
         14    1    4    4    0    0  0.20292620830E+02  0.17079117051E+02 -0.15541306818E+03  0.15766010422E+03  0.00000000000E+00 0. -1.
         -5    1    5    5    0  501  0.22175003981E+02 -0.65817699679E+02 -0.81794308955E+03  0.82089992577E+03  0.47000000000E+01 0.  1.
         13    1    6    6    0    0 -0.26578985053E+02  0.10139849442E+02 -0.26541709766E+03  0.26693724866E+03  0.00000000000E+00 0. -1.
        -14    1    6    6    0    0  0.56249565834E+02  0.46350505608E+02 -0.47354232662E+03  0.47911868898E+03  0.00000000000E+00 0.  1.
</event>
<event>
12    1  0.1345781E-002  0.1800646E+03  0.7818608E-02  0.1167740E+00
         -2   -1    0    0    0  501 -0.00000000000E+00  0.00000000000E+00  0.18775483752E+02  0.18775483752E+02  0.00000000000E+00 0. -1.
          2   -1    0    0  502    0  0.00000000000E+00 -0.00000000000E+00 -0.21117249185E+04  0.21117249185E+04  0.00000000000E+00 0.  1.
          6    2    1    2  502    0 -0.31528896542E+02 -0.41787388379E+02 -0.59051784787E+03  0.61728656698E+03  0.17202069636E+03 0.  0.
         24    2    3    3    0    0  0.17735727898E+02  0.26218968243E+02 -0.40225350412E+03  0.41108903816E+03  0.78640481833E+02 0.  0.
         -6    2    1    2    0  501  0.31528896542E+02  0.41787388379E+02 -0.15024315868E+04  0.15132138352E+04  0.17255486333E+03 0.  0.
        -24    2    5    5    0    0 -0.27647077919E+01  0.63896076605E+02 -0.52113589357E+03  0.53105897319E+03  0.79691036066E+02 0.  0.
          5    1    3    3  502    0 -0.49264624441E+02 -0.68006356622E+02 -0.18826434376E+03  0.20619752882E+03  0.47000000000E+01 0. -1.
        -13    1    4    4    0    0 -0.13797197063E+02 -0.21268938734E+02 -0.17337302148E+03  0.17521682276E+03  0.00000000000E+00 0.  1.
         14    1    4    4    0    0  0.31532924962E+02  0.47487906977E+02 -0.22888048264E+03  0.23587221540E+03  0.00000000000E+00 0. -1.
         -5    1    5    5    0  501  0.34293604334E+02 -0.22108688225E+02 -0.98129569328E+03  0.98215486205E+03  0.47000000000E+01 0.  1.
         13    1    6    6    0    0  0.77579113158E+01  0.19664214558E+02 -0.24554304620E+02  0.32400314775E+02  0.00000000000E+00 0. -1.
        -14    1    6    6    0    0 -0.10522619108E+02  0.44231862047E+02 -0.49658158894E+03  0.49865865841E+03  0.00000000000E+00 0.  1.
</event>
<event>
12    1  0.1345781E-002  0.1790230E+03  0.7818608E-02  0.1168752E+00
         -1   -1    0    0    0  501 -0.00000000000E+00  0.00000000000E+00  0.10662717218E+04  0.10662717218E+04  0.00000000000E+00 0. -1.
          1   -1    0    0  502    0  0.00000000000E+00 -0.00000000000E+00 -0.48652965358E+02  0.48652965358E+02  0.00000000000E+00 0.  1.
          6    2    1    2  502    0  0.31549812356E+02 -0.41545713536E+02  0.84999702704E+03  0.86824922496E+03  0.16923455230E+03 0.  0.
         24    2    3    3    0    0  0.84101634147E+02 -0.37973225936E+02  0.52395247416E+03  0.53794391603E+03  0.79639254548E+02 0.  0.
         -6    2    1    2    0  501 -0.31549812356E+02  0.41545713536E+02  0.16762172943E+03  0.24667546223E+03  0.17329253451E+03 0.  0.
        -24    2    5    5    0    0 -0.77248504247E+02  0.57020068832E+02  0.73123740163E+02  0.14046912490E+03  0.71874014899E+02 0.  0.
          5    1    3    3  502    0 -0.52551821791E+02 -0.35724875995E+01  0.32604455289E+03  0.33030530893E+03  0.47000000000E+01 0. -1.
        -11    1    4    4    0    0 -0.78684161849E+01  0.71204944240E+01  0.14513497592E+03  0.14552241975E+03  0.00000000000E+00 0.  1.
         12    1    4    4    0    0  0.91970050331E+02 -0.45093720360E+02  0.37881749824E+03  0.39242149628E+03  0.00000000000E+00 0. -1.
         -5    1    5    5    0  501  0.45698691891E+02 -0.15474355296E+02  0.94497989272E+02  0.10620633733E+03  0.47000000000E+01 0.  1.
         13    1    6    6    0    0 -0.80169591762E+02  0.31905281177E+02  0.31671078172E+02  0.91913914087E+02  0.00000000000E+00 0. -1.
        -14    1    6    6    0    0  0.29210875155E+01  0.25114787655E+02  0.41452661991E+02  0.48555210816E+02  0.00000000000E+00 0.  1.
</event>
<event>
12    1  0.1345781E-002  0.1869195E+03  0.7818608E-02  0.1161269E+00
         -1   -1    0    0    0  501 -0.00000000000E+00  0.00000000000E+00  0.19830273089E+03  0.19830273089E+03  0.00000000000E+00 0.  1.
          1   -1    0    0  502    0  0.00000000000E+00 -0.00000000000E+00 -0.17935364856E+03  0.17935364856E+03  0.00000000000E+00 0. -1.
          6    2    1    2  502    0 -0.15439992397E+02 -0.75695161999E+02 -0.15600349200E+02  0.18766457382E+03  0.17031286052E+03 0.  0.
         24    2    3    3    0    0 -0.37646204508E+02 -0.82931270314E+02 -0.62017033968E+02  0.13549105808E+03  0.78847206726E+02 0.  0.
         -6    2    1    2    0  501  0.15439992397E+02  0.75695161999E+02  0.34549431540E+02  0.18999180563E+03  0.17010312187E+03 0.  0.
        -24    2    5    5    0    0 -0.34368947474E+02  0.95101688049E+02  0.57932984920E+01  0.12911037223E+03  0.80064788079E+02 0.  0.
          5    1    3    3  502    0  0.22206212110E+02  0.72361083154E+01  0.46416684768E+02  0.52173515740E+02  0.47000000000E+01 0. -1.
        -11    1    4    4    0    0 -0.35493865455E+02 -0.27639449550E+02  0.85757397431E+01  0.45796254961E+02  0.00000000000E+00 0.  1.
         12    1    4    4    0    0 -0.21523390529E+01 -0.55291820764E+02 -0.70592773712E+02  0.89694803122E+02  0.00000000000E+00 0. -1.
         -5    1    5    5    0  501  0.49808939871E+02 -0.19406526051E+02  0.28756133048E+02  0.60881433396E+02  0.47000000000E+01 0.  1.
         11    1    6    6    0    0 -0.11472103670E+02  0.67710977843E+02 -0.33168234269E+02  0.76266096318E+02  0.00000000000E+00 0. -1.
        -12    1    6    6    0    0 -0.22896843804E+02  0.27390710206E+02  0.38961532761E+02  0.52844275914E+02  0.00000000000E+00 0.  1.
</event>
<event>
12    1  0.1345781E-002  0.1769936E+03  0.7818608E-02  0.1170745E+00
          1   -1    0    0  502    0  0.00000000000E+00  0.00000000000E+00  0.14944887363E+04  0.14944887363E+04  0.00000000000E+00 0. -1.
         -1   -1    0    0    0  501 -0.00000000000E+00 -0.00000000000E+00 -0.25489581443E+02  0.25489581443E+02  0.00000000000E+00 0.  1.
          6    2    1    2  502    0  0.31660671998E+02 -0.31183475095E+02  0.10589183186E+04  0.10738096366E+04  0.17258135171E+03 0.  0.
         24    2    3    3    0    0 -0.19249781173E+02 -0.34900497027E+02  0.30016419824E+03  0.31332584609E+03  0.80535341032E+02 0.  0.
         -6    2    1    2    0  501 -0.31660671998E+02  0.31183475095E+02  0.41008083626E+03  0.44616868113E+03  0.17007466737E+03 0.  0.
        -24    2    5    5    0    0 -0.71513825701E+02  0.14443476953E+02  0.16310250847E+03  0.19539211564E+03  0.79074707040E+02 0.  0.
          5    1    3    3  502    0  0.50910453171E+02  0.37170219315E+01  0.75875412034E+03  0.76048379051E+03  0.47000000000E+01 0. -1.
        -11    1    4    4    0    0  0.17975612237E+02 -0.44215619635E+02  0.20962989283E+03  0.21499496650E+03  0.00000000000E+00 0.  1.
         12    1    4    4    0    0 -0.37225393410E+02  0.93151226081E+01  0.90534305411E+02  0.98330879585E+02  0.00000000000E+00 0. -1.
         -5    1    5    5    0  501  0.39853153703E+02  0.16739998142E+02  0.24697832779E+03  0.25077656549E+03  0.47000000000E+01 0.  1.
         11    1    6    6    0    0 -0.26153416941E+02  0.35811367918E+02  0.12435162227E+03  0.13202189686E+03  0.00000000000E+00 0. -1.
        -12    1    6    6    0    0 -0.45360408759E+02 -0.21367890965E+02  0.38750886200E+02  0.63370218781E+02  0.00000000000E+00 0.  1.
</event>
<event>
12    1  0.1345781E-002  0.2102029E+03  0.7818608E-02  0.1141405E+00
          1   -1    0    0  502    0  0.00000000000E+00  0.00000000000E+00  0.55218273325E+03  0.55218273325E+03  0.00000000000E+00 0.  1.
         -1   -1    0    0    0  501 -0.00000000000E+00 -0.00000000000E+00 -0.11381258071E+03  0.11381258071E+03  0.00000000000E+00 0. -1.
          6    2    1    2  502    0  0.42380916936E+02 -0.11475255122E+03  0.40074062568E+03  0.45259010769E+03  0.17111535985E+03 0.  0.
         24    2    3    3    0    0  0.54173163023E+02 -0.12785125960E+03  0.22525251671E+03  0.27615655187E+03  0.79013091846E+02 0.  0.
         -6    2    1    2    0  501 -0.42380916936E+02  0.11475255122E+03  0.37629526859E+02  0.21340520627E+03  0.17076741679E+03 0.  0.
        -24    2    5    5    0    0  0.38526832644E+02  0.32252036477E+02  0.20661995466E+02  0.96518996659E+02  0.79777741062E+02 0.  0.
          5    1    3    3  502    0 -0.11792246087E+02  0.13098708382E+02  0.17548810897E+03  0.17643355582E+03  0.47000000000E+01 0. -1.
        -13    1    4    4    0    0  0.71868007301E+02 -0.80577250335E+02  0.16931013651E+03  0.20080743529E+03  0.00000000000E+00 0.  1.
         14    1    4    4    0    0 -0.17694844278E+02 -0.47274009267E+02  0.55942380201E+02  0.75349116576E+02  0.00000000000E+00 0. -1.
         -5    1    5    5    0  501 -0.80907749579E+02  0.82500514742E+02  0.16967531393E+02  0.11688620961E+03  0.47000000000E+01 0.  1.
         13    1    6    6    0    0 -0.95904994929E+01  0.31579539709E+02 -0.15365092335E+02  0.36405096775E+02  0.00000000000E+00 0. -1.
        -14    1    6    6    0    0  0.48117332137E+02  0.67249676770E+00  0.36027087801E+02  0.60113899884E+02  0.00000000000E+00 0.  1.
</event>
<event>
12    1  0.1345781E-002  0.2287150E+03  0.7818608E-02  0.1127547E+00
         -1   -1    0    0    0  501 -0.00000000000E+00  0.00000000000E+00  0.12478178726E+03  0.12478178726E+03  0.00000000000E+00 0.  1.
          1   -1    0    0  502    0  0.00000000000E+00 -0.00000000000E+00 -0.43856891464E+03  0.43856891464E+03  0.00000000000E+00 0. -1.
          6    2    1    2  502    0  0.15373165202E+03  0.36824783093E+02 -0.21287566509E+03  0.30922723258E+03  0.15910985859E+03 0.  0.
         24    2    3    3    0    0  0.11814007857E+03  0.57137573944E+02 -0.21540093673E+03  0.26790125323E+03  0.90286972585E+02 0.  0.
         -6    2    1    2    0  501 -0.15373165202E+03 -0.36824783093E+02 -0.10091146230E+03  0.25412346932E+03  0.17148215345E+03 0.  0.
        -24    2    5    5    0    0 -0.12049311673E+03 -0.54269654201E+02 -0.13322739762E+03  0.20436873656E+03  0.80952173895E+02 0.  0.
          5    1    3    3  502    0  0.35591573447E+02 -0.20312790852E+02  0.25252716372E+01  0.41325979353E+02  0.47000000000E+01 0. -1.
        -13    1    4    4    0    0  0.39666840704E+02  0.19373033758E+02 -0.10667769690E+02  0.45415570002E+02  0.00000000000E+00 0.  1.
         14    1    4    4    0    0  0.78473237868E+02  0.37764540186E+02 -0.20473316704E+03  0.22248568323E+03  0.00000000000E+00 0. -1.
         -5    1    5    5    0  501 -0.33238535290E+02  0.17444871109E+02  0.32315935323E+02  0.49754732760E+02  0.47000000000E+01 0.  1.
         11    1    6    6    0    0 -0.20255539753E+02  0.16284111895E+02 -0.49551268953E+02  0.55953439981E+02  0.00000000000E+00 0. -1.
        -12    1    6    6    0    0 -0.10023757698E+03 -0.70553766096E+02 -0.83676128670E+02  0.14841529658E+03  0.00000000000E+00 0.  1.
</event>
<event>
12    1  0.1345781E-002  0.2557616E+03  0.7818608E-02  0.1109717E+00
          2   -1    0    0  502    0  0.00000000000E+00  0.00000000000E+00  0.46108175263E+03  0.46108175263E+03  0.00000000000E+00 0. -1.
         -2   -1    0    0    0  501 -0.00000000000E+00 -0.00000000000E+00 -0.14288871086E+03  0.14288871086E+03  0.00000000000E+00 0.  1.
          6    2    1    2  502    0 -0.61350295308E+02  0.17831109407E+03  0.18470372164E+03  0.31563946632E+03  0.17307253655E+03 0.  0.
         24    2    3    3    0    0 -0.30095420913E+01  0.20332514990E+02  0.26963066823E+02  0.84847180667E+02  0.77778972641E+02 0.  0.
         -6    2    1    2    0  501  0.61350295308E+02 -0.17831109407E+03  0.13348932013E+03  0.28833099717E+03  0.17250118938E+03 0.  0.
        -24    2    5    5    0    0  0.83257792088E+02 -0.55025700538E+02  0.84074294794E+02  0.15363444412E+03  0.81088641082E+02 0.  0.
          5    1    3    3  502    0 -0.58340753217E+02  0.15797857908E+03  0.15774065482E+03  0.23079228565E+03  0.47000000000E+01 0. -1.
        -13    1    4    4    0    0  0.24900390239E+02 -0.11587386673E+02  0.31975123738E+02  0.42150984591E+02  0.00000000000E+00 0.  1.
         14    1    4    4    0    0 -0.27909932330E+02  0.31919901662E+02 -0.50120569147E+01  0.42696196075E+02  0.00000000000E+00 0. -1.
         -5    1    5    5    0  501 -0.21907496780E+02 -0.12328539353E+03  0.49415025341E+02  0.13469655305E+03  0.47000000000E+01 0.  1.
         11    1    6    6    0    0  0.72071352778E+02 -0.17487248096E+02  0.17196493325E+02  0.76130172205E+02  0.00000000000E+00 0. -1.
        -12    1    6    6    0    0  0.11186439310E+02 -0.37538452442E+02  0.66877801468E+02  0.77504271917E+02  0.00000000000E+00 0.  1.
</event>
<event>
12    1  0.1345781E-002  0.1759069E+03  0.7818608E-02  0.1171824E+00
         -2   -1    0    0    0  501 -0.00000000000E+00  0.00000000000E+00  0.45818145384E+03  0.45818145384E+03  0.00000000000E+00 0. -1.
          2   -1    0    0  502    0  0.00000000000E+00 -0.00000000000E+00 -0.90589709170E+02  0.90589709170E+02  0.00000000000E+00 0.  1.
          6    2    1    2  502    0 -0.76038199795E+00  0.33444836886E+02  0.45663049498E+02  0.18209433003E+03  0.17307251557E+03 0.  0.
         24    2    3    3    0    0  0.64830106291E+02  0.16703534199E+02  0.88102768771E+01  0.10487645503E+03  0.80246489672E+02 0.  0.
         -6    2    1    2    0  501  0.76038199795E+00 -0.33444836886E+02  0.32192869518E+03  0.36667683299E+03  0.17232144317E+03 0.  0.
        -24    2    5    5    0    0 -0.45215519369E+02  0.18315243946E+02  0.11427481268E+03  0.14773594053E+03  0.79920485222E+02 0.  0.
          5    1    3    3  502    0 -0.65590488289E+02  0.16741302687E+02  0.36852772621E+02  0.77217875000E+02  0.47000000000E+01 0. -1.
        -13    1    4    4    0    0  0.11085835640E+02  0.34700026087E+02 -0.19720360290E+02  0.41423183994E+02  0.00000000000E+00 0.  1.
         14    1    4    4    0    0  0.53744270651E+02 -0.17996491887E+02  0.28530637167E+02  0.63453271036E+02  0.00000000000E+00 0. -1.
         -5    1    5    5    0  501  0.45975901366E+02 -0.51760080832E+02  0.20765388249E+03  0.21894089246E+03  0.47000000000E+01 0.  1.
         11    1    6    6    0    0 -0.50793939943E+02 -0.17635045878E+02  0.86969675748E+02  0.10224844096E+03  0.00000000000E+00 0. -1.
        -12    1    6    6    0    0  0.55784205740E+01  0.35950289825E+02  0.27305136934E+02  0.45487499575E+02  0.00000000000E+00 0.  1.
</event>
<event>
12    1  0.1345781E-002  0.2079529E+03  0.7818608E-02  0.1143197E+00
          1   -1    0    0  502    0  0.00000000000E+00  0.00000000000E+00  0.98742743655E+02  0.98742743655E+02  0.00000000000E+00 0. -1.
         -1   -1    0    0    0  501 -0.00000000000E+00 -0.00000000000E+00 -0.92440665094E+03  0.92440665094E+03  0.00000000000E+00 0.  1.
          6    2    1    2  502    0  0.35703731474E+02  0.11143530799E+03 -0.42765814378E+02  0.21338462671E+03  0.17323827443E+03 0.  0.
         24    2    3    3    0    0  0.10846211626E+02 -0.12763387793E+02 -0.13033559772E+01  0.80026320695E+02  0.78243011781E+02 0.  0.
         -6    2    1    2    0  501 -0.35703731474E+02 -0.11143530799E+03 -0.78289809291E+03  0.80976476789E+03  0.17057834308E+03 0.  0.
        -24    2    5    5    0    0  0.20301153181E+02  0.39156740607E+01 -0.37146035564E+03  0.37878275224E+03  0.71176599089E+02 0.  0.
          5    1    3    3  502    0  0.24857519848E+02  0.12419869578E+03 -0.41462458401E+02  0.13335830601E+03  0.47000000000E+01 0. -1.
        -11    1    4    4    0    0  0.44328851386E+02 -0.67260876421E+01  0.59788936849E+01  0.45233112759E+02  0.00000000000E+00 0.  1.
         12    1    4    4    0    0 -0.33482639759E+02 -0.60373001512E+01 -0.72822496621E+01  0.34793207936E+02  0.00000000000E+00 0. -1.
         -5    1    5    5    0  501 -0.56004884655E+02 -0.11535098205E+03 -0.41143773727E+03  0.43098201565E+03  0.47000000000E+01 0.  1.
         13    1    6    6    0    0 -0.14612827391E+02  0.27851026135E+02 -0.17641638589E+03  0.17919809037E+03  0.00000000000E+00 0. -1.
        -14    1    6    6    0    0  0.34913980572E+02 -0.23935352074E+02 -0.19504396975E+03  0.19958466187E+03  0.00000000000E+00 0.  1.
</event>
<event>
12    1  0.1345781E-002  0.1890419E+03  0.7818608E-02  0.1159328E+00
         -1   -1    0    0    0  501 -0.00000000000E+00  0.00000000000E+00  0.15895756678E+03  0.15895756678E+03  0.00000000000E+00 0. -1.
          1   -1    0    0  502    0  0.00000000000E+00 -0.00000000000E+00 -0.22483112269E+03  0.22483112269E+03  0.00000000000E+00 0.  1.
          6    2    1    2  502    0 -0.76113228173E+02 -0.22225556986E+02 -0.31601276299E+02  0.19171537821E+03  0.17166521690E+03 0.  0.
         24    2    3    3    0    0 -0.92364901938E+02  0.21310173934E+02 -0.59176107786E+02  0.13747574235E+03  0.80077271305E+02 0.  0.
         -6    2    1    2    0  501  0.76113228173E+02  0.22225556986E+02 -0.34272279607E+02  0.19207331125E+03  0.17155281653E+03 0.  0.
        -24    2    5    5    0    0  0.22714423293E+02  0.21487550727E+02  0.44262633899E+02  0.96984933122E+02  0.80431564893E+02 0.  0.
          5    1    3    3  502    0  0.16251673765E+02 -0.43535730920E+02  0.27574831487E+02  0.54239635862E+02  0.47000000000E+01 0. -1.
        -13    1    4    4    0    0 -0.10177201939E+03  0.29066172444E+02 -0.36914360181E+02  0.11209396192E+03  0.00000000000E+00 0.  1.
         14    1    4    4    0    0  0.94071174499E+01 -0.77559985106E+01 -0.22261747605E+02  0.25381780435E+02  0.00000000000E+00 0. -1.
         -5    1    5    5    0  501  0.53398804880E+02  0.73800625951E+00 -0.78534913505E+02  0.95088378129E+02  0.47000000000E+01 0.  1.
         11    1    6    6    0    0 -0.20938736207E+02 -0.17826971969E+02  0.15638388926E+02  0.31635277962E+02  0.00000000000E+00 0. -1.
        -12    1    6    6    0    0  0.43653159500E+02  0.39314522696E+02  0.28624244973E+02  0.65349655159E+02  0.00000000000E+00 0.  1.
</event>
<event>
12    1  0.1345781E-002  0.2046452E+03  0.7818608E-02  0.1145878E+00
         -2   -1    0    0    0  501 -0.00000000000E+00  0.00000000000E+00  0.34447301488E+02  0.34447301488E+02  0.00000000000E+00 0. -1.
          2   -1    0    0  502    0  0.00000000000E+00 -0.00000000000E+00 -0.14948308358E+04  0.14948308358E+04  0.00000000000E+00 0.  1.
          6    2    1    2  502    0 -0.98013453892E+02 -0.48503768935E+02 -0.40251786388E+03  0.45197521014E+03  0.17407385531E+03 0.  0.
         24    2    3    3    0    0 -0.38814091212E+02  0.41586161079E+02 -0.21732648533E+03  0.23764206591E+03  0.77504888830E+02 0.  0.
         -6    2    1    2    0  501  0.98013453892E+02  0.48503768935E+02 -0.10578656704E+04  0.10773029271E+04  0.17187951419E+03 0.  0.
        -24    2    5    5    0    0  0.13417434124E+03  0.22580572102E+02 -0.77691464235E+03  0.79281181640E+03  0.80259445829E+02 0.  0.
          5    1    3    3  502    0 -0.59199362680E+02 -0.90089930014E+02 -0.18519137854E+03  0.21433314424E+03  0.47000000000E+01 0. -1.
        -11    1    4    4    0    0  0.15809174494E+02 -0.56862135905E+01 -0.87248936738E+02  0.88851786617E+02  0.00000000000E+00 0.  1.
         12    1    4    4    0    0 -0.54623265706E+02  0.47272374670E+02 -0.13007754859E+03  0.14879027929E+03  0.00000000000E+00 0. -1.
         -5    1    5    5    0  501 -0.36160887348E+02  0.25923196833E+02 -0.28095102809E+03  0.28449111075E+03  0.47000000000E+01 0.  1.
         11    1    6    6    0    0  0.21132590314E+02 -0.29931439268E+01 -0.34369291232E+03  0.34435499599E+03  0.00000000000E+00 0. -1.
        -12    1    6    6    0    0  0.11304175093E+03  0.25573716029E+02 -0.43322173003E+03  0.44845682041E+03  0.00000000000E+00 0.  1.
</event>
<event>
12    1  0.1345781E-002  0.2801631E+03  0.7818608E-02  0.1095600E+00
          2   -1    0    0  502    0  0.00000000000E+00  0.00000000000E+00  0.11523485538E+04  0.11523485538E+04  0.00000000000E+00 0. -1.
         -2   -1    0    0    0  501 -0.00000000000E+00 -0.00000000000E+00 -0.98435115629E+02  0.98435115629E+02  0.00000000000E+00 0.  1.
          6    2    1    2  502    0 -0.89307654455E+02  0.20258073543E+03  0.17959427300E+03  0.33261115002E+03  0.17135128453E+03 0.  0.
         24    2    3    3    0    0 -0.56232727663E+02  0.35031741834E+02  0.97152103333E+02  0.14291292288E+03  0.81217176440E+02 0.  0.
         -6    2    1    2    0  501  0.89307654455E+02 -0.20258073543E+03  0.87431916516E+03  0.91817251939E+03  0.17202314175E+03 0.  0.
        -24    2    5    5    0    0  0.12589944533E+03 -0.10962406828E+03  0.54186843323E+03  0.57100472094E+03  0.67504708873E+02 0.  0.
          5    1    3    3  502    0 -0.33074926792E+02  0.16754899360E+03  0.82442169665E+02  0.18969822713E+03  0.47000000000E+01 0. -1.
        -11    1    4    4    0    0 -0.15287074304E+02  0.48174939745E+02  0.19548806121E+02  0.54191099647E+02  0.00000000000E+00 0.  1.
         12    1    4    4    0    0 -0.40945653359E+02 -0.13143197911E+02  0.77603297213E+02  0.88721823237E+02  0.00000000000E+00 0. -1.
         -5    1    5    5    0  501 -0.36591790874E+02 -0.92956667155E+02  0.33245073192E+03  0.34716779846E+03  0.47000000000E+01 0.  1.
         13    1    6    6    0    0  0.44645692940E+02 -0.44450243971E+02  0.31677178553E+03  0.32297589105E+03  0.00000000000E+00 0. -1.
        -14    1    6    6    0    0  0.81253752389E+02 -0.65173824309E+02  0.22509664770E+03  0.24802882989E+03  0.00000000000E+00 0.  1.
</event>
<event>
12    1  0.1345781E-002  0.2427302E+03  0.7818608E-02  0.1117987E+00
          1   -1    0    0  502    0  0.00000000000E+00  0.00000000000E+00  0.16895661343E+03  0.16895661343E+03  0.00000000000E+00 0. -1.
         -1   -1    0    0    0  501 -0.00000000000E+00 -0.00000000000E+00 -0.38274226201E+03  0.38274226201E+03  0.00000000000E+00 0.  1.
          6    2    1    2  502    0 -0.11570642250E+03  0.12639020866E+03 -0.18908996375E+03  0.30759108584E+03  0.17174050381E+03 0.  0.
         24    2    3    3    0    0  0.29259561109E+01  0.69954475706E+02 -0.11031716058E+03  0.15434005737E+03  0.82151004255E+02 0.  0.
         -6    2    1    2    0  501  0.11570642250E+03 -0.12639020866E+03 -0.24695684827E+02  0.24410778960E+03  0.17209379722E+03 0.  0.
        -24    2    5    5    0    0  0.55231307680E+02 -0.91604826606E+02 -0.79027062896E+02  0.15555695132E+03  0.80689198964E+02 0.  0.
          5    1    3    3  502    0 -0.11863237861E+03  0.56435732949E+02 -0.78772803168E+02  0.15325102847E+03  0.47000000000E+01 0. -1.
        -11    1    4    4    0    0 -0.23307265784E+02  0.64408689467E+02 -0.10738049067E+03  0.12736670559E+03  0.00000000000E+00 0.  1.
         12    1    4    4    0    0  0.26233221895E+02  0.55457862394E+01 -0.29366699121E+01  0.26973351778E+02  0.00000000000E+00 0. -1.
         -5    1    5    5    0  501  0.60475114822E+02 -0.34785382049E+02  0.54331378069E+02  0.88550838279E+02  0.47000000000E+01 0.  1.
         11    1    6    6    0    0  0.12921991200E+02  0.14480079277E+02 -0.15711532018E+02  0.24970037861E+02  0.00000000000E+00 0. -1.
        -12    1    6    6    0    0  0.42309316480E+02 -0.10608490588E+03 -0.63315530878E+02  0.13058691346E+03  0.00000000000E+00 0.  1.
</event>
<event>
12    1  0.1345781E-002  0.1807768E+03  0.7818608E-02  0.1167053E+00
         -1   -1    0    0    0  501 -0.00000000000E+00  0.00000000000E+00  0.57028288231E+03  0.57028288231E+03  0.00000000000E+00 0.  1.
          1   -1    0    0  502    0  0.00000000000E+00 -0.00000000000E+00 -0.79049199605E+02  0.79049199605E+02  0.00000000000E+00 0. -1.
          6    2    1    2  502    0  0.55567546214E+02 -0.25457208541E+01  0.41357399833E+03  0.45044399779E+03  0.16959395672E+03 0.  0.
         24    2    3    3    0    0  0.68589386870E+01  0.47910091930E+02  0.32064833355E+03  0.33392967821E+03  0.79694756615E+02 0.  0.
         -6    2    1    2    0  501 -0.55567546214E+02  0.25457208541E+01  0.77659684375E+02  0.19888808413E+03  0.17444543716E+03 0.  0.
        -24    2    5    5    0    0 -0.10019490401E+03  0.27689878777E+02  0.52764439603E+02  0.14174184231E+03  0.80628255592E+02 0.  0.
          5    1    3    3  502    0  0.48708607527E+02 -0.50455812784E+02  0.92925664780E+02  0.11651431957E+03  0.47000000000E+01 0. -1.
        -13    1    4    4    0    0  0.31571333347E+02  0.12354274222E+01  0.19636316305E+03  0.19888883119E+03  0.00000000000E+00 0.  1.
         14    1    4    4    0    0 -0.24712394660E+02  0.46674664508E+02  0.12428517050E+03  0.13504084702E+03  0.00000000000E+00 0. -1.
         -5    1    5    5    0  501  0.44627357797E+02 -0.25144157923E+02  0.24895244773E+02  0.57146241817E+02  0.47000000000E+01 0.  1.
         13    1    6    6    0    0 -0.37364129274E+02  0.49996413608E+02  0.11893507945E+02  0.63538768176E+02  0.00000000000E+00 0. -1.
        -14    1    6    6    0    0 -0.62830774737E+02 -0.22306534831E+02  0.40870931658E+02  0.78203074139E+02  0.00000000000E+00 0.  1.
</event>
<event>
12    1  0.1345781E-002  0.1881641E+03  0.7818608E-02  0.1160128E+00
          2   -1    0    0  502    0  0.00000000000E+00  0.00000000000E+00  0.27217685213E+03  0.27217685213E+03  0.00000000000E+00 0.  1.
         -2   -1    0    0    0  501 -0.00000000000E+00 -0.00000000000E+00 -0.13109078763E+03  0.13109078763E+03  0.00000000000E+00 0. -1.
          6    2    1    2  502    0 -0.61142861056E+02  0.44527690114E+02  0.88247593723E+02  0.20790388806E+03  0.17238104370E+03 0.  0.
         24    2    3    3    0    0 -0.10217020923E+03  0.26443186361E+02  0.87523372751E+02  0.16281611732E+03  0.87810896382E+02 0.  0.
         -6    2    1    2    0  501  0.61142861056E+02 -0.44527690114E+02  0.52838470786E+02  0.19536375170E+03  0.17220315572E+03 0.  0.
        -24    2    5    5    0    0  0.20376302386E+01  0.27731052005E+02  0.53655891048E+02  0.10188909044E+03  0.82032121297E+02 0.  0.
          5    1    3    3  502    0  0.41027348170E+02  0.18084503754E+02  0.72422097180E+00  0.45087770735E+02  0.47000000000E+01 0. -1.
        -11    1    4    4    0    0 -0.73789104512E+00  0.96445917804E+01  0.53725769676E+02  0.54589568244E+02  0.00000000000E+00 0.  1.
         12    1    4    4    0    0 -0.10143231818E+03  0.16798594580E+02  0.33797603075E+02  0.10822654908E+03  0.00000000000E+00 0. -1.
         -5    1    5    5    0  501  0.59105230817E+02 -0.72258742119E+02 -0.81742026131E+00  0.93474661264E+02  0.47000000000E+01 0.  1.
         11    1    6    6    0    0 -0.13376028181E+01 -0.26707670399E+02  0.20795489723E+01  0.26821882174E+02  0.00000000000E+00 0. -1.
        -12    1    6    6    0    0  0.33752330568E+01  0.54438722403E+02  0.51576342075E+02  0.75067208267E+02  0.00000000000E+00 0.  1.
</event>
<event>
12    1  0.1345781E-002  0.2462415E+03  0.7818608E-02  0.1115703E+00
         -2   -1    0    0    0  501 -0.00000000000E+00  0.00000000000E+00  0.51578279274E+02  0.51578279274E+02  0.00000000000E+00 0.  1.
          2   -1    0    0  502    0  0.00000000000E+00 -0.00000000000E+00 -0.11766620491E+04  0.11766620491E+04  0.00000000000E+00 0. -1.
          6    2    1    2  502    0 -0.88890632370E+02 -0.15186464528E+03 -0.54462526041E+03  0.59781551597E+03  0.17263343204E+03 0.  0.
         24    2    3    3    0    0 -0.64685506963E+02 -0.55624560250E+02 -0.43263161862E+03  0.44810677253E+03  0.79694765476E+02 0.  0.
         -6    2    1    2    0  501  0.88890632370E+02  0.15186464528E+03 -0.58045850946E+03  0.63042481244E+03  0.17186898477E+03 0.  0.
        -24    2    5    5    0    0  0.12291691982E+03  0.88975025109E+02 -0.45039641530E+03  0.48192858050E+03  0.79831707460E+02 0.  0.
          5    1    3    3  502    0 -0.24205125407E+02 -0.96240085033E+02 -0.11199364179E+03  0.14970874345E+03  0.47000000000E+01 0. -1.
        -13    1    4    4    0    0 -0.55493237951E+02 -0.39488530142E+01 -0.30620445492E+03  0.31121738562E+03  0.00000000000E+00 0.  1.
         14    1    4    4    0    0 -0.91922690114E+01 -0.51675707236E+02 -0.12642716369E+03  0.13688938691E+03  0.00000000000E+00 0. -1.
         -5    1    5    5    0  501 -0.34026287450E+02  0.62889620174E+02 -0.13006209416E+03  0.14849623194E+03  0.47000000000E+01 0.  1.
         11    1    6    6    0    0 -0.84840755551E+01  0.21602775846E+02 -0.48621451348E+02  0.53876757451E+02  0.00000000000E+00 0. -1.
        -12    1    6    6    0    0  0.13140099538E+03  0.67372249263E+02 -0.40177496395E+03  0.42805182304E+03  0.00000000000E+00 0.  1.
</event>
<event>
12    1  0.1345781E-002  0.1946286E+03  0.7818608E-02  0.1154352E+00
         -4   -1    0    0    0  501 -0.00000000000E+00  0.00000000000E+00  0.90706468189E+02  0.90706468189E+02  0.00000000000E+00 0.  1.
          4   -1    0    0  502    0  0.00000000000E+00 -0.00000000000E+00 -0.50385647177E+03  0.50385647177E+03  0.00000000000E+00 0. -1.
          6    2    1    2  502    0 -0.78594883842E+02  0.46673223102E+02 -0.83937268181E+02  0.21232513192E+03  0.17228160416E+03 0.  0.
         24    2    3    3    0    0 -0.81576892424E+02  0.93880156409E+02 -0.70604311317E+02  0.16295667371E+03  0.78112966812E+02 0.  0.
         -6    2    1    2    0  501  0.78594883842E+02 -0.46673223102E+02 -0.32921273540E+03  0.38223780804E+03  0.17137435988E+03 0.  0.
        -24    2    5    5    0    0  0.55516251821E+02 -0.79464101545E+02 -0.13745675290E+03  0.18627783307E+03  0.80052948262E+02 0.  0.
          5    1    3    3  502    0  0.29820085811E+01 -0.47206933307E+02 -0.13332956864E+02  0.49368458212E+02  0.47000000000E+01 0. -1.
        -11    1    4    4    0    0 -0.39663050658E+02 -0.14962445485E+01 -0.34827748476E+02  0.52805003543E+02  0.00000000000E+00 0.  1.
         12    1    4    4    0    0 -0.41913841765E+02  0.95376400958E+02 -0.35776562841E+02  0.11015167016E+03  0.00000000000E+00 0. -1.
         -5    1    5    5    0  501  0.23078632022E+02  0.32790878443E+02 -0.19175598250E+03  0.19595997497E+03  0.47000000000E+01 0.  1.
         11    1    6    6    0    0 -0.46078639772E+01 -0.28922984416E+02 -0.15771939017E+01  0.29330171813E+02  0.00000000000E+00 0. -1.
        -12    1    6    6    0    0  0.60124115798E+02 -0.50541117129E+02 -0.13587955900E+03  0.15694766126E+03  0.00000000000E+00 0.  1.
</event>
<event>
12    1  0.1345781E-002  0.2176042E+03  0.7818608E-02  0.1135682E+00
         -2   -1    0    0    0  501 -0.00000000000E+00  0.00000000000E+00  0.39688294257E+02  0.39688294257E+02  0.00000000000E+00 0. -1.
          2   -1    0    0  502    0  0.00000000000E+00 -0.00000000000E+00 -0.12010334079E+04  0.12010334079E+04  0.00000000000E+00 0.  1.
          6    2    1    2  502    0  0.42609053301E+01  0.13104144967E+03 -0.63389035301E+03  0.67055135447E+03  0.17502034880E+03 0.  0.
         24    2    3    3    0    0 -0.54224392276E+02  0.10370112949E+03 -0.51793923698E+03  0.53775536638E+03  0.85003364017E+02 0.  0.
         -6    2    1    2    0  501 -0.42609053301E+01 -0.13104144967E+03 -0.52745476065E+03  0.57017034771E+03  0.17232435702E+03 0.  0.
        -24    2    5    5    0    0  0.39314254837E+02 -0.82380580661E+02 -0.17781845347E+03  0.21445373008E+03  0.77709904433E+02 0.  0.
          5    1    3    3  502    0  0.58485297606E+02  0.27340320179E+02 -0.11595111604E+03  0.13279598809E+03  0.47000000000E+01 0. -1.
        -11    1    4    4    0    0 -0.11339772191E+02  0.10757322338E+02 -0.25674041348E+03  0.25721576610E+03  0.00000000000E+00 0.  1.
         12    1    4    4    0    0 -0.42884620085E+02  0.92943807153E+02 -0.26119882350E+03  0.28053960028E+03  0.00000000000E+00 0. -1.
         -5    1    5    5    0  501 -0.43575160167E+02 -0.48660869008E+02 -0.34963630718E+03  0.35571661763E+03  0.47000000000E+01 0.  1.
         11    1    6    6    0    0 -0.11691367884E+02 -0.64276829720E+02 -0.10616835077E+03  0.12465920595E+03  0.00000000000E+00 0. -1.
        -12    1    6    6    0    0  0.51005622722E+02 -0.18103750941E+02 -0.71650102700E+02  0.89794524133E+02  0.00000000000E+00 0.  1.
</event>
<event>
12    1  0.1345781E-002  0.1649314E+03  0.7818608E-02  0.1183239E+00
         -2   -1    0    0    0  501 -0.00000000000E+00  0.00000000000E+00  0.57291495104E+02  0.57291495104E+02  0.00000000000E+00 0.  1.
          2   -1    0    0  502    0  0.00000000000E+00 -0.00000000000E+00 -0.64720245737E+03  0.64720245737E+03  0.00000000000E+00 0. -1.
          6    2    1    2  502    0 -0.59459912793E+01 -0.22195042681E+02 -0.46719423483E+03  0.49325599507E+03  0.15653449742E+03 0.  0.
         24    2    3    3    0    0  0.36042761121E+01 -0.61518501201E+02 -0.41139021275E+03  0.42416387629E+03  0.82919056958E+02 0.  0.
         -6    2    1    2    0  501  0.59459912793E+01  0.22195042681E+02 -0.12271672744E+03  0.21123795741E+03  0.17039396915E+03 0.  0.
        -24    2    5    5    0    0  0.14592134859E+02  0.61809349221E+02 -0.13399059775E+03  0.16889130189E+03  0.80854594912E+02 0.  0.
          5    1    3    3  502    0 -0.95502673914E+01  0.39323458520E+02 -0.55804022075E+02  0.69092118776E+02  0.47000000000E+01 0. -1.
        -13    1    4    4    0    0  0.20488137072E+02  0.13926456968E+02 -0.74278650945E+02  0.78300880905E+02  0.00000000000E+00 0.  1.
         14    1    4    4    0    0 -0.16883860960E+02 -0.75444958169E+02 -0.33711156181E+03  0.34586299539E+03  0.00000000000E+00 0. -1.
         -5    1    5    5    0  501 -0.86461435795E+01 -0.39614306540E+02  0.11273870312E+02  0.42346655514E+02  0.47000000000E+01 0.  1.
         11    1    6    6    0    0  0.20981905861E+01 -0.19490320196E+02 -0.17435172786E+02  0.26234714314E+02  0.00000000000E+00 0. -1.
        -12    1    6    6    0    0  0.12493944273E+02  0.81299669416E+02 -0.11655542496E+03  0.14265658758E+03  0.00000000000E+00 0.  1.
</event>
<event>
12    1  0.1345781E-002  0.1789189E+03  0.7818608E-02  0.1168853E+00
         -4   -1    0    0    0  501 -0.00000000000E+00  0.00000000000E+00  0.44482374356E+03  0.44482374356E+03  0.00000000000E+00 0. -1.
          4   -1    0    0  502    0  0.00000000000E+00 -0.00000000000E+00 -0.72776953805E+02  0.72776953805E+02  0.00000000000E+00 0.  1.
          6    2    1    2  502    0 -0.41574658196E+02 -0.11894653527E+02  0.15667248890E+03  0.23622378143E+03  0.17142190976E+03 0.  0.
         24    2    3    3    0    0  0.29183774271E+02 -0.46632886699E+02  0.97380428269E+02  0.13747592543E+03  0.79939748944E+02 0.  0.
         -6    2    1    2    0  501  0.41574658196E+02  0.11894653527E+02  0.21537430086E+03  0.28137691594E+03  0.17583214828E+03 0.  0.
        -24    2    5    5    0    0  0.42973207938E+02 -0.66296628507E+01  0.23392156869E+03  0.25470863173E+03  0.90920502348E+02 0.  0.
          5    1    3    3  502    0 -0.70758432467E+02  0.34738233172E+02  0.59292060635E+02  0.98747855995E+02  0.47000000000E+01 0. -1.
        -13    1    4    4    0    0  0.54297832173E+01  0.10609381113E+02 -0.86053039106E+01  0.14700094176E+02  0.00000000000E+00 0.  1.
         14    1    4    4    0    0  0.23753991054E+02 -0.57242267812E+02  0.10598573218E+03  0.12277583126E+03  0.00000000000E+00 0. -1.
         -5    1    5    5    0  501 -0.13985497413E+01  0.18524316377E+02 -0.18547267837E+02  0.26668284213E+02  0.47000000000E+01 0.  1.
         11    1    6    6    0    0  0.61021401976E+02 -0.23500636202E+02  0.10695337955E+03  0.12535915123E+03  0.00000000000E+00 0. -1.
        -12    1    6    6    0    0 -0.18048194038E+02  0.16870973351E+02  0.12696818914E+03  0.12934948049E+03  0.00000000000E+00 0.  1.
</event>
<event>
12    1  0.1345781E-002  0.1796332E+03  0.7818608E-02  0.1168158E+00
          2   -1    0    0  502    0  0.00000000000E+00  0.00000000000E+00  0.21818361938E+03  0.21818361938E+03  0.00000000000E+00 0. -1.
         -2   -1    0    0    0  501 -0.00000000000E+00 -0.00000000000E+00 -0.14794655556E+03  0.14794655556E+03  0.00000000000E+00 0.  1.
          6    2    1    2  502    0  0.28374339420E+02  0.38060628040E+02  0.31614167544E+02  0.18181776507E+03  0.17263988404E+03 0.  0.
         24    2    3    3    0    0  0.33517543235E+02  0.67874384407E+02 -0.28987502226E+02  0.11392104207E+03  0.80046054112E+02 0.  0.
         -6    2    1    2    0  501 -0.28374339420E+02 -0.38060628040E+02  0.38622896281E+02  0.18431240987E+03  0.17385517470E+03 0.  0.
        -24    2    5    5    0    0  0.30030482013E+02 -0.19036407266E+02 -0.31544572961E+02  0.90938923900E+02  0.77528144213E+02 0.  0.
          5    1    3    3  502    0 -0.51432038154E+01 -0.29813756367E+02  0.60601669769E+02  0.67896722992E+02  0.47000000000E+01 0. -1.
        -13    1    4    4    0    0  0.60127512279E+02  0.45509501530E+02 -0.20206438354E+02  0.78068768488E+02  0.00000000000E+00 0.  1.
         14    1    4    4    0    0 -0.26609969043E+02  0.22364882878E+02 -0.87810638717E+01  0.35852273587E+02  0.00000000000E+00 0. -1.
         -5    1    5    5    0  501 -0.58404821433E+02 -0.19024220774E+02  0.70167469242E+02  0.93373485972E+02  0.47000000000E+01 0.  1.
         11    1    6    6    0    0 -0.15473494822E+02  0.29832369243E+01  0.15340264042E+02  0.21992099615E+02  0.00000000000E+00 0. -1.
        -12    1    6    6    0    0  0.45503976836E+02 -0.22019644190E+02 -0.46884837004E+02  0.68946824285E+02  0.00000000000E+00 0.  1.
</event>
<event>
12    1  0.1345781E-002  0.2424265E+03  0.7818608E-02  0.1118187E+00
          1   -1    0    0  502    0  0.00000000000E+00  0.00000000000E+00  0.22194547330E+04  0.22194547330E+04  0.00000000000E+00 0.  1.
         -1   -1    0    0    0  501 -0.00000000000E+00 -0.00000000000E+00 -0.29007000968E+02  0.29007000968E+02  0.00000000000E+00 0. -1.
          6    2    1    2  502    0  0.62398153100E+02  0.15328114772E+03  0.78773038472E+03  0.82589043389E+03  0.18489783672E+03 0.  0.
         24    2    3    3    0    0  0.10955130379E+03  0.10310272422E+03  0.44509097223E+03  0.47636911724E+03  0.78675932722E+02 0.  0.
         -6    2    1    2    0  501 -0.62398153100E+02 -0.15328114772E+03  0.14027173473E+04  0.14225713001E+04  0.16942404669E+03 0.  0.
        -24    2    5    5    0    0 -0.99986182794E+02 -0.13010061725E+03  0.12577809618E+04  0.12709835604E+04  0.80391887872E+02 0.  0.
          5    1    3    3  502    0 -0.47153150693E+02  0.50178423499E+02  0.34263941249E+03  0.34952131665E+03  0.47000000000E+01 0. -1.
        -13    1    4    4    0    0  0.54322416280E+01  0.47535503489E+02  0.17892351412E+03  0.18521003549E+03  0.00000000000E+00 0.  1.
         14    1    4    4    0    0  0.10411906217E+03  0.55567220736E+02  0.26616745812E+03  0.29115908175E+03  0.00000000000E+00 0. -1.
         -5    1    5    5    0  501  0.37588029694E+02 -0.23180530471E+02  0.14493638555E+03  0.15158773969E+03  0.47000000000E+01 0.  1.
         11    1    6    6    0    0 -0.25185242204E+01 -0.51066678448E+01  0.34080106850E+01  0.66359292910E+01  0.00000000000E+00 0. -1.
        -12    1    6    6    0    0 -0.97467658574E+02 -0.12499394941E+03  0.12543729511E+04  0.12643476311E+04  0.00000000000E+00 0.  1.
</event>
<event>
12    1  0.1345781E-002  0.2088380E+03  0.7818608E-02  0.1142490E+00
         -2   -1    0    0    0  501 -0.00000000000E+00  0.00000000000E+00  0.60590712627E+02  0.60590712627E+02  0.00000000000E+00 0. -1.
          2   -1    0    0  502    0  0.00000000000E+00 -0.00000000000E+00 -0.72175847113E+03  0.72175847113E+03  0.00000000000E+00 0.  1.
          6    2    1    2  502    0 -0.75948612963E+02 -0.90015827458E+02 -0.31129703995E+03  0.37522793016E+03  0.17326024207E+03 0.  0.
         24    2    3    3    0    0 -0.81208934727E+02  0.13709973638E+01 -0.21568059884E+03  0.24277485716E+03  0.76319983215E+02 0.  0.
         -6    2    1    2    0  501  0.75948612963E+02  0.90015827458E+02 -0.34987071855E+03  0.40712125360E+03  0.17165999659E+03 0.  0.
        -24    2    5    5    0    0 -0.14026355216E+02  0.73283285598E+02 -0.13553824297E+03  0.17402047509E+03  0.79657591308E+02 0.  0.
          5    1    3    3  502    0  0.52603217637E+01 -0.91386824822E+02 -0.95616441112E+02  0.13245307300E+03  0.47000000000E+01 0. -1.
        -11    1    4    4    0    0 -0.20672520279E+02  0.28362963899E+02 -0.31978047023E+02  0.47480588741E+02  0.00000000000E+00 0.  1.
         12    1    4    4    0    0 -0.60536414448E+02 -0.26991966535E+02 -0.18370255182E+03  0.19529426842E+03  0.00000000000E+00 0. -1.
         -5    1    5    5    0  501  0.89974968179E+02  0.16732541860E+02 -0.21433247558E+03  0.23310077852E+03  0.47000000000E+01 0.  1.
         13    1    6    6    0    0 -0.19293109726E+02 -0.12379722374E+02 -0.22800648810E+02  0.32331891301E+02  0.00000000000E+00 0. -1.
        -14    1    6    6    0    0  0.52667545102E+01  0.85663007972E+02 -0.11273759416E+03  0.14168858379E+03  0.00000000000E+00 0.  1.
</event>
<event>
12    1  0.1345781E-002  0.1796795E+03  0.7818608E-02  0.1168114E+00
         -2   -1    0    0    0  501 -0.00000000000E+00  0.00000000000E+00  0.21156293662E+02  0.21156293662E+02  0.00000000000E+00 0.  1.
          2   -1    0    0  502    0  0.00000000000E+00 -0.00000000000E+00 -0.18211834444E+04  0.18211834444E+04  0.00000000000E+00 0. -1.
          6    2    1    2  502    0  0.38450511006E+02  0.31476795815E+02 -0.52926831513E+03  0.55894439568E+03  0.17269816904E+03 0.  0.
         24    2    3    3    0    0  0.53565644362E+02  0.45814048879E+02 -0.17844848040E+03  0.20747509329E+03  0.78954726574E+02 0.  0.
         -6    2    1    2    0  501 -0.38450511006E+02 -0.31476795815E+02 -0.12707588356E+04  0.12833953423E+04  0.17264517398E+03 0.  0.
        -24    2    5    5    0    0 -0.30954616630E+02 -0.61874989145E+02 -0.12114128841E+04  0.12161326443E+04  0.81674538414E+02 0.  0.
          5    1    3    3  502    0 -0.15115133356E+02 -0.14337253064E+02 -0.35081983473E+03  0.35146930239E+03  0.47000000000E+01 0. -1.
        -11    1    4    4    0    0  0.73710394112E+01 -0.20358984050E+02 -0.19172109092E+02  0.28920411833E+02  0.00000000000E+00 0.  1.
         12    1    4    4    0    0  0.46194604951E+02  0.66173032929E+02 -0.15927637131E+03  0.17855468146E+03  0.00000000000E+00 0. -1.
         -5    1    5    5    0  501 -0.74958943761E+01  0.30398193330E+02 -0.59345951442E+02  0.67262698004E+02  0.47000000000E+01 0.  1.
         13    1    6    6    0    0 -0.54091915195E+02 -0.62804116506E+02 -0.87188129177E+03  0.87581235392E+03  0.00000000000E+00 0. -1.
        -14    1    6    6    0    0  0.23137298565E+02  0.92912736034E+00 -0.33953159236E+03  0.34032029042E+03  0.00000000000E+00 0.  1.
</event>
<event>
12    1  0.1345781E-002  0.1799504E+03  0.7818608E-02  0.1167851E+00
          1   -1    0    0  502    0  0.00000000000E+00  0.00000000000E+00  0.51061668555E+03  0.51061668555E+03  0.00000000000E+00 0.  1.
         -1   -1    0    0    0  501 -0.00000000000E+00 -0.00000000000E+00 -0.66711219175E+02  0.66711219175E+02  0.00000000000E+00 0. -1.
          6    2    1    2  502    0 -0.49510629850E+02 -0.12744233755E+02  0.15851336495E+03  0.24025372488E+03  0.17315209353E+03 0.  0.
         24    2    3    3    0    0  0.31647958779E+02  0.11770774221E+01  0.12870284068E+03  0.15255380031E+03  0.75533184654E+02 0.  0.
         -6    2    1    2    0  501  0.49510629850E+02  0.12744233755E+02  0.28539210143E+03  0.33707417984E+03  0.17192042693E+03 0.  0.
        -24    2    5    5    0    0  0.90360095713E+01  0.71555765518E+02  0.18338824456E+03  0.21247936466E+03  0.79462916591E+02 0.  0.
          5    1    3    3  502    0 -0.81158588629E+02 -0.13921311177E+02  0.29810524265E+02  0.87699924573E+02  0.47000000000E+01 0. -1.
        -13    1    4    4    0    0  0.50840314554E+02 -0.13894690994E+02  0.61151732183E+02  0.80730009109E+02  0.00000000000E+00 0.  1.
         14    1    4    4    0    0 -0.19192355775E+02  0.15071768416E+02  0.67551108498E+02  0.71823791203E+02  0.00000000000E+00 0. -1.
         -5    1    5    5    0  501  0.40474620279E+02 -0.58811531762E+02  0.10200385687E+03  0.12459481518E+03  0.47000000000E+01 0.  1.
         11    1    6    6    0    0 -0.28621572761E+02  0.15379275857E+02  0.27553134102E+02  0.42601546357E+02  0.00000000000E+00 0. -1.
        -12    1    6    6    0    0  0.37657582332E+02  0.56176489661E+02  0.15583511046E+03  0.16987781830E+03  0.00000000000E+00 0.  1.
</event>
<event>
12    1  0.1345781E-002  0.1967830E+03  0.7818608E-02  0.1152482E+00
         -2   -1    0    0    0  501 -0.00000000000E+00  0.00000000000E+00  0.53737943951E+03  0.53737943951E+03  0.00000000000E+00 0.  1.
          2   -1    0    0  502    0  0.00000000000E+00 -0.00000000000E+00 -0.72107354671E+02  0.72107354671E+02  0.00000000000E+00 0. -1.
          6    2    1    2  502    0 -0.30867699195E+02 -0.92139166072E+02  0.24131807992E+03  0.31190511737E+03  0.17206959571E+03 0.  0.
         24    2    3    3    0    0 -0.72185674063E+02 -0.72262309965E+02  0.22962626965E+03  0.26435458758E+03  0.81990921956E+02 0.  0.
         -6    2    1    2    0  501  0.30867699195E+02  0.92139166072E+02  0.22395400492E+03  0.29758167681E+03  0.17016761523E+03 0.  0.
        -24    2    5    5    0    0  0.40800456409E+02  0.10345774979E+03  0.91538577249E+02  0.16422986584E+03  0.78892043163E+02 0.  0.
          5    1    3    3  502    0  0.41317974868E+02 -0.19876856106E+02  0.11691810276E+02  0.47550529791E+02  0.47000000000E+01 0. -1.
        -13    1    4    4    0    0 -0.45300009902E+02 -0.84302890069E+02  0.20390431572E+03  0.22524661627E+03  0.00000000000E+00 0.  1.
         14    1    4    4    0    0 -0.26885664161E+02  0.12040580103E+02  0.25721953927E+02  0.39107971315E+02  0.00000000000E+00 0. -1.
         -5    1    5    5    0  501 -0.99327572142E+01 -0.11318583719E+02  0.13241542767E+03  0.13335181097E+03  0.47000000000E+01 0.  1.
         13    1    6    6    0    0  0.35697732746E+02  0.19278809938E+02  0.11196646496E+01  0.40586380533E+02  0.00000000000E+00 0. -1.
        -14    1    6    6    0    0  0.51027236635E+01  0.84178939852E+02  0.90418912599E+02  0.12364348531E+03  0.00000000000E+00 0.  1.
</event>
<event>
12    1  0.1345781E-002  0.2777526E+03  0.7818608E-02  0.1096923E+00
         -1   -1    0    0    0  501 -0.00000000000E+00  0.00000000000E+00  0.44871855303E+02  0.44871855303E+02  0.00000000000E+00 0.  1.
          1   -1    0    0  502    0  0.00000000000E+00 -0.00000000000E+00 -0.20468843485E+04  0.20468843485E+04  0.00000000000E+00 0. -1.
          6    2    1    2  502    0 -0.20812006711E+03  0.64092792645E+02 -0.58315699463E+03  0.64600678162E+03  0.17271604766E+03 0.  0.
         24    2    3    3    0    0 -0.92638089992E+02  0.96798933747E+02 -0.29815485269E+03  0.33672682816E+03  0.80850425656E+02 0.  0.
         -6    2    1    2    0  501  0.20812006711E+03 -0.64092792645E+02 -0.14188554986E+04  0.14457494222E+04  0.17210060286E+03 0.  0.
        -24    2    5    5    0    0  0.72451768220E+02 -0.24933618754E+02 -0.34556352036E+03  0.36319822768E+03  0.81411681735E+02 0.  0.
          5    1    3    3  502    0 -0.11548197712E+03 -0.32706141102E+02 -0.28500214194E+03  0.30927995347E+03  0.47000000000E+01 0. -1.
        -11    1    4    4    0    0 -0.25485024355E+02  0.79538892252E+02 -0.19818654838E+03  0.21506703561E+03  0.00000000000E+00 0.  1.
         12    1    4    4    0    0 -0.67153065637E+02  0.17260041495E+02 -0.99968304303E+02  0.12165979254E+03  0.00000000000E+00 0. -1.
         -5    1    5    5    0  501  0.13566829889E+03 -0.39159173890E+02 -0.10732919782E+04  0.10825511945E+04  0.47000000000E+01 0.  1.
         11    1    6    6    0    0 -0.62131266836E+01 -0.30928043163E+02 -0.12607148482E+03  0.12995832441E+03  0.00000000000E+00 0. -1.
        -12    1    6    6    0    0  0.78664894904E+02  0.59944244089E+01 -0.21949203554E+03  0.23323990327E+03  0.00000000000E+00 0.  1.
</event>
<event>
12    1  0.1345781E-002  0.1989024E+03  0.7818608E-02  0.1150668E+00
         -3   -1    0    0    0  501 -0.00000000000E+00  0.00000000000E+00  0.49935744050E+02  0.49935744050E+02  0.00000000000E+00 0.  1.
          3   -1    0    0  502    0  0.00000000000E+00 -0.00000000000E+00 -0.79258752608E+03  0.79258752608E+03  0.00000000000E+00 0. -1.
          6    2    1    2  502    0  0.80619413492E+02  0.58369052410E+02 -0.36234661714E+03  0.41323241847E+03  0.17192883590E+03 0.  0.
         24    2    3    3    0    0  0.55661775624E+02  0.10491612958E+03 -0.29036893518E+03  0.32383224632E+03  0.80296810181E+02 0.  0.
         -6    2    1    2    0  501 -0.80619413492E+02 -0.58369052410E+02 -0.38030516489E+03  0.42929085165E+03  0.17248820470E+03 0.  0.
        -24    2    5    5    0    0 -0.99494759511E+02 -0.93993205808E+02 -0.28031768327E+03  0.32137910312E+03  0.77282562428E+02 0.  0.
          5    1    3    3  502    0  0.24957637868E+02 -0.46547077174E+02 -0.71977681963E+02  0.89400172160E+02  0.47000000000E+01 0. -1.
        -11    1    4    4    0    0  0.47299935604E+02  0.32870709631E+02 -0.63882207483E+02  0.86015718870E+02  0.00000000000E+00 0.  1.
         12    1    4    4    0    0  0.83618400199E+01  0.72045419953E+02 -0.22648672769E+03  0.23781652745E+03  0.00000000000E+00 0. -1.
         -5    1    5    5    0  501  0.18875346019E+02  0.35624153398E+02 -0.99987481612E+02  0.10791174853E+03  0.47000000000E+01 0.  1.
         13    1    6    6    0    0 -0.68066198857E+02 -0.11775366689E+02 -0.11800697913E+03  0.13673812128E+03  0.00000000000E+00 0. -1.
        -14    1    6    6    0    0 -0.31428560655E+02 -0.82217839119E+02 -0.16231070414E+03  0.18464098184E+03  0.00000000000E+00 0.  1.
</event>
<event>
12    1  0.1345781E-002  0.2755329E+03  0.7818608E-02  0.1098154E+00
          2   -1    0    0  502    0  0.00000000000E+00  0.00000000000E+00  0.47734229915E+03  0.47734229915E+03  0.00000000000E+00 0. -1.
         -2   -1    0    0    0  501 -0.00000000000E+00 -0.00000000000E+00 -0.17466993847E+03  0.17466993847E+03  0.00000000000E+00 0.  1.
          6    2    1    2  502    0 -0.20625362227E+03 -0.61575529487E+02  0.53756945150E+02  0.28058851812E+03  0.17177894172E+03 0.  0.
         24    2    3    3    0    0 -0.12851568899E+03  0.11896108891E+02  0.78687205248E+02  0.17065728605E+03  0.79211320456E+02 0.  0.
         -6    2    1    2    0  501  0.20625362227E+03  0.61575529487E+02  0.24891541553E+03  0.37142371950E+03  0.17223412203E+03 0.  0.
        -24    2    5    5    0    0  0.10916027165E+03  0.10238840993E+03  0.15997801950E+03  0.23349344597E+03  0.80789053668E+02 0.  0.
          5    1    3    3  502    0 -0.77737933278E+02 -0.73471638377E+02 -0.24930260098E+02  0.10993123207E+03  0.47000000000E+01 0. -1.
        -13    1    4    4    0    0 -0.56125568117E+02  0.37915748997E+02  0.62256902104E+02  0.91997854747E+02  0.00000000000E+00 0.  1.
         14    1    4    4    0    0 -0.72390120871E+02 -0.26019640107E+02  0.16430303144E+02  0.78659431299E+02  0.00000000000E+00 0. -1.
         -5    1    5    5    0  501  0.97093350619E+02 -0.40812880445E+02  0.88937396027E+02  0.13793027353E+03  0.47000000000E+01 0.  1.
         13    1    6    6    0    0  0.36801703376E+02  0.62436520348E+02  0.27850721344E+02  0.77642431208E+02  0.00000000000E+00 0. -1.
        -14    1    6    6    0    0  0.72358568272E+02  0.39951889583E+02  0.13212729816E+03  0.15585101476E+03  0.00000000000E+00 0.  1.
</event>
<event>
12    1  0.1345781E-002  0.2120833E+03  0.7818608E-02  0.1139927E+00
          2   -1    0    0  502    0  0.00000000000E+00  0.00000000000E+00  0.38390501377E+03  0.38390501377E+03  0.00000000000E+00 0. -1.
         -2   -1    0    0    0  501 -0.00000000000E+00 -0.00000000000E+00 -0.12348574498E+03  0.12348574498E+03  0.00000000000E+00 0.  1.
          6    2    1    2  502    0  0.24465908437E+02  0.11947436141E+03  0.73246074602E+02  0.22508594671E+03  0.17443047971E+03 0.  0.
         24    2    3    3    0    0  0.28183118998E+02 -0.73232090880E+01  0.29791676942E+02  0.90915099596E+02  0.80808995365E+02 0.  0.
         -6    2    1    2    0  501 -0.24465908437E+02 -0.11947436141E+03  0.18717319419E+03  0.28230481204E+03  0.17259634575E+03 0.  0.
        -24    2    5    5    0    0 -0.15781738260E+02 -0.22839528666E+02  0.18948259720E+02  0.88048732883E+02  0.81380805376E+02 0.  0.
          5    1    3    3  502    0 -0.37172105606E+01  0.12679757050E+03  0.43454397661E+02  0.13417084712E+03  0.47000000000E+01 0. -1.
        -11    1    4    4    0    0 -0.26741764857E+02 -0.14079879378E+02  0.67243392625E+01  0.30960971069E+02  0.00000000000E+00 0.  1.
         12    1    4    4    0    0  0.54924883855E+02  0.67566702903E+01  0.23067337679E+02  0.59954128528E+02  0.00000000000E+00 0. -1.
         -5    1    5    5    0  501 -0.86841701768E+01 -0.96634832749E+02  0.16822493447E+03  0.19425607916E+03  0.47000000000E+01 0.  1.
         11    1    6    6    0    0 -0.14511602648E+02 -0.45852392613E+01  0.49857876172E+02  0.52128867692E+02  0.00000000000E+00 0. -1.
        -12    1    6    6    0    0 -0.12701356122E+01 -0.18254289404E+02 -0.30909616452E+02  0.35919865191E+02  0.00000000000E+00 0.  1.
</event>
<event>
12    1  0.1345781E-002  0.2074345E+03  0.7818608E-02  0.1143614E+00
         -2   -1    0    0    0  501 -0.00000000000E+00  0.00000000000E+00  0.61202285659E+02  0.61202285659E+02  0.00000000000E+00 0. -1.
          2   -1    0    0  502    0  0.00000000000E+00 -0.00000000000E+00 -0.70368714520E+03  0.70368714520E+03  0.00000000000E+00 0.  1.
          6    2    1    2  502    0 -0.10921939730E+03  0.13383477068E+02 -0.33559711957E+03  0.39725270114E+03  0.18186887500E+03 0.  0.
         24    2    3    3    0    0 -0.33459269606E+02  0.43144029859E+02 -0.28504589253E+03  0.30132145490E+03  0.81009433411E+02 0.  0.
         -6    2    1    2    0  501  0.10921939730E+03 -0.13383477068E+02 -0.30688773997E+03  0.36763672972E+03  0.16990787471E+03 0.  0.
        -24    2    5    5    0    0  0.25748111339E+01  0.21157655898E+02 -0.17909116692E+03  0.19757729391E+03  0.80677536803E+02 0.  0.
          5    1    3    3  502    0 -0.75760127690E+02 -0.29760552791E+02 -0.50551227049E+02  0.95931246245E+02  0.47000000000E+01 0. -1.
        -11    1    4    4    0    0 -0.52046188020E+02  0.79865768075E+01 -0.11193563605E+03  0.12370197134E+03  0.00000000000E+00 0.  1.
         12    1    4    4    0    0  0.18586918414E+02  0.35157453052E+02 -0.17311025648E+03  0.17761948356E+03  0.00000000000E+00 0. -1.
         -5    1    5    5    0  501  0.10664458616E+03 -0.34541132967E+02 -0.12779657305E+03  0.17005943581E+03  0.47000000000E+01 0.  1.
         11    1    6    6    0    0  0.20850272847E+02  0.31653335879E+01 -0.50879133004E+01  0.21694240625E+02  0.00000000000E+00 0. -1.
        -12    1    6    6    0    0 -0.18275461713E+02  0.17992322311E+02 -0.17400325361E+03  0.17588305328E+03  0.00000000000E+00 0.  1.
</event>
<event>
12    1  0.1345781E-002  0.2245899E+03  0.7818608E-02  0.1130507E+00
          3   -1    0    0  502    0  0.00000000000E+00  0.00000000000E+00  0.32518282917E+03  0.32518282917E+03  0.00000000000E+00 0. -1.
         -3   -1    0    0    0  501 -0.00000000000E+00 -0.00000000000E+00 -0.16697331647E+03  0.16697331647E+03  0.00000000000E+00 0.  1.
          6    2    1    2  502    0 -0.12312579961E+03 -0.75806897784E+02  0.13404195403E+02  0.22461630165E+03  0.17136558064E+03 0.  0.
         24    2    3    3    0    0 -0.29584328524E+02  0.16652426139E+02 -0.16698491676E+02  0.89608912357E+02  0.81230423851E+02 0.  0.
         -6    2    1    2    0  501  0.12312579961E+03  0.75806897784E+02  0.14480531729E+03  0.26753984399E+03  0.17234366807E+03 0.  0.
        -24    2    5    5    0    0  0.84763972103E+02  0.22724310683E+02  0.15817518112E+03  0.20053063476E+03  0.86555313491E+02 0.  0.
          5    1    3    3  502    0 -0.93541471086E+02 -0.92459323924E+02  0.30102687080E+02  0.13500738929E+03  0.47000000000E+01 0. -1.
        -11    1    4    4    0    0 -0.50945140793E+02  0.24865683293E+02 -0.28946344332E+02  0.63652183201E+02  0.00000000000E+00 0.  1.
         12    1    4    4    0    0  0.21360812269E+02 -0.82132571537E+01  0.12247852655E+02  0.25956729157E+02  0.00000000000E+00 0. -1.
         -5    1    5    5    0  501  0.38361827508E+02  0.53082587101E+02 -0.13369863822E+02  0.67009209230E+02  0.47000000000E+01 0.  1.
         13    1    6    6    0    0  0.61854485925E+02  0.52555304123E+02  0.13107761689E+03  0.15417321126E+03  0.00000000000E+00 0. -1.
        -14    1    6    6    0    0  0.22909486177E+02 -0.29830993440E+02  0.27097564222E+02  0.46357423497E+02  0.00000000000E+00 0.  1.
</event>
<event>
12    1  0.1345781E-002  0.1805280E+03  0.7818608E-02  0.1167293E+00
         -2   -1    0    0    0  501 -0.00000000000E+00  0.00000000000E+00  0.16883094162E+02  0.16883094162E+02  0.00000000000E+00 0.  1.
          2   -1    0    0  502    0  0.00000000000E+00 -0.00000000000E+00 -0.30022224766E+04  0.30022224766E+04  0.00000000000E+00 0. -1.
          6    2    1    2  502    0  0.56467288803E+02 -0.32739488839E+01 -0.59039832284E+03  0.61736604575E+03  0.17138080811E+03 0.  0.
         24    2    3    3    0    0  0.40202080354E+02  0.25893497058E+02 -0.15654834217E+03  0.18220723263E+03  0.80033816181E+02 0.  0.
         -6    2    1    2    0  501 -0.56467288803E+02  0.32739488839E+01 -0.23949410596E+04  0.24017395250E+04  0.17149575388E+03 0.  0.
        -24    2    5    5    0    0  0.66810855434E+01  0.50392762573E+02 -0.16575360886E+04  0.16601223185E+04  0.77434874830E+02 0.  0.
          5    1    3    3  502    0  0.16265208449E+02 -0.29167445942E+02 -0.43384998067E+03  0.43515881312E+03  0.47000000000E+01 0. -1.
        -11    1    4    4    0    0  0.52893727788E+02  0.42247734170E+02 -0.14069283856E+03  0.15613165055E+03  0.00000000000E+00 0.  1.
         12    1    4    4    0    0 -0.12691647434E+02 -0.16354237112E+02 -0.15855503610E+02  0.26075582081E+02  0.00000000000E+00 0. -1.
         -5    1    5    5    0  501 -0.63148374347E+02 -0.47118813689E+02 -0.73740497099E+03  0.74161720654E+03  0.47000000000E+01 0.  1.
         13    1    6    6    0    0  0.22839251405E+02 -0.69429289780E+01 -0.87366721305E+03  0.87399326932E+03  0.00000000000E+00 0. -1.
        -14    1    6    6    0    0 -0.16158165862E+02  0.57335691551E+02 -0.78386887558E+03  0.78612904917E+03  0.00000000000E+00 0.  1.
</event>
<event>
12    1  0.1345781E-002  0.1830392E+03  0.7818608E-02  0.1164894E+00
          2   -1    0    0  502    0  0.00000000000E+00  0.00000000000E+00  0.17362734761E+04  0.17362734761E+04  0.00000000000E+00 0.  1.
         -2   -1    0    0    0  501 -0.00000000000E+00 -0.00000000000E+00 -0.29742886432E+02  0.29742886432E+02  0.00000000000E+00 0. -1.
          6    2    1    2  502    0 -0.23465805138E+02  0.60595920613E+02  0.33094592172E+03  0.37835057928E+03  0.17146850477E+03 0.  0.
         24    2    3    3    0    0 -0.75395739982E+02  0.50986135883E+02  0.16845823086E+03  0.20743128318E+03  0.79783820659E+02 0.  0.
         -6    2    1    2    0  501  0.23465805138E+02 -0.60595920613E+02  0.13755846679E+04  0.13876657832E+04  0.17076486091E+03 0.  0.
        -24    2    5    5    0    0  0.38634383224E+02  0.11958619558E+01  0.36139398377E+03  0.37147035715E+03  0.76750042917E+02 0.  0.
          5    1    3    3  502    0  0.51929934844E+02  0.96097847305E+01  0.16248769086E+03  0.17091929609E+03  0.47000000000E+01 0. -1.
        -13    1    4    4    0    0 -0.73579733502E+02  0.18969545103E+02  0.15505921187E+03  0.17267651841E+03  0.00000000000E+00 0.  1.
         14    1    4    4    0    0 -0.18160064807E+01  0.32016590780E+02  0.13399018988E+02  0.34754764775E+02  0.00000000000E+00 0. -1.
         -5    1    5    5    0  501 -0.15168578086E+02 -0.61791782569E+02  0.10141906842E+04  0.10161954261E+04  0.47000000000E+01 0.  1.
         13    1    6    6    0    0  0.60038367600E+02  0.12873461375E+02  0.24855971161E+03  0.25603175941E+03  0.00000000000E+00 0. -1.
        -14    1    6    6    0    0 -0.21403984376E+02 -0.11677599419E+02  0.11283427216E+03  0.11543859774E+03  0.00000000000E+00 0.  1.
</event>
<event>
12    1  0.1345781E-002  0.2186358E+03  0.7818608E-02  0.1134904E+00
         -1   -1    0    0    0  501 -0.00000000000E+00  0.00000000000E+00  0.95309752755E+02  0.95309752755E+02  0.00000000000E+00 0.  1.
          1   -1    0    0  502    0  0.00000000000E+00 -0.00000000000E+00 -0.55598334399E+03  0.55598334399E+03  0.00000000000E+00 0. -1.
          6    2    1    2  502    0 -0.87886550596E+02  0.10055612429E+03 -0.12935910467E+03  0.25487000737E+03  0.17432545077E+03 0.  0.
         24    2    3    3    0    0  0.93844173515E+01  0.77771178048E+02 -0.10099149546E+03  0.15091036985E+03  0.80238607595E+02 0.  0.
         -6    2    1    2    0  501  0.87886550596E+02 -0.10055612429E+03 -0.33131448656E+03  0.39642308938E+03  0.17189065383E+03 0.  0.
        -24    2    5    5    0    0  0.11278342420E+03 -0.11432603213E+03 -0.31688967092E+03  0.36417979575E+03  0.80108162506E+02 0.  0.
          5    1    3    3  502    0 -0.97270967948E+02  0.22784946244E+02 -0.28367609211E+02  0.10395963752E+03  0.47000000000E+01 0. -1.
        -13    1    4    4    0    0  0.27972176220E+01  0.71799000068E+02 -0.27583788082E+02  0.76966136723E+02  0.00000000000E+00 0.  1.
         14    1    4    4    0    0  0.65871997295E+01  0.59721779804E+01 -0.73407707378E+02  0.73944233126E+02  0.00000000000E+00 0. -1.
         -5    1    5    5    0  501 -0.24896873608E+02  0.13769907839E+02 -0.14424815642E+02  0.32243293623E+02  0.47000000000E+01 0.  1.
         13    1    6    6    0    0  0.30026063212E+02 -0.71516638029E+02 -0.20121299812E+03  0.21564522856E+03  0.00000000000E+00 0. -1.
        -14    1    6    6    0    0  0.82757360991E+02 -0.42809394102E+02 -0.11567667280E+03  0.14853456720E+03  0.00000000000E+00 0.  1.
</event>
<event>
12    1  0.1345781E-002  0.1933910E+03  0.7818608E-02  0.1155438E+00
         -2   -1    0    0    0  501 -0.00000000000E+00  0.00000000000E+00  0.34311654480E+02  0.34311654480E+02  0.00000000000E+00 0. -1.
          2   -1    0    0  502    0  0.00000000000E+00 -0.00000000000E+00 -0.13855699485E+04  0.13855699485E+04  0.00000000000E+00 0.  1.
          6    2    1    2  502    0 -0.91150741783E+02 -0.23317880562E+02 -0.35441941233E+03  0.40490636936E+03  0.17170866848E+03 0.  0.
         24    2    3    3    0    0 -0.39075320678E+02  0.29021111709E+02 -0.29699778915E+03  0.31125514191E+03  0.79391252624E+02 0.  0.
         -6    2    1    2    0  501  0.91150741783E+02  0.23317880562E+02 -0.99683888172E+03  0.10149752336E+04  0.16623714245E+03 0.  0.
        -24    2    5    5    0    0 -0.49212010332E+01  0.70918099996E+01 -0.36097748944E+03  0.37167522296E+03  0.88109088575E+02 0.  0.
          5    1    3    3  502    0 -0.52075421105E+02 -0.52338992271E+02 -0.57421623185E+02  0.93651227458E+02  0.47000000000E+01 0. -1.
        -13    1    4    4    0    0 -0.40722482244E+02 -0.17546727641E+02 -0.17849269088E+03  0.18391804944E+03  0.00000000000E+00 0.  1.
         14    1    4    4    0    0  0.16471615657E+01  0.46567839350E+02 -0.11850509826E+03  0.12733709247E+03  0.00000000000E+00 0. -1.
         -5    1    5    5    0  501  0.96071942817E+02  0.16226070562E+02 -0.63586139227E+03  0.64330001069E+03  0.47000000000E+01 0.  1.
         11    1    6    6    0    0  0.79868762693E+01 -0.11547064916E+02 -0.34149122841E+03  0.34177973021E+03  0.00000000000E+00 0. -1.
        -12    1    6    6    0    0 -0.12908077302E+02  0.18638874916E+02 -0.19486261031E+02  0.29895492750E+02  0.00000000000E+00 0.  1.
</event>
<event>
12    1  0.1345781E-002  0.1613422E+03  0.7818608E-02  0.1187190E+00
          2   -1    0    0  502    0  0.00000000000E+00  0.00000000000E+00  0.87124823955E+03  0.87124823955E+03  0.00000000000E+00 0.  1.
         -2   -1    0    0    0  501 -0.00000000000E+00 -0.00000000000E+00 -0.35075389816E+02  0.35075389816E+02  0.00000000000E+00 0. -1.
          6    2    1    2  502    0  0.94255812364E+01  0.12536343795E+02  0.61438698906E+03  0.63823836139E+03  0.17213608607E+03 0.  0.
         24    2    3    3    0    0 -0.35018060810E+02  0.41874561869E+02  0.52596934458E+03  0.53491489739E+03  0.80687375069E+02 0.  0.
         -6    2    1    2    0  501 -0.94255812364E+01 -0.12536343795E+02  0.22178586068E+03  0.26808526798E+03  0.14978231342E+03 0.  0.
        -24    2    5    5    0    0  0.24298214566E+02 -0.50968742221E+02  0.16478864699E+03  0.19137075814E+03  0.79241737602E+02 0.  0.
          5    1    3    3  502    0  0.44443642046E+02 -0.29338218074E+02  0.88417644477E+02  0.10332346400E+03  0.47000000000E+01 0. -1.
        -13    1    4    4    0    0 -0.82423941866E+01  0.57674427162E+02  0.22791777725E+03  0.23524623227E+03  0.00000000000E+00 0.  1.
         14    1    4    4    0    0 -0.26775666623E+02 -0.15799865293E+02  0.29805156733E+03  0.29966866512E+03  0.00000000000E+00 0. -1.
         -5    1    5    5    0  501 -0.33723795802E+02  0.38432398426E+02  0.56997213683E+02  0.76714509838E+02  0.47000000000E+01 0.  1.
         11    1    6    6    0    0  0.37660515212E+02  0.65179810893E+01  0.68109174878E+02  0.78100308489E+02  0.00000000000E+00 0. -1.
        -12    1    6    6    0    0 -0.13362300646E+02 -0.57486723310E+02  0.96679472115E+02  0.11327044965E+03  0.00000000000E+00 0.  1.
</event>
<event>
12    1  0.1345781E-002  0.1901552E+03  0.7818608E-02  0.1158321E+00
         -2   -1    0    0    0  501 -0.00000000000E+00  0.00000000000E+00  0.28533619398E+02  0.28533619398E+02  0.00000000000E+00 0. -1.
          2   -1    0    0  502    0  0.00000000000E+00 -0.00000000000E+00 -0.12950533283E+04  0.12950533283E+04  0.00000000000E+00 0.  1.
          6    2    1    2  502    0  0.80272243796E+02 -0.13877420030E+02 -0.54244973094E+03  0.57542433659E+03  0.17385407855E+03 0.  0.
         24    2    3    3    0    0  0.12434868773E+03 -0.15981194643E+02 -0.42556732927E+03  0.45040136030E+03  0.77690661601E+02 0.  0.
         -6    2    1    2    0  501 -0.80272243796E+02  0.13877420030E+02 -0.72406997793E+03  0.74816261108E+03  0.16980501692E+03 0.  0.
        -24    2    5    5    0    0 -0.31609396099E+02 -0.22501263091E+02 -0.18198168686E+03  0.20265982773E+03  0.80300751303E+02 0.  0.
          5    1    3    3  502    0 -0.44076443936E+02  0.21037746127E+01 -0.11688240167E+03  0.12502297628E+03  0.47000000000E+01 0. -1.
        -13    1    4    4    0    0  0.42138478335E+01 -0.19182296026E+02 -0.12774664952E+03  0.12924752786E+03  0.00000000000E+00 0.  1.
         14    1    4    4    0    0  0.12013483990E+03  0.32011013831E+01 -0.29782067975E+03  0.32115383245E+03  0.00000000000E+00 0. -1.
         -5    1    5    5    0  501 -0.48662847696E+02  0.36378683122E+02 -0.54208829107E+03  0.54550278336E+03  0.47000000000E+01 0.  1.
         11    1    6    6    0    0 -0.57701569250E+02 -0.59109556105E+01 -0.12590846730E+03  0.13862666637E+03  0.00000000000E+00 0. -1.
        -12    1    6    6    0    0  0.26092173151E+02 -0.16590307481E+02 -0.56073219563E+02  0.64033161363E+02  0.00000000000E+00 0.  1.
</event>
<event>
12    1  0.1345781E-002  0.1861656E+03  0.7818608E-02  0.1161966E+00
          1   -1    0    0  502    0  0.00000000000E+00  0.00000000000E+00  0.26393167723E+03  0.26393167723E+03  0.00000000000E+00 0. -1.
         -1   -1    0    0    0  501 -0.00000000000E+00 -0.00000000000E+00 -0.15009734249E+03  0.15009734249E+03  0.00000000000E+00 0.  1.
          6    2    1    2  502    0  0.19870954324E+02 -0.65386605538E+02  0.13017103805E+03  0.22722129662E+03  0.17324767092E+03 0.  0.
         24    2    3    3    0    0  0.11838179237E+02 -0.86312442019E+02  0.25106412202E+02  0.11968952591E+03  0.78136230668E+02 0.  0.
         -6    2    1    2    0  501 -0.19870954324E+02  0.65386605538E+02 -0.16336703312E+02  0.18680772311E+03  0.17308949860E+03 0.  0.
        -24    2    5    5    0    0 -0.29136595441E+02 -0.20586522162E+02 -0.40441181965E+02  0.96916974511E+02  0.80527415587E+02 0.  0.
          5    1    3    3  502    0  0.80327750866E+01  0.20925836482E+02  0.10506462585E+03  0.10753177071E+03  0.47000000000E+01 0. -1.
        -11    1    4    4    0    0 -0.10738006972E+02 -0.90787775862E+02  0.29888724225E+02  0.96182435380E+02  0.00000000000E+00 0.  1.
         12    1    4    4    0    0  0.22576186209E+02  0.44753338429E+01 -0.47823120230E+01  0.23507090526E+02  0.00000000000E+00 0. -1.
         -5    1    5    5    0  501  0.92656411171E+01  0.85973127700E+02  0.24104478653E+02  0.89890748595E+02  0.47000000000E+01 0.  1.
         13    1    6    6    0    0  0.41301530251E+01  0.17662918861E+02  0.13712652672E+02  0.22739254825E+02  0.00000000000E+00 0. -1.
        -14    1    6    6    0    0 -0.33266748466E+02 -0.38249441023E+02 -0.54153834636E+02  0.74177719686E+02  0.00000000000E+00 0.  1.
</event>
<event>
12    1  0.1345781E-002  0.2095032E+03  0.7818608E-02  0.1141960E+00
         -1   -1    0    0    0  501 -0.00000000000E+00  0.00000000000E+00  0.99629576899E+02  0.99629576899E+02  0.00000000000E+00 0. -1.
          1   -1    0    0  502    0  0.00000000000E+00 -0.00000000000E+00 -0.45897753184E+03  0.45897753184E+03  0.00000000000E+00 0.  1.
          6    2    1    2  502    0 -0.39517247730E+02 -0.11343543854E+03 -0.23620772077E+03  0.31619386710E+03  0.17249713809E+03 0.  0.
         24    2    3    3    0    0 -0.58929376661E+02 -0.10949327312E+03 -0.25155332101E+03  0.29069977240E+03  0.75933102581E+02 0.  0.
         -6    2    1    2    0  501  0.39517247730E+02  0.11343543854E+03 -0.12314023417E+03  0.24241324165E+03  0.17079651890E+03 0.  0.
        -24    2    5    5    0    0  0.41883665595E+02  0.62294799909E+02 -0.14965253888E+03  0.18456899254E+03  0.77684921796E+02 0.  0.
          5    1    3    3  502    0  0.19412128931E+02 -0.39421654216E+01  0.15345600238E+02  0.25494094699E+02  0.47000000000E+01 0. -1.
        -13    1    4    4    0    0 -0.17615039170E+02 -0.14783369227E+02 -0.12606198538E+03  0.12814234963E+03  0.00000000000E+00 0.  1.
         14    1    4    4    0    0 -0.41314337491E+02 -0.94709903896E+02 -0.12549133563E+03  0.16255742276E+03  0.00000000000E+00 0. -1.
         -5    1    5    5    0  501 -0.23664178648E+01  0.51140638636E+02  0.26512304710E+02  0.57844249106E+02  0.47000000000E+01 0.  1.
         13    1    6    6    0    0  0.26745054352E+02  0.14779058653E+02 -0.42483272557E+01  0.30850717843E+02  0.00000000000E+00 0. -1.
        -14    1    6    6    0    0  0.15138611243E+02  0.47515741256E+02 -0.14540421163E+03  0.15371827470E+03  0.00000000000E+00 0.  1.
</event>
<event>
12    1  0.1345781E-002  0.2458069E+03  0.7818608E-02  0.1115984E+00
          2   -1    0    0  502    0  0.00000000000E+00  0.00000000000E+00  0.18687774763E+03  0.18687774763E+03  0.00000000000E+00 0.  1.
         -2   -1    0    0    0  501 -0.00000000000E+00 -0.00000000000E+00 -0.32382847916E+03  0.32382847916E+03  0.00000000000E+00 0. -1.
          6    2    1    2  502    0 -0.13389505960E+02 -0.17500581359E+03 -0.78739993974E+02  0.25861429852E+03  0.17284401954E+03 0.  0.
         24    2    3    3    0    0  0.12382323820E+01 -0.19986891066E+03 -0.79053616013E+02  0.22938532858E+03  0.80118912235E+02 0.  0.
         -6    2    1    2    0  501  0.13389505960E+02  0.17500581359E+03 -0.58210737558E+02  0.25209192826E+03  0.17133457523E+03 0.  0.
        -24    2    5    5    0    0 -0.19305624448E+02  0.18330225858E+03 -0.78102554347E+02  0.21265112544E+03  0.71750031495E+02 0.  0.
          5    1    3    3  502    0 -0.14627738342E+02  0.24863097070E+02  0.31362203817E+00  0.29228969939E+02  0.47000000000E+01 0. -1.
        -13    1    4    4    0    0  0.27036853006E+02 -0.58019417378E+02  0.18966952568E+01  0.64037814346E+02  0.00000000000E+00 0.  1.
         14    1    4    4    0    0 -0.25798620624E+02 -0.14184949328E+03 -0.80950311269E+02  0.16534751424E+03  0.00000000000E+00 0. -1.
         -5    1    5    5    0  501  0.32695130408E+02 -0.82964449958E+01  0.19891816789E+02  0.39440802820E+02  0.47000000000E+01 0.  1.
         11    1    6    6    0    0 -0.31463834978E+02  0.77233444307E+02 -0.63656490047E+02  0.10491485384E+03  0.00000000000E+00 0. -1.
        -12    1    6    6    0    0  0.12158210531E+02  0.10606881428E+03 -0.14446064300E+02  0.10773627160E+03  0.00000000000E+00 0.  1.
</event>
<event>
12    1  0.1345781E-002  0.2117133E+03  0.7818608E-02  0.1140216E+00
          1   -1    0    0  502    0  0.00000000000E+00  0.00000000000E+00  0.13882649922E+04  0.13882649922E+04  0.00000000000E+00 0. -1.
         -1   -1    0    0    0  501 -0.00000000000E+00 -0.00000000000E+00 -0.36543793525E+02  0.36543793525E+02  0.00000000000E+00 0.  1.
          6    2    1    2  502    0 -0.11483477444E+03 -0.37908029240E+02  0.91989357553E+03  0.94401259144E+03  0.17415951996E+03 0.  0.
         24    2    3    3    0    0 -0.51603458949E+02 -0.89495822516E+02  0.59515247100E+03  0.60914190797E+03  0.78581047889E+02 0.  0.
         -6    2    1    2    0  501  0.11483477444E+03  0.37908029240E+02  0.43182762312E+03  0.48079619426E+03  0.17339504095E+03 0.  0.
        -24    2    5    5    0    0  0.56237200020E+02 -0.38283481120E+02  0.15132883475E+03  0.18424858888E+03  0.80117904898E+02 0.  0.
          5    1    3    3  502    0 -0.63231315493E+02  0.51587793276E+02  0.32474110454E+03  0.33487068347E+03  0.47000000000E+01 0. -1.
        -13    1    4    4    0    0 -0.51230589831E+02 -0.13579879503E+02  0.21052742425E+03  0.21709625244E+03  0.00000000000E+00 0.  1.
         14    1    4    4    0    0 -0.37286911786E+00 -0.75915943014E+02  0.38462504675E+03  0.39204565553E+03  0.00000000000E+00 0. -1.
         -5    1    5    5    0  501  0.58597574421E+02  0.76191510360E+02  0.28049878837E+03  0.29654760538E+03  0.47000000000E+01 0.  1.
         13    1    6    6    0    0 -0.83746262881E+01 -0.35012424518E+02  0.30470150457E+02  0.47163908923E+02  0.00000000000E+00 0. -1.
        -14    1    6    6    0    0  0.64611826308E+02 -0.32710566025E+01  0.12085868429E+03  0.13708467995E+03  0.00000000000E+00 0.  1.
</event>
<event>
12    1  0.1345781E-002  0.2519040E+03  0.7818608E-02  0.1112107E+00
          2   -1    0    0  502    0  0.00000000000E+00  0.00000000000E+00  0.53166696270E+03  0.53166696270E+03  0.00000000000E+00 0.  1.
         -2   -1    0    0    0  501 -0.00000000000E+00 -0.00000000000E+00 -0.12010405509E+03  0.12010405509E+03  0.00000000000E+00 0. -1.
          6    2    1    2  502    0 -0.14772009600E+02 -0.18327868488E+03  0.23215264157E+03  0.34311422783E+03  0.17327214363E+03 0.  0.
         24    2    3    3    0    0  0.39037656161E+02 -0.17582638435E+03  0.17022467270E+03  0.26060253024E+03  0.80612551984E+02 0.  0.
         -6    2    1    2    0  501  0.14772009600E+02  0.18327868488E+03  0.17941026603E+03  0.30865678995E+03  0.17108968943E+03 0.  0.
        -24    2    5    5    0    0  0.38848948193E+02  0.66906710525E+02  0.26472407837E+02  0.11491930299E+03  0.80745954282E+02 0.  0.
          5    1    3    3  502    0 -0.53809665760E+02 -0.74523005259E+01  0.61927968871E+02  0.82511697600E+02  0.47000000000E+01 0. -1.
        -11    1    4    4    0    0  0.39750428337E+02 -0.18443675489E+03  0.16338834850E+03  0.24958518693E+03  0.00000000000E+00 0.  1.
         12    1    4    4    0    0 -0.71277217695E+00  0.86103705404E+01  0.68363241917E+01  0.11017343304E+02  0.00000000000E+00 0. -1.
         -5    1    5    5    0  501 -0.24076938594E+02  0.11637197435E+03  0.15293785820E+03  0.19373748697E+03  0.47000000000E+01 0.  1.
         13    1    6    6    0    0  0.63322154351E+02  0.57453389151E+02  0.22212786905E+02  0.88340223334E+02  0.00000000000E+00 0. -1.
        -14    1    6    6    0    0 -0.24473206158E+02  0.94533213740E+01  0.42596209318E+01  0.26579079651E+02  0.00000000000E+00 0.  1.
</event>
<event>
12    1  0.1345781E-002  0.1840652E+03  0.7818608E-02  0.1163926E+00
          2   -1    0    0  502    0  0.00000000000E+00  0.00000000000E+00  0.41655351091E+03  0.41655351091E+03  0.00000000000E+00 0. -1.
         -2   -1    0    0    0  501 -0.00000000000E+00 -0.00000000000E+00 -0.81986927583E+02  0.81986927583E+02  0.00000000000E+00 0.  1.
          6    2    1    2  502    0  0.14724475259E+02 -0.56999239448E+02  0.14651308545E+03  0.23645898480E+03  0.17601432845E+03 0.  0.
         24    2    3    3    0    0 -0.68267289012E+01  0.28307973249E-01  0.16146006262E+01  0.79187701765E+02  0.78876359873E+02 0.  0.
         -6    2    1    2    0  501 -0.14724475259E+02  0.56999239448E+02  0.18805349788E+03  0.26208145368E+03  0.17279133900E+03 0.  0.
        -24    2    5    5    0    0  0.20922738343E+02 -0.29344846316E+02  0.11101627232E+03  0.14090864690E+03  0.78941453397E+02 0.  0.
          5    1    3    3  502    0  0.21551204161E+02 -0.57027547422E+02  0.14489848482E+03  0.15727128304E+03  0.47000000000E+01 0. -1.
        -11    1    4    4    0    0  0.72545138248E+01 -0.36843220358E+01 -0.37017973523E+02  0.37901616897E+02  0.00000000000E+00 0.  1.
         12    1    4    4    0    0 -0.14081242726E+02  0.37126300091E+01  0.38632574149E+02  0.41286084867E+02  0.00000000000E+00 0. -1.
         -5    1    5    5    0  501 -0.35647213603E+02  0.86344085764E+02  0.77037225554E+02  0.12117280679E+03  0.47000000000E+01 0.  1.
         13    1    6    6    0    0  0.21066701994E+02 -0.72116421649E+01  0.11608560975E+03  0.11820187184E+03  0.00000000000E+00 0. -1.
        -14    1    6    6    0    0 -0.14396365115E+00 -0.22133204151E+02 -0.50693374258E+01  0.22706775056E+02  0.00000000000E+00 0.  1.
</event>
<event>
12    1  0.1345781E-002  0.2117661E+03  0.7818608E-02  0.1140175E+00
         -1   -1    0    0    0  501 -0.00000000000E+00  0.00000000000E+00  0.11181033495E+03  0.11181033495E+03  0.00000000000E+00 0. -1.
          1   -1    0    0  502    0  0.00000000000E+00 -0.00000000000E+00 -0.45548978192E+03  0.45548978192E+03  0.00000000000E+00 0.  1.
          6    2    1    2  502    0  0.12171514434E+03  0.12464332045E+02 -0.74249635766E+02  0.22499003760E+03  0.17360176460E+03 0.  0.
         24    2    3    3    0    0  0.97593972554E+02 -0.26741120177E+02 -0.10802154326E+03  0.16770539614E+03  0.78846528762E+02 0.  0.
         -6    2    1    2    0  501 -0.12171514434E+03 -0.12464332045E+02 -0.26942981120E+03  0.34231007927E+03  0.17208669696E+03 0.  0.
        -24    2    5    5    0    0 -0.15412586398E+03 -0.12580774148E+02 -0.19918672361E+03  0.26480750086E+03  0.80836896396E+02 0.  0.
          5    1    3    3  502    0  0.24121171786E+02  0.39205452223E+02  0.33771907491E+02  0.57284641466E+02  0.47000000000E+01 0. -1.
        -11    1    4    4    0    0  0.73590102491E+02 -0.58240943789E+01 -0.11350417850E+03  0.13539801253E+03  0.00000000000E+00 0.  1.
         12    1    4    4    0    0  0.24003870064E+02 -0.20917025798E+02  0.54826352421E+01  0.32307383606E+02  0.00000000000E+00 0. -1.
         -5    1    5    5    0  501  0.32410719644E+02  0.11644210299E+00 -0.70243087590E+02  0.77502578414E+02  0.47000000000E+01 0.  1.
         13    1    6    6    0    0 -0.70552457587E+02  0.32107762310E+02 -0.11075528110E+03  0.13518613081E+03  0.00000000000E+00 0. -1.
        -14    1    6    6    0    0 -0.83573406397E+02 -0.44688536458E+02 -0.88431442518E+02  0.12962137005E+03  0.00000000000E+00 0.  1.
</event>
<event>
12    1  0.1345781E-002  0.2618488E+03  0.7818608E-02  0.1106038E+00
         -1   -1    0    0    0  501 -0.00000000000E+00  0.00000000000E+00  0.38891284868E+02  0.38891284868E+02  0.00000000000E+00 0. -1.
          1   -1    0    0  502    0  0.00000000000E+00 -0.00000000000E+00 -0.18498739868E+04  0.18498739868E+04  0.00000000000E+00 0.  1.
          6    2    1    2  502    0  0.63644839037E+02  0.18633681086E+03 -0.11091943320E+04  0.11396155076E+04  0.17216087346E+03 0.  0.
         24    2    3    3    0    0  0.10540201676E+03  0.10585026305E+03 -0.79020768658E+03  0.80795858209E+03  0.77814003321E+02 0.  0.
         -6    2    1    2    0  501 -0.63644839037E+02 -0.18633681086E+03 -0.70178836990E+03  0.74914976406E+03  0.17305022463E+03 0.  0.
        -24    2    5    5    0    0 -0.31807734977E+02 -0.18860977043E+03 -0.67901335214E+03  0.70965851219E+03  0.77270266164E+02 0.  0.
          5    1    3    3  502    0 -0.41757177719E+02  0.80486547811E+02 -0.31898664543E+03  0.33165692550E+03  0.47000000000E+01 0. -1.
        -11    1    4    4    0    0  0.26600642466E+02  0.17496013459E+02 -0.57308820110E+02  0.65559175780E+02  0.00000000000E+00 0.  1.
         12    1    4    4    0    0  0.78801374291E+02  0.88354249592E+02 -0.73289886647E+03  0.74239940631E+03  0.00000000000E+00 0. -1.
         -5    1    5    5    0  501 -0.31837104060E+02  0.22729595691E+01 -0.22775017760E+02  0.39491251868E+02  0.47000000000E+01 0.  1.
         13    1    6    6    0    0 -0.80810897179E+01 -0.95842231158E+02 -0.21011365002E+03  0.23108176737E+03  0.00000000000E+00 0. -1.
        -14    1    6    6    0    0 -0.23726645259E+02 -0.92767539272E+02 -0.46889970212E+03  0.47857674482E+03  0.00000000000E+00 0.  1.
</event>
<event>
12    1  0.1345781E-002  0.1967829E+03  0.7818608E-02  0.1152482E+00
         -2   -1    0    0    0  501 -0.00000000000E+00  0.00000000000E+00  0.31278519808E+04  0.31278519808E+04  0.00000000000E+00 0.  1.
          2   -1    0    0  502    0  0.00000000000E+00 -0.00000000000E+00 -0.15121748723E+02  0.15121748723E+02  0.00000000000E+00 0. -1.
          6    2    1    2  502    0 -0.88884466399E+02  0.35572745588E+02  0.88190142961E+03  0.90340936286E+03  0.17097507644E+03 0.  0.
         24    2    3    3    0    0 -0.10653633317E+03 -0.96519574351E+01  0.76560716232E+03  0.77730104130E+03  0.81236883472E+02 0.  0.
         -6    2    1    2    0  501  0.88884466399E+02 -0.35572745588E+02  0.22308288025E+04  0.22395643667E+04  0.17287434136E+03 0.  0.
        -24    2    5    5    0    0  0.19705592664E+02 -0.44840977111E+02  0.18474632592E+04  0.18498685283E+04  0.80585694844E+02 0.  0.
          5    1    3    3  502    0  0.17651866767E+02  0.45224703023E+02  0.11629426728E+03  0.12610832156E+03  0.47000000000E+01 0. -1.
        -11    1    4    4    0    0 -0.11377583639E+03  0.55819125496E+00  0.56717245661E+03  0.57847199418E+03  0.00000000000E+00 0.  1.
         12    1    4    4    0    0  0.72395032217E+01 -0.10210148690E+02  0.19843470572E+03  0.19882904712E+03  0.00000000000E+00 0. -1.
         -5    1    5    5    0  501  0.69178873735E+02  0.92682315231E+01  0.38336554327E+03  0.38969583839E+03  0.47000000000E+01 0.  1.
         11    1    6    6    0    0 -0.29963856451E+02 -0.74589793963E+01  0.76352026959E+03  0.76414440463E+03  0.00000000000E+00 0. -1.
        -12    1    6    6    0    0  0.49669449115E+02 -0.37381997715E+02  0.10839429896E+04  0.10857241236E+04  0.00000000000E+00 0.  1.
</event>
<event>
12    1  0.1345781E-002  0.2558142E+03  0.7818608E-02  0.1109685E+00
         -2   -1    0    0    0  501 -0.00000000000E+00  0.00000000000E+00  0.34364330290E+03  0.34364330290E+03  0.00000000000E+00 0. -1.
          2   -1    0    0  502    0  0.00000000000E+00 -0.00000000000E+00 -0.20895316529E+03  0.20895316529E+03  0.00000000000E+00 0.  1.
          6    2    1    2  502    0  0.15806048202E+03 -0.10063329431E+03  0.14915360187E+03  0.29458903758E+03  0.17153929058E+03 0.  0.
         24    2    3    3    0    0  0.48106288729E+02 -0.28829522585E+01  0.10659421610E+03  0.14136226019E+03  0.79362681857E+02 0.  0.
         -6    2    1    2    0  501 -0.15806048202E+03  0.10063329431E+03 -0.14463464270E+02  0.25800743061E+03  0.17677235799E+03 0.  0.
        -24    2    5    5    0    0 -0.84108124540E+02  0.16574460308E+02  0.50487037798E+02  0.12848717555E+03  0.81308818392E+02 0.  0.
          5    1    3    3  502    0  0.10995419329E+03 -0.97750342049E+02  0.42559385771E+02  0.15322677739E+03  0.47000000000E+01 0. -1.
        -13    1    4    4    0    0 -0.84921437100E+01 -0.26178067635E+02  0.15410536960E+02  0.31541914642E+02  0.00000000000E+00 0.  1.
         14    1    4    4    0    0  0.56598432439E+02  0.23295115377E+02  0.91183679142E+02  0.10982034555E+03  0.00000000000E+00 0. -1.
         -5    1    5    5    0  501 -0.73952357475E+02  0.84058833999E+02 -0.64950502068E+02  0.12952025505E+03  0.47000000000E+01 0.  1.
         11    1    6    6    0    0 -0.20430435522E+02 -0.27906035766E+02  0.35151498749E+02  0.49313054987E+02  0.00000000000E+00 0. -1.
        -12    1    6    6    0    0 -0.63677689018E+02  0.44480496075E+02  0.15335539049E+02  0.79174120568E+02  0.00000000000E+00 0.  1.
</event>
<event>
12    1  0.1345781E-002  0.2247166E+03  0.7818608E-02  0.1130415E+00
          1   -1    0    0  502    0  0.00000000000E+00  0.00000000000E+00  0.51204072215E+02  0.51204072215E+02  0.00000000000E+00 0.  1.
         -1   -1    0    0    0  501 -0.00000000000E+00 -0.00000000000E+00 -0.15391725976E+04  0.15391725976E+04  0.00000000000E+00 0. -1.
          6    2    1    2  502    0 -0.11539956449E+03  0.90646484587E+02 -0.12195535576E+04  0.12399942161E+04  0.16953150575E+03 0.  0.
         24    2    3    3    0    0 -0.65454266488E+02  0.12676697282E+03 -0.85393488744E+03  0.86918655108E+03  0.76982739607E+02 0.  0.
         -6    2    1    2    0  501  0.11539956449E+03 -0.90646484587E+02 -0.26841496781E+03  0.35038245374E+03  0.17084327407E+03 0.  0.
        -24    2    5    5    0    0  0.64509262988E+02 -0.11659614221E+03 -0.24113737466E+03  0.28690517745E+03  0.80070231678E+02 0.  0.
          5    1    3    3  502    0 -0.49945297999E+02 -0.36120488229E+02 -0.36561867016E+03  0.37080766501E+03  0.47000000000E+01 0. -1.
        -13    1    4    4    0    0 -0.49647006446E+01  0.72024453220E+02 -0.26619097857E+03  0.27580755462E+03  0.00000000000E+00 0.  1.
         14    1    4    4    0    0 -0.60489565844E+02  0.54742519596E+02 -0.58774390887E+03  0.59337899646E+03  0.00000000000E+00 0. -1.
         -5    1    5    5    0  501  0.50890301499E+02  0.25949657624E+02 -0.27277593149E+02  0.63477276292E+02  0.47000000000E+01 0.  1.
         11    1    6    6    0    0  0.95235717495E+01  0.11161027154E+02 -0.37812400331E+02  0.40559148966E+02  0.00000000000E+00 0. -1.
        -12    1    6    6    0    0  0.54985691238E+02 -0.12775716937E+03 -0.20332497433E+03  0.24634602848E+03  0.00000000000E+00 0.  1.
</event>
<event>
12    1  0.1345781E-002  0.2942421E+03  0.7818608E-02  0.1088155E+00
          2   -1    0    0  502    0  0.00000000000E+00  0.00000000000E+00  0.12422953187E+04  0.12422953187E+04  0.00000000000E+00 0. -1.
         -2   -1    0    0    0  501 -0.00000000000E+00 -0.00000000000E+00 -0.69728345731E+02  0.69728345731E+02  0.00000000000E+00 0.  1.
          6    2    1    2  502    0  0.22525436318E+02  0.23827786160E+03  0.59949891362E+03  0.66746456041E+03  0.16978297137E+03 0.  0.
         24    2    3    3    0    0  0.59217010744E+02  0.71448331877E+02  0.25454483471E+03  0.28250512076E+03  0.80028444253E+02 0.  0.
         -6    2    1    2    0  501 -0.22525436318E+02 -0.23827786160E+03  0.57306805936E+03  0.64455910402E+03  0.17252739874E+03 0.  0.
        -24    2    5    5    0    0 -0.59220943383E+02 -0.15660242209E+03  0.26156640560E+03  0.32040974346E+03  0.78828804569E+02 0.  0.
          5    1    3    3  502    0 -0.36691574425E+02  0.16682952972E+03  0.34495407891E+03  0.38495943965E+03  0.47000000000E+01 0. -1.
        -11    1    4    4    0    0  0.30198643094E+02  0.85024512160E+02  0.17925553602E+03  0.20068301599E+03  0.00000000000E+00 0.  1.
         12    1    4    4    0    0  0.29018367650E+02 -0.13576180283E+02  0.75289298687E+02  0.81822104770E+02  0.00000000000E+00 0. -1.
         -5    1    5    5    0  501  0.36695507065E+02 -0.81675439513E+02  0.31150165376E+03  0.32414936056E+03  0.47000000000E+01 0.  1.
         11    1    6    6    0    0 -0.24994769902E+02 -0.51900627280E+02  0.16195931526E+03  0.17189890469E+03  0.00000000000E+00 0. -1.
        -12    1    6    6    0    0 -0.34226173481E+02 -0.10470179481E+03  0.99607090335E+02  0.14851083877E+03  0.00000000000E+00 0.  1.
</event>
<event>
12    1  0.1345781E-002  0.1969055E+03  0.7818608E-02  0.1152376E+00
         -1   -1    0    0    0  501 -0.00000000000E+00  0.00000000000E+00  0.38610976620E+02  0.38610976620E+02  0.00000000000E+00 0. -1.
          1   -1    0    0  502    0  0.00000000000E+00 -0.00000000000E+00 -0.10269346881E+04  0.10269346881E+04  0.00000000000E+00 0.  1.
          6    2    1    2  502    0  0.26026435340E+02  0.91148319645E+02 -0.41296915103E+03  0.45718008367E+03  0.17171114609E+03 0.  0.
         24    2    3    3    0    0  0.37575569775E+02  0.11108430302E+03 -0.40996973675E+03  0.43347539162E+03  0.77936411702E+02 0.  0.
         -6    2    1    2    0  501 -0.26026435340E+02 -0.91148319645E+02 -0.57535456049E+03  0.60836558109E+03  0.17346590001E+03 0.  0.
        -24    2    5    5    0    0 -0.77566241052E+01  0.16574564592E+02 -0.16911469991E+03  0.18766269292E+03  0.79263000063E+02 0.  0.
          5    1    3    3  502    0 -0.11549134435E+02 -0.19935983375E+02 -0.29994142836E+01  0.23704692054E+02  0.47000000000E+01 0. -1.
        -11    1    4    4    0    0  0.39414139096E+02  0.31966635672E+02 -0.84898235535E+02  0.98909304688E+02  0.00000000000E+00 0.  1.
         12    1    4    4    0    0 -0.18385693210E+01  0.79117667348E+02 -0.32507150121E+03  0.33456608693E+03  0.00000000000E+00 0. -1.
         -5    1    5    5    0  501 -0.18269811235E+02 -0.10772288424E+03 -0.40623986058E+03  0.42070288817E+03  0.47000000000E+01 0.  1.
         11    1    6    6    0    0 -0.36964638669E+02 -0.10732074736E+02 -0.58349595521E+02  0.69901625429E+02  0.00000000000E+00 0. -1.
        -12    1    6    6    0    0  0.29208014564E+02  0.27306639328E+02 -0.11076510439E+03  0.11776106749E+03  0.00000000000E+00 0.  1.
</event>
<event>
12    1  0.1345781E-002  0.2610875E+03  0.7818608E-02  0.1106492E+00
         -1   -1    0    0    0  501 -0.00000000000E+00  0.00000000000E+00  0.91654112366E+02  0.91654112366E+02  0.00000000000E+00 0. -1.
          1   -1    0    0  502    0  0.00000000000E+00 -0.00000000000E+00 -0.86006299638E+03  0.86006299638E+03  0.00000000000E+00 0.  1.
          6    2    1    2  502    0  0.16406118061E+03 -0.10476522502E+03 -0.20861790297E+03  0.33383944107E+03  0.17330758673E+03 0.  0.
         24    2    3    3    0    0  0.11562588559E+03 -0.10772417407E+03 -0.22080532025E+03  0.28358651754E+03  0.81807581441E+02 0.  0.
         -6    2    1    2    0  501 -0.16406118061E+03  0.10476522502E+03 -0.55979098104E+03  0.61787766767E+03  0.17468556435E+03 0.  0.
        -24    2    5    5    0    0 -0.95286973227E+02  0.13521430191E+03 -0.35380893714E+03  0.39854292283E+03  0.79329582306E+02 0.  0.
          5    1    3    3  502    0  0.48435295022E+02  0.29589490486E+01  0.12187417285E+02  0.50252923531E+02  0.47000000000E+01 0. -1.
        -13    1    4    4    0    0  0.39782037316E+02  0.57901483193E+01 -0.65045133534E+02  0.76465715893E+02  0.00000000000E+00 0.  1.
         14    1    4    4    0    0  0.75843848273E+02 -0.11351432239E+03 -0.15576018672E+03  0.20712080165E+03  0.00000000000E+00 0. -1.
         -5    1    5    5    0  501 -0.68774207384E+02 -0.30449076891E+02 -0.20598204390E+03  0.21933474484E+03  0.47000000000E+01 0.  1.
         13    1    6    6    0    0 -0.62748682286E+01 -0.93523333755E+01 -0.98288354543E+01  0.14948114170E+02  0.00000000000E+00 0. -1.
        -14    1    6    6    0    0 -0.89012104999E+02  0.14456663529E+03 -0.34398010169E+03  0.38359480866E+03  0.00000000000E+00 0.  1.
</event>
<event>
12    1  0.1345781E-002  0.2104123E+03  0.7818608E-02  0.1141240E+00
          1   -1    0    0  502    0  0.00000000000E+00  0.00000000000E+00  0.62759795750E+03  0.62759795750E+03  0.00000000000E+00 0.  1.
         -1   -1    0    0    0  501 -0.00000000000E+00 -0.00000000000E+00 -0.95783991307E+02  0.95783991307E+02  0.00000000000E+00 0. -1.
          6    2    1    2  502    0  0.13679262337E+02 -0.12176934984E+03  0.45253413134E+03  0.49950004482E+03  0.17233182519E+03 0.  0.
         24    2    3    3    0    0  0.10375484995E+02 -0.60913926700E+02  0.11004424031E+03  0.15159817226E+03  0.83988772190E+02 0.  0.
         -6    2    1    2    0  501 -0.13679262337E+02  0.12176934984E+03  0.79279834853E+02  0.22388190399E+03  0.16977313669E+03 0.  0.
        -24    2    5    5    0    0 -0.63110679663E+02  0.45491800137E+02  0.72972724812E+02  0.13264814245E+03  0.78854609007E+02 0.  0.
          5    1    3    3  502    0  0.33037773421E+01 -0.60855423137E+02  0.34248989104E+03  0.34790187256E+03  0.47000000000E+01 0. -1.
        -11    1    4    4    0    0  0.43417298521E+01  0.20954545061E+02  0.15710667110E+02  0.26547478936E+02  0.00000000000E+00 0.  1.
         12    1    4    4    0    0  0.60337551427E+01 -0.81868471761E+02  0.94333573198E+02  0.12505069333E+03  0.00000000000E+00 0. -1.
         -5    1    5    5    0  501  0.49431417326E+02  0.76277549700E+02  0.63071100414E+01  0.91233761537E+02  0.47000000000E+01 0.  1.
         11    1    6    6    0    0 -0.58981324680E+01  0.39129794188E+02 -0.16677289820E+00  0.39572169172E+02  0.00000000000E+00 0. -1.
        -12    1    6    6    0    0 -0.57212547195E+02  0.63620059490E+01  0.73139497710E+02  0.93075973277E+02  0.00000000000E+00 0.  1.
</event>
<event>
12    1  0.1345781E-002  0.1772102E+03  0.7818608E-02  0.1170531E+00
          2   -1    0    0  502    0  0.00000000000E+00  0.00000000000E+00  0.15397034027E+04  0.15397034027E+04  0.00000000000E+00 0. -1.
         -2   -1    0    0    0  501 -0.00000000000E+00 -0.00000000000E+00 -0.23953831987E+02  0.23953831987E+02  0.00000000000E+00 0.  1.
          6    2    1    2  502    0  0.35535185052E+02 -0.87497707837E+01  0.46121559185E+03  0.49454558707E+03  0.17468888819E+03 0.  0.
         24    2    3    3    0    0  0.82921341929E+02  0.21917775596E+02  0.35943725568E+03  0.37806869675E+03  0.79902821328E+02 0.  0.
         -6    2    1    2    0  501 -0.35535185052E+02  0.87497707837E+01  0.10545339788E+04  0.10691116476E+04  0.17210024589E+03 0.  0.
        -24    2    5    5    0    0 -0.61590221390E+02 -0.40797595027E+02  0.50683213378E+03  0.51853630537E+03  0.80890599162E+02 0.  0.
          5    1    3    3  502    0 -0.47386156878E+02 -0.30667546380E+02  0.10177833617E+03  0.11647689031E+03  0.47000000000E+01 0. -1.
        -13    1    4    4    0    0 -0.40787108378E+00 -0.11512866014E+01 -0.41582861511E+01  0.43339547038E+01  0.00000000000E+00 0.  1.
         14    1    4    4    0    0  0.83329213013E+02  0.23069062197E+02  0.36359554183E+03  0.37373474205E+03  0.00000000000E+00 0. -1.
         -5    1    5    5    0  501  0.26055036338E+02  0.49547365810E+02  0.54770184505E+03  0.55057534220E+03  0.47000000000E+01 0.  1.
         13    1    6    6    0    0 -0.62630329494E+02  0.55491140756E+01  0.31095043977E+03  0.31724363955E+03  0.00000000000E+00 0. -1.
        -14    1    6    6    0    0  0.10401081043E+01 -0.46346709102E+02  0.19588169400E+03  0.20129266582E+03  0.00000000000E+00 0.  1.
</event>
<event>
12    1  0.1345781E-002  0.1782351E+03  0.7818608E-02  0.1169522E+00
         -3   -1    0    0    0  501 -0.00000000000E+00  0.00000000000E+00  0.36232778479E+03  0.36232778479E+03  0.00000000000E+00 0. -1.
          3   -1    0    0  502    0  0.00000000000E+00 -0.00000000000E+00 -0.88349661785E+02  0.88349661785E+02  0.00000000000E+00 0.  1.
          6    2    1    2  502    0 -0.43782232896E+02 -0.16878149834E+02  0.11731602999E+03  0.21336984131E+03  0.17193569271E+03 0.  0.
         24    2    3    3    0    0  0.40281162709E+02 -0.43871947263E+01  0.80752428571E+02  0.12073256269E+03  0.80084813962E+02 0.  0.
         -6    2    1    2    0  501  0.43782232896E+02  0.16878149834E+02  0.15666209301E+03  0.23730760527E+03  0.17195968211E+03 0.  0.
        -24    2    5    5    0    0  0.98680538952E+01 -0.53170754088E+02  0.69145779183E+02  0.12009747062E+03  0.81961918551E+02 0.  0.
          5    1    3    3  502    0 -0.84063395605E+02 -0.12490955108E+02  0.36563601421E+02  0.92637278614E+02  0.47000000000E+01 0. -1.
        -11    1    4    4    0    0  0.35276938587E+02 -0.35754379921E+02  0.23935328135E+02  0.55639356687E+02  0.00000000000E+00 0.  1.
         12    1    4    4    0    0  0.50042241216E+01  0.31367185195E+02  0.56817100436E+02  0.65093206005E+02  0.00000000000E+00 0. -1.
         -5    1    5    5    0  501  0.33914179001E+02  0.70048903922E+02  0.87516313831E+02  0.11721013465E+03  0.47000000000E+01 0.  1.
         13    1    6    6    0    0  0.18841918415E+02  0.18945821858E+00  0.62860746932E+02  0.65624136481E+02  0.00000000000E+00 0. -1.
        -14    1    6    6    0    0 -0.89738645194E+01 -0.53360212307E+02  0.62850322506E+01  0.54473334139E+02  0.00000000000E+00 0.  1.
</event>
<event>
12    1  0.1345781E-002  0.2101453E+03  0.7818608E-02  0.1141451E+00
         -1   -1    0    0    0  501 -0.00000000000E+00  0.00000000000E+00  0.16245126008E+04  0.16245126008E+04  0.00000000000E+00 0.  1.
          1   -1    0    0  502    0  0.00000000000E+00 -0.00000000000E+00 -0.27354317555E+02  0.27354317555E+02  0.00000000000E+00 0. -1.
          6    2    1    2  502    0 -0.64442795012E+02  0.10117528502E+03  0.86695279157E+03  0.89226676503E+03  0.17361890750E+03 0.  0.
         24    2    3    3    0    0  0.40287977272E+01  0.94323947356E+02  0.39161985683E+03  0.41195562766E+03  0.86186359924E+02 0.  0.
         -6    2    1    2    0  501  0.64442795012E+02 -0.10117528502E+03  0.73020549166E+03  0.75960015330E+03  0.17147309038E+03 0.  0.
        -24    2    5    5    0    0  0.51745906715E+02  0.91172092716E+01  0.39477839731E+03  0.40624612278E+03  0.80157138912E+02 0.  0.
          5    1    3    3  502    0 -0.68471592739E+02  0.68513376688E+01  0.47533293473E+03  0.48031113737E+03  0.47000000000E+01 0. -1.
        -11    1    4    4    0    0  0.28543459014E+02  0.21277115716E+02  0.23195813519E+03  0.23467428744E+03  0.00000000000E+00 0.  1.
         12    1    4    4    0    0 -0.24514661287E+02  0.73046831640E+02  0.15966172165E+03  0.17728134022E+03  0.00000000000E+00 0. -1.
         -5    1    5    5    0  501  0.12696888296E+02 -0.11029249430E+03  0.33542709434E+03  0.35335403052E+03  0.47000000000E+01 0.  1.
         13    1    6    6    0    0  0.33627225675E+02  0.29956530362E+02  0.35486432016E+03  0.35771059496E+03  0.00000000000E+00 0. -1.
        -14    1    6    6    0    0  0.18118681041E+02 -0.20839321091E+02  0.39914077151E+02  0.48535527822E+02  0.00000000000E+00 0.  1.
</event>
<event>
12    1  0.1345781E-002  0.2034101E+03  0.7818608E-02  0.1146893E+00
          1   -1    0    0  502    0  0.00000000000E+00  0.00000000000E+00  0.55117384664E+03  0.55117384664E+03  0.00000000000E+00 0.  1.
         -1   -1    0    0    0  501 -0.00000000000E+00 -0.00000000000E+00 -0.37083784893E+03  0.37083784893E+03  0.00000000000E+00 0. -1.
          6    2    1    2  502    0  0.18793940190E+02 -0.10756402715E+03 -0.32156563446E+03  0.38035674138E+03  0.17129962441E+03 0.  0.
         24    2    3    3    0    0  0.10916554972E+02 -0.92031673026E+02 -0.98785003250E+02  0.15684699469E+03  0.79079092455E+02 0.  0.
         -6    2    1    2    0  501 -0.18793940190E+02  0.10756402715E+03  0.50190163217E+03  0.54165495419E+03  0.17193489729E+03 0.  0.
        -24    2    5    5    0    0 -0.42561170476E+00 -0.48291310347E+01  0.90276950114E+02  0.11454069972E+03  0.70328817128E+02 0.  0.
          5    1    3    3  502    0  0.78773852175E+01 -0.15532354120E+02 -0.22278063121E+03  0.22350974669E+03  0.47000000000E+01 0. -1.
        -11    1    4    4    0    0  0.33872460871E+01 -0.41112300661E+02  0.44503589132E+01  0.41490967646E+02  0.00000000000E+00 0.  1.
         12    1    4    4    0    0  0.75293088850E+01 -0.50919372365E+02 -0.10323536216E+03  0.11535602704E+03  0.00000000000E+00 0. -1.
         -5    1    5    5    0  501 -0.18368328485E+02  0.11239315818E+03  0.41162468205E+03  0.42711425447E+03  0.47000000000E+01 0.  1.
         11    1    6    6    0    0  0.27711431560E+02  0.17646745928E+02  0.30928493334E+02  0.45120979387E+02  0.00000000000E+00 0. -1.
        -12    1    6    6    0    0 -0.28137043265E+02 -0.22475876963E+02  0.59348456780E+02  0.69419720333E+02  0.00000000000E+00 0.  1.
</event>
<event>
12    1  0.1345781E-002  0.2598340E+03  0.7818608E-02  0.1107243E+00
         -2   -1    0    0    0  501 -0.00000000000E+00  0.00000000000E+00  0.38257963427E+02  0.38257963427E+02  0.00000000000E+00 0.  1.
          2   -1    0    0  502    0  0.00000000000E+00 -0.00000000000E+00 -0.17935996085E+04  0.17935996085E+04  0.00000000000E+00 0. -1.
          6    2    1    2  502    0  0.11440431275E+03 -0.15820350305E+03 -0.99453203667E+03  0.10279593767E+04  0.17172598254E+03 0.  0.
         24    2    3    3    0    0  0.10410414933E+03 -0.18573987429E+03 -0.91882223555E+03  0.94660577144E+03  0.80568053027E+02 0.  0.
         -6    2    1    2    0  501 -0.11440431275E+03  0.15820350305E+03 -0.76080960843E+03  0.80389819523E+03  0.17118514206E+03 0.  0.
        -24    2    5    5    0    0 -0.76852534973E+02  0.57628068008E+02 -0.58167592111E+03  0.59500462883E+03  0.80351258747E+02 0.  0.
          5    1    3    3  502    0  0.10300163417E+02  0.27536371238E+02 -0.75709801117E+02  0.81353605283E+02  0.47000000000E+01 0. -1.
        -13    1    4    4    0    0  0.61232136324E+02 -0.60508856875E+02 -0.23933976412E+03  0.25435058279E+03  0.00000000000E+00 0.  1.
         14    1    4    4    0    0  0.42872013011E+02 -0.12523101741E+03 -0.67948247143E+03  0.69225518864E+03  0.00000000000E+00 0. -1.
         -5    1    5    5    0  501 -0.37551777779E+02  0.10057543504E+03 -0.17913368732E+03  0.20889356640E+03  0.47000000000E+01 0.  1.
         13    1    6    6    0    0 -0.89988719543E+02  0.56410845860E+02 -0.55688113740E+03  0.56691864881E+03  0.00000000000E+00 0. -1.
        -14    1    6    6    0    0  0.13136184570E+02  0.12172221482E+01 -0.24794783707E+02  0.28085980024E+02  0.00000000000E+00 0.  1.
</event>
<event>
12    1  0.1345781E-002  0.2947077E+03  0.7818608E-02  0.1087917E+00
         -2   -1    0    0    0  501 -0.00000000000E+00  0.00000000000E+00  0.95622687342E+02  0.95622687342E+02  0.00000000000E+00 0.  1.
          2   -1    0    0  502    0  0.00000000000E+00 -0.00000000000E+00 -0.13901365745E+04  0.13901365745E+04  0.00000000000E+00 0. -1.
          6    2    1    2  502    0 -0.23963525854E+03  0.67542891153E+00 -0.21021151925E+03  0.36217918447E+03  0.17192837316E+03 0.  0.
         24    2    3    3    0    0 -0.16136696574E+03  0.63276684908E+02 -0.10564134077E+03  0.21725901632E+03  0.77447729504E+02 0.  0.
         -6    2    1    2    0  501  0.23963525854E+03 -0.67542891153E+00 -0.10843023679E+04  0.11235800774E+04  0.17115797347E+03 0.  0.
        -24    2    5    5    0    0  0.23263833178E+03  0.28715942479E+02 -0.82942287368E+03  0.86687313108E+03  0.92636511412E+02 0.  0.
          5    1    3    3  502    0 -0.78268292800E+02 -0.62601255996E+02 -0.10457017848E+03  0.14492016815E+03  0.47000000000E+01 0. -1.
        -11    1    4    4    0    0 -0.14524524755E+03  0.33828924027E+02 -0.10717929640E+03  0.18365178903E+03  0.00000000000E+00 0.  1.
         12    1    4    4    0    0 -0.16121718187E+02  0.29447760881E+02  0.15379556289E+01  0.33607227284E+02  0.00000000000E+00 0. -1.
         -5    1    5    5    0  501  0.69969267645E+01 -0.29391371391E+02 -0.25487949422E+03  0.25670694628E+03  0.47000000000E+01 0.  1.
         13    1    6    6    0    0  0.20583969308E+03  0.20271539161E+02 -0.79951946513E+03  0.82584035362E+03  0.00000000000E+00 0. -1.
        -14    1    6    6    0    0  0.26798638699E+02  0.84444033179E+01 -0.29903408556E+02  0.41032777468E+02  0.00000000000E+00 0.  1.
</event>
<event>
12    1  0.1345781E-002  0.2186762E+03  0.7818608E-02  0.1134874E+00
         -2   -1    0    0    0  501 -0.00000000000E+00  0.00000000000E+00  0.68569235419E+02  0.68569235419E+02  0.00000000000E+00 0. -1.
          2   -1    0    0  502    0  0.00000000000E+00 -0.00000000000E+00 -0.10847809791E+04  0.10847809791E+04  0.00000000000E+00 0.  1.
          6    2    1    2  502    0  0.32779880298E+02  0.12895475175E+03 -0.16276248731E+03  0.27220968225E+03  0.17292378460E+03 0.  0.
         24    2    3    3    0    0  0.64746074223E+02  0.33201338352E+02 -0.12415425377E+03  0.16402817076E+03  0.78718352853E+02 0.  0.
         -6    2    1    2    0  501 -0.32779880298E+02 -0.12895475175E+03 -0.85344925635E+03  0.88114053225E+03  0.17415267974E+03 0.  0.
        -24    2    5    5    0    0  0.31156903639E+02 -0.85832629563E+02 -0.32201335179E+03  0.34411759008E+03  0.79914480102E+02 0.  0.
          5    1    3    3  502    0 -0.31966193924E+02  0.95753413399E+02 -0.38608233537E+02  0.10818151149E+03  0.47000000000E+01 0. -1.
        -11    1    4    4    0    0  0.27051263463E+02  0.38845833685E+02 -0.11566852808E+03  0.12497991053E+03  0.00000000000E+00 0.  1.
         12    1    4    4    0    0  0.37694810759E+02 -0.56444953337E+01 -0.84857256966E+01  0.39048260222E+02  0.00000000000E+00 0. -1.
         -5    1    5    5    0  501 -0.63936783937E+02 -0.43122122188E+02 -0.53143590456E+03  0.53702294217E+03  0.47000000000E+01 0.  1.
         13    1    6    6    0    0  0.18374131199E+02 -0.34383405824E+01 -0.10089995011E+02  0.21242384108E+02  0.00000000000E+00 0. -1.
        -14    1    6    6    0    0  0.12782772440E+02 -0.82394288981E+02 -0.31192335678E+03  0.32287520597E+03  0.00000000000E+00 0.  1.
</event>
<event>
12    1  0.1345781E-002  0.1752914E+03  0.7818608E-02  0.1172439E+00
         -1   -1    0    0    0  501 -0.00000000000E+00  0.00000000000E+00  0.69466032686E+02  0.69466032686E+02  0.00000000000E+00 0.  1.
          1   -1    0    0  502    0  0.00000000000E+00 -0.00000000000E+00 -0.44273736490E+03  0.44273736490E+03  0.00000000000E+00 0. -1.
          6    2    1    2  502    0  0.32345339603E+02  0.17050301151E+02 -0.17908703475E+03  0.25072529571E+03  0.17162189291E+03 0.  0.
         24    2    3    3    0    0  0.64371303794E+02 -0.35299510307E+02 -0.84147113104E+02  0.13758006220E+03  0.80360541883E+02 0.  0.
         -6    2    1    2    0  501 -0.32345339603E+02 -0.17050301151E+02 -0.19418429747E+03  0.26147810188E+03  0.17124929962E+03 0.  0.
        -24    2    5    5    0    0  0.18392440757E+02 -0.56068116621E+02 -0.69009657099E+02  0.12081007826E+03  0.79692073993E+02 0.  0.
          5    1    3    3  502    0 -0.32025964191E+02  0.52349811458E+02 -0.94939921648E+02  0.11314523350E+03  0.47000000000E+01 0. -1.
        -11    1    4    4    0    0 -0.72211816791E+01  0.17781725728E+02 -0.99767938102E+01  0.21630340946E+02  0.00000000000E+00 0.  1.
         12    1    4    4    0    0  0.71592485473E+02 -0.53081236035E+02 -0.74170319294E+02  0.11594972126E+03  0.00000000000E+00 0. -1.
         -5    1    5    5    0  501 -0.50737780360E+02  0.39017815470E+02 -0.12517464037E+03  0.14066802363E+03  0.47000000000E+01 0.  1.
         11    1    6    6    0    0 -0.11459673248E+02 -0.29820103395E+02 -0.74140006548E+02  0.80729816353E+02  0.00000000000E+00 0. -1.
        -12    1    6    6    0    0  0.29852114005E+02 -0.26248013226E+02  0.51303494498E+01  0.40080261905E+02  0.00000000000E+00 0.  1.
</event>
<event>
12    1  0.1345781E-002  0.3300593E+03  0.7818608E-02  0.1071111E+00
          2   -1    0    0  502    0  0.00000000000E+00  0.00000000000E+00  0.23785408970E+04  0.23785408970E+04  0.00000000000E+00 0.  1.
         -2   -1    0    0    0  501 -0.00000000000E+00 -0.00000000000E+00 -0.46786095962E+02  0.46786095962E+02  0.00000000000E+00 0. -1.
          6    2    1    2  502    0 -0.22071434323E+03 -0.17866386647E+03  0.97888254406E+03  0.10319830777E+04  0.16168623675E+03 0.  0.
         24    2    3    3    0    0 -0.90054242895E+02 -0.49333344268E+02  0.55767130449E+03  0.57237515337E+03  0.77926162613E+02 0.  0.
         -6    2    1    2    0  501  0.22071434323E+03  0.17866386647E+03  0.13528722570E+04  0.13933439152E+04  0.17466632169E+03 0.  0.
        -24    2    5    5    0    0  0.27693441849E+02  0.35829635587E+02  0.32980823515E+03  0.34246772432E+03  0.80374005237E+02 0.  0.
          5    1    3    3  502    0 -0.13066010034E+03 -0.12933052220E+03  0.42121123956E+03  0.45960792435E+03  0.47000000000E+01 0. -1.
        -13    1    4    4    0    0 -0.62363212219E+02 -0.58153668439E+02  0.50562458653E+03  0.51276431418E+03  0.00000000000E+00 0.  1.
         14    1    4    4    0    0 -0.27691030675E+02  0.88203241707E+01  0.52046717964E+02  0.59610839192E+02  0.00000000000E+00 0. -1.
         -5    1    5    5    0  501  0.19302090138E+03  0.14283423088E+03  0.10230640218E+04  0.10508761909E+04  0.47000000000E+01 0.  1.
         11    1    6    6    0    0  0.40265719940E+02  0.10359338708E+02  0.72335940709E+02  0.83433401099E+02  0.00000000000E+00 0. -1.
        -12    1    6    6    0    0 -0.12572278092E+02  0.25470296879E+02  0.25747229444E+03  0.25903432322E+03  0.00000000000E+00 0.  1.
</event>
<event>
12    1  0.1345781E-002  0.2800909E+03  0.7818608E-02  0.1095639E+00
         -2   -1    0    0    0  501 -0.00000000000E+00  0.00000000000E+00  0.19643092243E+03  0.19643092243E+03  0.00000000000E+00 0.  1.
          2   -1    0    0  502    0  0.00000000000E+00 -0.00000000000E+00 -0.39968243902E+03  0.39968243902E+03  0.00000000000E+00 0. -1.
          6    2    1    2  502    0 -0.11735007358E+03 -0.18779861983E+03 -0.10987014258E+03  0.30105343732E+03  0.17182072783E+03 0.  0.
         24    2    3    3    0    0 -0.15145905177E+03 -0.14305363556E+03 -0.88471416193E+02  0.24067520033E+03  0.81811817976E+02 0.  0.
         -6    2    1    2    0  501  0.11735007358E+03  0.18779861983E+03 -0.93381374017E+02  0.29505992413E+03  0.17117510461E+03 0.  0.
        -24    2    5    5    0    0  0.60726699689E+02  0.44077080296E+02 -0.94569774642E+02  0.14051028909E+03  0.71896995777E+02 0.  0.
          5    1    3    3  502    0  0.34108978193E+02 -0.44744984275E+02 -0.21398726384E+02  0.60378236989E+02  0.47000000000E+01 0. -1.
        -13    1    4    4    0    0 -0.45265834630E+02 -0.98959171338E+02 -0.44619196632E+02  0.11761286530E+03  0.00000000000E+00 0.  1.
         14    1    4    4    0    0 -0.10619321714E+03 -0.44094464218E+02 -0.43852219561E+02  0.12306233502E+03  0.00000000000E+00 0. -1.
         -5    1    5    5    0  501  0.56623373888E+02  0.14372153953E+03  0.11884006247E+01  0.15454963505E+03  0.47000000000E+01 0.  1.
         11    1    6    6    0    0  0.29039817953E+02  0.15609069311E+02  0.39223218548E+01  0.33201486115E+02  0.00000000000E+00 0. -1.
        -12    1    6    6    0    0  0.31686881736E+02  0.28468010985E+02 -0.98492096497E+02  0.10730880298E+03  0.00000000000E+00 0.  1.
</event>
<event>
12    1  0.1345781E-002  0.1785432E+03  0.7818608E-02  0.1169220E+00
         -2   -1    0    0    0  501 -0.00000000000E+00  0.00000000000E+00  0.15057156637E+03  0.15057156637E+03  0.00000000000E+00 0. -1.
          2   -1    0    0  502    0  0.00000000000E+00 -0.00000000000E+00 -0.21543611746E+03  0.21543611746E+03  0.00000000000E+00 0.  1.
          6    2    1    2  502    0 -0.49348449146E+02 -0.27683068953E+01 -0.56552666155E+02  0.18760168723E+03  0.17191060481E+03 0.  0.
         24    2    3    3    0    0 -0.65129770635E+02 -0.73318821959E+01  0.24108309347E+02  0.10515073637E+03  0.78611851912E+02 0.  0.
         -6    2    1    2    0  501  0.49348449146E+02  0.27683068953E+01 -0.83118849364E+01  0.17840599660E+03  0.17122114132E+03 0.  0.
        -24    2    5    5    0    0  0.35252227449E+01  0.54053116239E+02  0.30221438890E+02  0.99432540348E+02  0.77713114343E+02 0.  0.
          5    1    3    3  502    0  0.15781321489E+02  0.45635753007E+01 -0.80660975501E+02  0.82450950852E+02  0.47000000000E+01 0. -1.
        -13    1    4    4    0    0 -0.67452289940E+01 -0.16096984904E+02 -0.23524972916E+02  0.29292241087E+02  0.00000000000E+00 0.  1.
         14    1    4    4    0    0 -0.58384541641E+02  0.87651027085E+01  0.47633282263E+02  0.75858495287E+02  0.00000000000E+00 0. -1.
         -5    1    5    5    0  501  0.45823226401E+02 -0.51284809344E+02 -0.38533323826E+02  0.78973456252E+02  0.47000000000E+01 0.  1.
         13    1    6    6    0    0  0.10358669983E+02  0.71088711229E+02  0.10691053171E+02  0.72630610116E+02  0.00000000000E+00 0. -1.
        -14    1    6    6    0    0 -0.68334472381E+01 -0.17035594990E+02  0.19530385718E+02  0.26801930231E+02  0.00000000000E+00 0.  1.
</event>
<event>
12    1  0.1345781E-002  0.1978827E+03  0.7818608E-02  0.1151538E+00
          1   -1    0    0  502    0  0.00000000000E+00  0.00000000000E+00  0.34377971183E+03  0.34377971183E+03  0.00000000000E+00 0.  1.
         -1   -1    0    0    0  501 -0.00000000000E+00 -0.00000000000E+00 -0.23167004493E+03  0.23167004493E+03  0.00000000000E+00 0. -1.
          6    2    1    2  502    0  0.21641499613E+02  0.97259300796E+02 -0.14915360036E+03  0.24741260561E+03  0.17040679217E+03 0.  0.
         24    2    3    3    0    0 -0.28346270626E+02 -0.36658371765E-01 -0.29150170996E+02  0.84968172334E+02  0.74607944875E+02 0.  0.
         -6    2    1    2    0  501 -0.21641499613E+02 -0.97259300796E+02  0.26126326726E+03  0.32803715114E+03  0.17152886526E+03 0.  0.
        -24    2    5    5    0    0 -0.44776571238E+02 -0.42103431610E+02  0.57720949462E+02  0.11583685289E+03  0.79428132270E+02 0.  0.
          5    1    3    3  502    0  0.49987770239E+02  0.97295959168E+02 -0.12000342936E+03  0.16244443328E+03  0.47000000000E+01 0. -1.
        -13    1    4    4    0    0 -0.46842190456E+02  0.18182806781E+02 -0.67900280205E+01  0.50704139374E+02  0.00000000000E+00 0.  1.
         14    1    4    4    0    0  0.18495919830E+02 -0.18219465152E+02 -0.22360142976E+02  0.34264032960E+02  0.00000000000E+00 0. -1.
         -5    1    5    5    0  501  0.23135071624E+02 -0.55155869187E+02  0.20354231780E+03  0.21220029825E+03  0.47000000000E+01 0.  1.
         13    1    6    6    0    0 -0.30191165957E+02  0.57461249796E+00  0.63550802307E+02  0.70360082115E+02  0.00000000000E+00 0. -1.
        -14    1    6    6    0    0 -0.14585405281E+02 -0.42678044108E+02 -0.58298528453E+01  0.45476770776E+02  0.00000000000E+00 0.  1.
</event>
<event>
12    1  0.1345781E-002  0.1749456E+03  0.7818608E-02  0.1172786E+00
         -1   -1    0    0    0  501 -0.00000000000E+00  0.00000000000E+00  0.28894002568E+02  0.28894002568E+02  0.00000000000E+00 0. -1.
          1   -1    0    0  502    0  0.00000000000E+00 -0.00000000000E+00 -0.13706491643E+04  0.13706491643E+04  0.00000000000E+00 0.  1.
          6    2    1    2  502    0  0.11490449252E+01  0.35075494216E+02 -0.33470876585E+03  0.37726035491E+03  0.17048110408E+03 0.  0.
         24    2    3    3    0    0  0.12033596216E+01  0.42779965254E+02 -0.34688065154E+03  0.36210757876E+03  0.94679135420E+02 0.  0.
         -6    2    1    2    0  501 -0.11490449252E+01 -0.35075494216E+02 -0.10070463958E+04  0.10222828119E+04  0.17230233188E+03 0.  0.
        -24    2    5    5    0    0  0.35274133284E+02  0.15923760498E+02 -0.82388922667E+03  0.82864342928E+03  0.79741108784E+02 0.  0.
          5    1    3    3  502    0 -0.54314696409E-01 -0.77044710375E+01  0.12171885681E+02  0.15152776151E+02  0.47000000000E+01 0. -1.
        -13    1    4    4    0    0 -0.45639474803E+02  0.32102080259E+02 -0.18028396854E+03  0.18872152641E+03  0.00000000000E+00 0.  1.
         14    1    4    4    0    0  0.46842834424E+02  0.10677884995E+02 -0.16659668300E+03  0.17338605235E+03  0.00000000000E+00 0. -1.
         -5    1    5    5    0  501 -0.36423178209E+02 -0.50999254715E+02 -0.18315716916E+03  0.19363938263E+03  0.47000000000E+01 0.  1.
         13    1    6    6    0    0 -0.20112991167E+02  0.24466882625E+02 -0.35716978880E+03  0.35857135802E+03  0.00000000000E+00 0. -1.
        -14    1    6    6    0    0  0.55387124450E+02 -0.85431221262E+01 -0.46671943787E+03  0.47007207126E+03  0.00000000000E+00 0.  1.
</event>
<event>
12    1  0.1345781E-002  0.1889838E+03  0.7818608E-02  0.1159381E+00
          1   -1    0    0  502    0  0.00000000000E+00  0.00000000000E+00  0.65330800266E+03  0.65330800266E+03  0.00000000000E+00 0.  1.
         -1   -1    0    0    0  501 -0.00000000000E+00 -0.00000000000E+00 -0.57979911294E+02  0.57979911294E+02  0.00000000000E+00 0. -1.
          6    2    1    2  502    0  0.40617377505E+02  0.64977137431E+02  0.38201130465E+03  0.42600715295E+03  0.17227204574E+03 0.  0.
         24    2    3    3    0    0 -0.95295534542E+01  0.17506984010E+02  0.11610869054E+03  0.15124467309E+03  0.94849439858E+02 0.  0.
         -6    2    1    2    0  501 -0.40617377505E+02 -0.64977137431E+02  0.21331678672E+03  0.28528076100E+03  0.17323181393E+03 0.  0.
        -24    2    5    5    0    0  0.14795689016E+01 -0.36131371848E+02  0.36814192807E+02  0.10148879505E+03  0.87390077091E+02 0.  0.
          5    1    3    3  502    0  0.50146930960E+02  0.47470153421E+02  0.26590261411E+03  0.27476247987E+03  0.47000000000E+01 0. -1.
        -11    1    4    4    0    0 -0.45809120205E+02 -0.74266050082E+01  0.86591656490E+02  0.98243294579E+02  0.00000000000E+00 0.  1.
         12    1    4    4    0    0  0.36279566751E+02  0.24933589018E+02  0.29517034045E+02  0.53001378508E+02  0.00000000000E+00 0. -1.
         -5    1    5    5    0  501 -0.42096946407E+02 -0.28845765584E+02  0.17650259391E+03  0.18379196594E+03  0.47000000000E+01 0.  1.
         13    1    6    6    0    0  0.12244577612E+02  0.21547791542E+01 -0.25037338664E+02  0.27954267679E+02  0.00000000000E+00 0. -1.
        -14    1    6    6    0    0 -0.10765008711E+02 -0.38286151002E+02  0.61851531471E+02  0.73534527376E+02  0.00000000000E+00 0.  1.
</event>
<event>
12    1  0.1345781E-002  0.1750187E+03  0.7818608E-02  0.1172713E+00
         -1   -1    0    0    0  501 -0.00000000000E+00  0.00000000000E+00  0.32676681237E+03  0.32676681237E+03  0.00000000000E+00 0. -1.
          1   -1    0    0  502    0  0.00000000000E+00 -0.00000000000E+00 -0.13183506633E+03  0.13183506633E+03  0.00000000000E+00 0.  1.
          6    2    1    2  502    0 -0.26253448733E+02  0.75074377886E+01  0.22117480390E+03  0.28276878653E+03  0.17405254254E+03 0.  0.
         24    2    3    3    0    0 -0.41332778116E+02  0.59740708783E+02  0.10087335371E+03  0.15066946901E+03  0.85138149901E+02 0.  0.
         -6    2    1    2    0  501  0.26253448733E+02 -0.75074377886E+01 -0.26243057849E+02  0.17583309217E+03  0.17170606578E+03 0.  0.
        -24    2    5    5    0    0  0.12444969664E+02  0.24792577841E+02  0.45802610709E+02  0.95542162037E+02  0.79125699952E+02 0.  0.
          5    1    3    3  502    0  0.15079329383E+02 -0.52233270995E+02  0.12030145018E+03  0.13209931752E+03  0.47000000000E+01 0. -1.
        -13    1    4    4    0    0 -0.33885998492E+02  0.51567420222E+02  0.11632009983E+03  0.13167317626E+03  0.00000000000E+00 0.  1.
         14    1    4    4    0    0 -0.74467796245E+01  0.81732885615E+01 -0.15446746114E+02  0.18996292749E+02  0.00000000000E+00 0. -1.
         -5    1    5    5    0  501  0.13808479069E+02 -0.32300015630E+02 -0.72045668559E+02  0.80290930135E+02  0.47000000000E+01 0.  1.
         11    1    6    6    0    0 -0.73060443223E+01 -0.26949949294E+02  0.10330657101E+02  0.29772479351E+02  0.00000000000E+00 0. -1.
        -12    1    6    6    0    0  0.19751013987E+02  0.51742527135E+02  0.35471953609E+02  0.65769682686E+02  0.00000000000E+00 0.  1.
</event>
<event>
12    1  0.1345781E-002  0.1888305E+03  0.7818608E-02  0.1159520E+00
         -1   -1    0    0    0  501 -0.00000000000E+00  0.00000000000E+00  0.10579052299E+04  0.10579052299E+04  0.00000000000E+00 0.  1.
          1   -1    0    0  502    0  0.00000000000E+00 -0.00000000000E+00 -0.35950123086E+02  0.35950123086E+02  0.00000000000E+00 0. -1.
          6    2    1    2  502    0  0.34634276298E+02  0.55793086123E+02  0.36325477752E+03  0.40732227852E+03  0.17217724484E+03 0.  0.
         24    2    3    3    0    0 -0.27569393191E+02  0.54444003908E+02  0.12415248091E+03  0.16021275875E+03  0.80808839537E+02 0.  0.
         -6    2    1    2    0  501 -0.34634276298E+02 -0.55793086123E+02  0.65870032926E+03  0.68653307443E+03  0.18201411198E+03 0.  0.
        -24    2    5    5    0    0 -0.84620463647E+02 -0.23511357512E+02  0.29781828427E+03  0.32074807019E+03  0.80437474378E+02 0.  0.
          5    1    3    3  502    0  0.62203669489E+02  0.13490822146E+01  0.23910229661E+03  0.24710951978E+03  0.47000000000E+01 0. -1.
        -11    1    4    4    0    0 -0.44256755189E+02  0.31132133365E+02  0.11948532037E+03  0.13116635198E+03  0.00000000000E+00 0.  1.
         12    1    4    4    0    0  0.16687361998E+02  0.23311870543E+02  0.46671605388E+01  0.29046406769E+02  0.00000000000E+00 0. -1.
         -5    1    5    5    0  501  0.49986187350E+02 -0.32281728610E+02  0.36088204499E+03  0.36578500424E+03  0.47000000000E+01 0.  1.
         11    1    6    6    0    0 -0.27288419564E+02  0.25420886152E+02  0.54626100293E+02  0.66142952219E+02  0.00000000000E+00 0. -1.
        -12    1    6    6    0    0 -0.57332044084E+02 -0.48932243665E+02  0.24319218398E+03  0.25460511797E+03  0.00000000000E+00 0.  1.
</event>
<event>
12    1  0.1345781E-002  0.3433994E+03  0.7818608E-02  0.1065357E+00
          2   -1    0    0  502    0  0.00000000000E+00  0.00000000000E+00  0.29858275574E+04  0.29858275574E+04  0.00000000000E+00 0.  1.
         -2   -1    0    0    0  501 -0.00000000000E+00 -0.00000000000E+00 -0.70679404172E+02  0.70679404172E+02  0.00000000000E+00 0. -1.
          6    2    1    2  502    0 -0.27185310166E+03  0.11907368004E+03  0.24722860871E+04  0.24959968201E+04  0.17239193490E+03 0.  0.
         24    2    3    3    0    0 -0.18662406548E+03  0.30898048364E+02  0.18679967845E+04  0.18793716650E+04  0.82720234067E+02 0.  0.
         -6    2    1    2    0  501  0.27185310166E+03 -0.11907368004E+03  0.44286206610E+03  0.56051014147E+03  0.17309580854E+03 0.  0.
        -24    2    5    5    0    0  0.20514994806E+03 -0.14778070459E+03  0.30207318880E+03  0.40202669776E+03  0.80321955145E+02 0.  0.
          5    1    3    3  502    0 -0.85229036185E+02  0.88175631677E+02  0.60428930260E+03  0.61662515507E+03  0.47000000000E+01 0. -1.
        -11    1    4    4    0    0 -0.29542988425E+02  0.29135848412E+02  0.64399879577E+03  0.64533412647E+03  0.00000000000E+00 0.  1.
         12    1    4    4    0    0 -0.15708107705E+03  0.17621999517E+01  0.12239979887E+04  0.12340375385E+04  0.00000000000E+00 0. -1.
         -5    1    5    5    0  501  0.66703153602E+02  0.28707024549E+02  0.14078887730E+03  0.15848344371E+03  0.47000000000E+01 0.  1.
         11    1    6    6    0    0  0.12210340251E+03 -0.53791619611E+02  0.11148778490E+03  0.17387439554E+03  0.00000000000E+00 0. -1.
        -12    1    6    6    0    0  0.83046545550E+02 -0.93989084978E+02  0.19058540391E+03  0.22815230221E+03  0.00000000000E+00 0.  1.
</event>
<event>
12    1  0.1345781E-002  0.1853552E+03  0.7818608E-02  0.1162719E+00
          1   -1    0    0  502    0  0.00000000000E+00  0.00000000000E+00  0.21996904154E+04  0.21996904154E+04  0.00000000000E+00 0. -1.
         -1   -1    0    0    0  501 -0.00000000000E+00 -0.00000000000E+00 -0.18132159042E+02  0.18132159042E+02  0.00000000000E+00 0.  1.
          6    2    1    2  502    0 -0.23782128038E+02  0.61209826128E+02  0.15100623368E+04  0.15215528965E+04  0.17470753678E+03 0.  0.
         24    2    3    3    0    0  0.31686727864E+02 -0.18332796390E+02  0.60946867374E+03  0.61574118388E+03  0.79655515291E+02 0.  0.
         -6    2    1    2    0  501  0.23782128038E+02 -0.61209826128E+02  0.67149591957E+03  0.69626967795E+03  0.17196645604E+03 0.  0.
        -24    2    5    5    0    0  0.31972488492E+02  0.96105876185E+01  0.53744808934E+03  0.54436996170E+03  0.79834848588E+02 0.  0.
          5    1    3    3  502    0 -0.55468855902E+02  0.79542622519E+02  0.90059366303E+03  0.90581171258E+03  0.47000000000E+01 0. -1.
        -13    1    4    4    0    0  0.10561157900E+01  0.27473010347E+02  0.11639397061E+03  0.11959698187E+03  0.00000000000E+00 0.  1.
         14    1    4    4    0    0  0.30630612074E+02 -0.45805806738E+02  0.49307470312E+03  0.49614420201E+03  0.00000000000E+00 0. -1.
         -5    1    5    5    0  501 -0.81903604545E+01 -0.70820413747E+02  0.13404783022E+03  0.15189971625E+03  0.47000000000E+01 0.  1.
         13    1    6    6    0    0  0.52271284358E+02  0.15661201937E+02  0.23806970623E+03  0.24424320960E+03  0.00000000000E+00 0. -1.
        -14    1    6    6    0    0 -0.20298795866E+02 -0.60506143181E+01  0.29937838312E+03  0.30012675210E+03  0.00000000000E+00 0.  1.
</event>
<event>
12    1  0.1345781E-002  0.2188543E+03  0.7818608E-02  0.1134740E+00
         -2   -1    0    0    0  501 -0.00000000000E+00  0.00000000000E+00  0.37504349831E+03  0.37504349831E+03  0.00000000000E+00 0.  1.
          2   -1    0    0  502    0  0.00000000000E+00 -0.00000000000E+00 -0.13110560616E+03  0.13110560616E+03  0.00000000000E+00 0. -1.
          6    2    1    2  502    0  0.13593873709E+03  0.11567832078E+02  0.16267017038E+03  0.27265701275E+03  0.17107632007E+03 0.  0.
         24    2    3    3    0    0  0.15850191433E+02 -0.39029163456E+02  0.47378759100E+02  0.98600946294E+02  0.75517518681E+02 0.  0.
         -6    2    1    2    0  501 -0.13593873709E+03 -0.11567832078E+02  0.81267721769E+02  0.23349209172E+03  0.17117522985E+03 0.  0.
        -24    2    5    5    0    0  0.13986529221E+01 -0.14059647760E+02  0.19839221453E+02  0.82948681064E+02  0.79292238317E+02 0.  0.
          5    1    3    3  502    0  0.12008854566E+03  0.50596995535E+02  0.11529141128E+03  0.17405606646E+03  0.47000000000E+01 0. -1.
        -11    1    4    4    0    0 -0.84701238204E+01  0.18881402741E+02  0.23730952392E+02  0.31486639523E+02  0.00000000000E+00 0.  1.
         12    1    4    4    0    0  0.24320315253E+02 -0.57910566197E+02  0.23647806708E+02  0.67114306772E+02  0.00000000000E+00 0. -1.
         -5    1    5    5    0  501 -0.13733739002E+03  0.24918156818E+01  0.61428500316E+02  0.15054341066E+03  0.47000000000E+01 0.  1.
         13    1    6    6    0    0 -0.58565527411E+01 -0.38014268112E+02 -0.13936586103E+02  0.40909805943E+02  0.00000000000E+00 0. -1.
        -14    1    6    6    0    0  0.72552056633E+01  0.23954620352E+02  0.33775807556E+02  0.42038875121E+02  0.00000000000E+00 0.  1.
</event>
<event>
12    1  0.1345781E-002  0.3031141E+03  0.7818608E-02  0.1083694E+00
         -1   -1    0    0    0  501 -0.00000000000E+00  0.00000000000E+00  0.29793871848E+03  0.29793871848E+03  0.00000000000E+00 0. -1.
          1   -1    0    0  502    0  0.00000000000E+00 -0.00000000000E+00 -0.31237587263E+03  0.31237587263E+03  0.00000000000E+00 0.  1.
          6    2    1    2  502    0 -0.50058792231E+02 -0.24429557718E+03 -0.41732237050E+02  0.30585741979E+03  0.17210743715E+03 0.  0.
         24    2    3    3    0    0 -0.59833183270E+02 -0.22122067819E+03  0.17090885588E+02  0.24174627068E+03  0.75037075747E+02 0.  0.
         -6    2    1    2    0  501  0.50058792231E+02  0.24429557718E+03  0.27295082899E+02  0.30445717131E+03  0.17251937833E+03 0.  0.
        -24    2    5    5    0    0  0.71432925823E+02  0.16120699136E+03 -0.40450329362E+02  0.19504009054E+03  0.72897536436E+02 0.  0.
          5    1    3    3  502    0  0.97743910395E+01 -0.23074898989E+02 -0.58823122637E+02  0.64111149111E+02  0.47000000000E+01 0. -1.
        -11    1    4    4    0    0 -0.20520540250E+02 -0.12797807736E+03 -0.25257792521E+02  0.13205088769E+03  0.00000000000E+00 0.  1.
         12    1    4    4    0    0 -0.39312643020E+02 -0.93242600831E+02  0.42348678108E+02  0.10969538299E+03  0.00000000000E+00 0. -1.
         -5    1    5    5    0  501 -0.21374133592E+02  0.83088585825E+02  0.67745412262E+02  0.10941708077E+03  0.47000000000E+01 0.  1.
         13    1    6    6    0    0  0.41673957274E+02  0.85043412787E+02  0.15492184968E+02  0.95964100415E+02  0.00000000000E+00 0. -1.
        -14    1    6    6    0    0  0.29758968548E+02  0.76163578571E+02 -0.55942514331E+02  0.99075990126E+02  0.00000000000E+00 0.  1.
</event>
<event>
12    1  0.1345781E-002  0.1776224E+03  0.7818608E-02  0.1170124E+00
          2   -1    0    0  502    0  0.00000000000E+00  0.00000000000E+00  0.10391119390E+04  0.10391119390E+04  0.00000000000E+00 0. -1.
         -2   -1    0    0    0  501 -0.00000000000E+00 -0.00000000000E+00 -0.86857213077E+02  0.86857213077E+02  0.00000000000E+00 0.  1.
          6    2    1    2  502    0 -0.43822081415E+01  0.42323052699E+02  0.93061035549E+03  0.94749799673E+03  0.17293459899E+03 0.  0.
         24    2    3    3    0    0 -0.11961350039E+02  0.33989262152E+02  0.16654632835E+03  0.18333648041E+03  0.67647924774E+02 0.  0.
         -6    2    1    2    0  501  0.43822081415E+01 -0.42323052699E+02  0.21644370447E+02  0.17847115536E+03  0.17196810746E+03 0.  0.
        -24    2    5    5    0    0 -0.10732398330E+02 -0.91688661446E+02  0.30057590862E+02  0.12595175957E+03  0.80239590974E+02 0.  0.
          5    1    3    3  502    0  0.75791418970E+01  0.83337905466E+01  0.76406402714E+03  0.76416151632E+03  0.47000000000E+01 0. -1.
        -11    1    4    4    0    0 -0.22989119802E+02 -0.38737738941E+01  0.17471121790E+02  0.29133243041E+02  0.00000000000E+00 0.  1.
         12    1    4    4    0    0  0.11027769764E+02  0.37863036046E+02  0.14907520656E+03  0.15420323737E+03  0.00000000000E+00 0. -1.
         -5    1    5    5    0  501  0.15114606471E+02  0.49365608747E+02 -0.84132204149E+01  0.52519395784E+02  0.47000000000E+01 0.  1.
         11    1    6    6    0    0  0.32735702988E+02 -0.35598751540E+02 -0.12788256571E+01  0.48379052868E+02  0.00000000000E+00 0. -1.
        -12    1    6    6    0    0 -0.43468101318E+02 -0.56089909907E+02  0.31336416519E+02  0.77572706707E+02  0.00000000000E+00 0.  1.
</event>
<event>
12    1  0.1345781E-002  0.2185736E+03  0.7818608E-02  0.1134951E+00
          2   -1    0    0  502    0  0.00000000000E+00  0.00000000000E+00  0.56252474648E+03  0.56252474648E+03  0.00000000000E+00 0.  1.
         -2   -1    0    0    0  501 -0.00000000000E+00 -0.00000000000E+00 -0.91128232628E+02  0.91128232628E+02  0.00000000000E+00 0. -1.
          6    2    1    2  502    0 -0.50332748114E+02 -0.12582092195E+03  0.32109258653E+03  0.38850923839E+03  0.17168194214E+03 0.  0.
         24    2    3    3    0    0 -0.50284142879E+02 -0.19637649842E+01  0.13726515734E+03  0.16679949252E+03  0.80299413977E+02 0.  0.
         -6    2    1    2    0  501  0.50332748114E+02  0.12582092195E+03  0.15030392732E+03  0.26514374072E+03  0.17130569967E+03 0.  0.
        -24    2    5    5    0    0  0.80316553316E+02  0.14088438699E+03  0.14431218127E+03  0.23073549208E+03  0.78190168227E+02 0.  0.
          5    1    3    3  502    0 -0.48605234986E-01 -0.12385715697E+03  0.18382742918E+03  0.22170974587E+03  0.47000000000E+01 0. -1.
        -13    1    4    4    0    0  0.26328275081E+01 -0.15810835332E+01  0.10452884129E+03  0.10457394640E+03  0.00000000000E+00 0.  1.
         14    1    4    4    0    0 -0.52916970387E+02 -0.38268145100E+00  0.32736316058E+02  0.62225546113E+02  0.00000000000E+00 0. -1.
         -5    1    5    5    0  501 -0.29983805203E+02 -0.15063465044E+02  0.59917460539E+01  0.34408248638E+02  0.47000000000E+01 0.  1.
         11    1    6    6    0    0  0.85925740520E+02  0.97827154060E+02  0.78969092240E+02  0.15228099844E+03  0.00000000000E+00 0. -1.
        -12    1    6    6    0    0 -0.56091872036E+01  0.43057232935E+02  0.65343089031E+02  0.78454493646E+02  0.00000000000E+00 0.  1.
</event>
<event>
12    1  0.1345781E-002  0.1753593E+03  0.7818608E-02  0.1172371E+00
         -1   -1    0    0    0  501 -0.00000000000E+00  0.00000000000E+00  0.24813801323E+03  0.24813801323E+03  0.00000000000E+00 0.  1.
          1   -1    0    0  502    0  0.00000000000E+00 -0.00000000000E+00 -0.12709057242E+03  0.12709057242E+03  0.00000000000E+00 0. -1.
          6    2    1    2  502    0  0.34380476959E+02 -0.64675178995E+02  0.31302705635E+02  0.17918613802E+03  0.16050830728E+03 0.  0.
         24    2    3    3    0    0  0.35136166307E+02 -0.94614689662E+02  0.54834514792E+02  0.14080930377E+03  0.81449041322E+02 0.  0.
         -6    2    1    2    0  501 -0.34380476959E+02  0.64675178995E+02  0.89744735175E+02  0.19604244764E+03  0.15815697205E+03 0.  0.
        -24    2    5    5    0    0 -0.72390053641E+02  0.42658576861E+02  0.70123157411E+02  0.14770452254E+03  0.99193219154E+02 0.  0.
          5    1    3    3  502    0 -0.75568934823E+00  0.29939510667E+02 -0.23531809157E+02  0.38376834257E+02  0.47000000000E+01 0. -1.
        -11    1    4    4    0    0  0.17386858886E+02 -0.62810268742E+02  0.74852446168E+02  0.99248785477E+02  0.00000000000E+00 0.  1.
         12    1    4    4    0    0  0.17749307422E+02 -0.31804420920E+02 -0.20017931375E+02  0.41560518290E+02  0.00000000000E+00 0. -1.
         -5    1    5    5    0  501  0.38009576681E+02  0.22016602134E+02  0.19621577763E+02  0.48337925100E+02  0.47000000000E+01 0.  1.
         13    1    6    6    0    0  0.21740097984E+02  0.74165712255E+01 -0.33350168915E+01  0.23211198305E+02  0.00000000000E+00 0. -1.
        -14    1    6    6    0    0 -0.94130151624E+02  0.35242005636E+02  0.73458174303E+02  0.12449332423E+03  0.00000000000E+00 0.  1.
</event>
<event>
12    1  0.1345781E-002  0.2000569E+03  0.7818608E-02  0.1149691E+00
         -2   -1    0    0    0  501 -0.00000000000E+00  0.00000000000E+00  0.20913726375E+02  0.20913726375E+02  0.00000000000E+00 0.  1.
          2   -1    0    0  502    0  0.00000000000E+00 -0.00000000000E+00 -0.19182417497E+04  0.19182417497E+04  0.00000000000E+00 0. -1.
          6    2    1    2  502    0  0.84154949479E+02 -0.15203575622E+02 -0.93884399776E+03  0.95833892791E+03  0.17225633333E+03 0.  0.
         24    2    3    3    0    0  0.93422621363E+02 -0.59520949139E+02 -0.54396588173E+03  0.56084586399E+03  0.79866595664E+02 0.  0.
         -6    2    1    2    0  501 -0.84154949479E+02  0.15203575622E+02 -0.95848402558E+03  0.98081654818E+03  0.18972682908E+03 0.  0.
        -24    2    5    5    0    0 -0.22876692950E+02  0.20780789394E+01 -0.85949488379E+03  0.86356364383E+03  0.80517390679E+02 0.  0.
          5    1    3    3  502    0 -0.92676718841E+01  0.44317373517E+02 -0.39487811603E+03  0.39749306391E+03  0.47000000000E+01 0. -1.
        -11    1    4    4    0    0 -0.12857488993E+02  0.28522320213E+01 -0.61099275141E+02  0.62502573335E+02  0.00000000000E+00 0.  1.
         12    1    4    4    0    0  0.10628011036E+03 -0.62373181160E+02 -0.48286660659E+03  0.49834329066E+03  0.00000000000E+00 0. -1.
         -5    1    5    5    0  501 -0.61278256529E+02  0.13125496683E+02 -0.98989141788E+02  0.11725290435E+03  0.47000000000E+01 0.  1.
         13    1    6    6    0    0 -0.32409304624E+02  0.31045817542E+02 -0.31099402670E+03  0.31421567506E+03  0.00000000000E+00 0. -1.
        -14    1    6    6    0    0  0.95326116745E+01 -0.28967738603E+02 -0.54850085709E+03  0.54934796877E+03  0.00000000000E+00 0.  1.
</event>
<event>
12    1  0.1345781E-002  0.1812971E+03  0.7818608E-02  0.1166554E+00
          2   -1    0    0  502    0  0.00000000000E+00  0.00000000000E+00  0.87513828968E+03  0.87513828968E+03  0.00000000000E+00 0. -1.
         -2   -1    0    0    0  501 -0.00000000000E+00 -0.00000000000E+00 -0.51030643679E+02  0.51030643679E+02  0.00000000000E+00 0.  1.
          6    2    1    2  502    0  0.44413788736E+02 -0.36459798716E+02  0.17321267983E+03  0.25035117717E+03  0.17138021446E+03 0.  0.
         24    2    3    3    0    0 -0.39695198937E+02 -0.14016788168E+02  0.11145174714E+03  0.14351245135E+03  0.80013452507E+02 0.  0.
         -6    2    1    2    0  501 -0.44413788736E+02  0.36459798716E+02  0.65089496617E+03  0.67581775618E+03  0.17252095823E+03 0.  0.
        -24    2    5    5    0    0 -0.84943284495E+02  0.39874606552E+02  0.33099035443E+03  0.35330364556E+03  0.80395929054E+02 0.  0.
          5    1    3    3  502    0  0.84108987673E+02 -0.22443010548E+02  0.61760932683E+02  0.10683872582E+03  0.47000000000E+01 0. -1.
        -11    1    4    4    0    0 -0.38535669033E+02 -0.14514054273E+02  0.12412467648E+03  0.13077687437E+03  0.00000000000E+00 0.  1.
         12    1    4    4    0    0 -0.11595299038E+01  0.49726610458E+00 -0.12672929333E+02  0.12735576982E+02  0.00000000000E+00 0. -1.
         -5    1    5    5    0  501  0.40529495759E+02 -0.34148078363E+01  0.31990461174E+03  0.32251411062E+03  0.47000000000E+01 0.  1.
         13    1    6    6    0    0  0.22786135485E+01  0.14105237972E+02  0.15066416130E+03  0.15134014444E+03  0.00000000000E+00 0. -1.
        -14    1    6    6    0    0 -0.87221898044E+02  0.25769368580E+02  0.18032619313E+03  0.20196350112E+03  0.00000000000E+00 0.  1.
</event>
<event>
12    1  0.1345781E-002  0.2482863E+03  0.7818608E-02  0.1114393E+00
          2   -1    0    0  502    0  0.00000000000E+00  0.00000000000E+00  0.12572607108E+04  0.12572607108E+04  0.00000000000E+00 0. -1.
         -2   -1    0    0    0  501 -0.00000000000E+00 -0.00000000000E+00 -0.50256822692E+02  0.50256822692E+02  0.00000000000E+00 0.  1.
          6    2    1    2  502    0 -0.87776237615E+02  0.15662510929E+03  0.50220114862E+03  0.56036607038E+03  0.17195361704E+03 0.  0.
         24    2    3    3    0    0 -0.34986820491E+02  0.13431365186E+02  0.10273291363E+03  0.13271185063E+03  0.75192450254E+02 0.  0.
         -6    2    1    2    0  501  0.87776237615E+02 -0.15662510929E+03  0.70480273954E+03  0.74715146315E+03  0.17103308008E+03 0.  0.
        -24    2    5    5    0    0 -0.12808130145E+02 -0.49835316842E+02  0.23242120479E+03  0.25249230861E+03  0.84173288314E+02 0.  0.
          5    1    3    3  502    0 -0.52789417124E+02  0.14319374411E+03  0.39946823498E+03  0.42765421975E+03  0.47000000000E+01 0. -1.
        -11    1    4    4    0    0  0.62429634575E+01 -0.22420089423E+02  0.56619076260E+02  0.61215641784E+02  0.00000000000E+00 0.  1.
         12    1    4    4    0    0 -0.41229783949E+02  0.35851454609E+02  0.46113837372E+02  0.71496208845E+02  0.00000000000E+00 0. -1.
         -5    1    5    5    0  501  0.10058436776E+03 -0.10678979245E+03  0.47238153475E+03  0.49465915455E+03  0.47000000000E+01 0.  1.
         11    1    6    6    0    0  0.11823750988E+02 -0.66233530355E+02  0.13772355775E+03  0.15327902659E+03  0.00000000000E+00 0. -1.
        -12    1    6    6    0    0 -0.24631881133E+02  0.16398213513E+02  0.94697647038E+02  0.99213282020E+02  0.00000000000E+00 0.  1.
</event>
<event>
12    1  0.1345781E-002  0.2491268E+03  0.7818608E-02  0.1113858E+00
         -1   -1    0    0    0  501 -0.00000000000E+00  0.00000000000E+00  0.27242499558E+02  0.27242499558E+02  0.00000000000E+00 0.  1.
          1   -1    0    0  502    0  0.00000000000E+00 -0.00000000000E+00 -0.27624700294E+04  0.27624700294E+04  0.00000000000E+00 0. -1.
          6    2    1    2  502    0  0.83328178809E+02  0.15348071122E+03 -0.76411368359E+03  0.80235397638E+03  0.17147089509E+03 0.  0.
         24    2    3    3    0    0  0.55670284231E+02  0.42585795482E+02 -0.54727786481E+03  0.55719585643E+03  0.77726640173E+02 0.  0.
         -6    2    1    2    0  501 -0.83328178809E+02 -0.15348071122E+03 -0.19711138462E+04  0.19873585525E+04  0.18385947763E+03 0.  0.
        -24    2    5    5    0    0 -0.12321098159E+03 -0.79907212898E+02 -0.14396694729E+04  0.14493446963E+04  0.79910879986E+02 0.  0.
          5    1    3    3  502    0  0.27657894578E+02  0.11089491574E+03 -0.21683581879E+03  0.24515811995E+03  0.47000000000E+01 0. -1.
        -11    1    4    4    0    0  0.12337053679E+02  0.54352723225E+02 -0.22477057343E+03  0.23157770206E+03  0.00000000000E+00 0.  1.
         12    1    4    4    0    0  0.43333230552E+02 -0.11766927743E+02 -0.32250729138E+03  0.32561815436E+03  0.00000000000E+00 0. -1.
         -5    1    5    5    0  501  0.39882802785E+02 -0.73573498326E+02 -0.53144437330E+03  0.53801385626E+03  0.47000000000E+01 0.  1.
         13    1    6    6    0    0 -0.70987762635E+01 -0.44911242260E+02 -0.44158267061E+03  0.44391741043E+03  0.00000000000E+00 0. -1.
        -14    1    6    6    0    0 -0.11611220533E+03 -0.34995970638E+02 -0.99808680230E+03  0.10054272858E+04  0.00000000000E+00 0.  1.
</event>
<event>
12    1  0.1345781E-002  0.2686097E+03  0.7818608E-02  0.1102078E+00
          2   -1    0    0  502    0  0.00000000000E+00  0.00000000000E+00  0.17230854924E+04  0.17230854924E+04  0.00000000000E+00 0. -1.
         -2   -1    0    0    0  501 -0.00000000000E+00 -0.00000000000E+00 -0.49707419241E+02  0.49707419241E+02  0.00000000000E+00 0.  1.
          6    2    1    2  502    0 -0.49764697190E+02  0.19631518548E+03  0.48131547820E+03  0.55054686772E+03  0.17441641801E+03 0.  0.
         24    2    3    3    0    0  0.34671737568E+01  0.23493903841E+02  0.13428998713E+03  0.15920352880E+03  0.82146077974E+02 0.  0.
         -6    2    1    2    0  501  0.49764697190E+02 -0.19631518548E+03  0.11920625949E+04  0.12222460439E+04  0.17848244851E+03 0.  0.
        -24    2    5    5    0    0  0.22145925822E+02 -0.24150258069E+02  0.56140524855E+03  0.56791100944E+03  0.79204700276E+02 0.  0.
          5    1    3    3  502    0 -0.53231870947E+02  0.17282128164E+03  0.34702549107E+03  0.39134333893E+03  0.47000000000E+01 0. -1.
        -13    1    4    4    0    0 -0.32213616179E+02 -0.11763612291E+02  0.42596423755E+02  0.54685966739E+02  0.00000000000E+00 0.  1.
         14    1    4    4    0    0  0.35680789935E+02  0.35257516132E+02  0.91693563376E+02  0.10451756206E+03  0.00000000000E+00 0. -1.
         -5    1    5    5    0  501  0.27618771368E+02 -0.17216492741E+03  0.63065734637E+03  0.65433503444E+03  0.47000000000E+01 0.  1.
         11    1    6    6    0    0 -0.27602109767E+02 -0.24871956053E+01  0.27645649618E+03  0.27784214383E+03  0.00000000000E+00 0. -1.
        -12    1    6    6    0    0  0.49748035589E+02 -0.21663062463E+02  0.28494875237E+03  0.29006886561E+03  0.00000000000E+00 0.  1.
</event>
<event>
12    1  0.1345781E-002  0.2591436E+03  0.7818608E-02  0.1107659E+00
          1   -1    0    0  502    0  0.00000000000E+00  0.00000000000E+00  0.43735151192E+03  0.43735151192E+03  0.00000000000E+00 0.  1.
         -1   -1    0    0    0  501 -0.00000000000E+00 -0.00000000000E+00 -0.15355944733E+03  0.15355944733E+03  0.00000000000E+00 0. -1.
          6    2    1    2  502    0 -0.17011248061E+03  0.91376708866E+02  0.13955955001E+03  0.29425060900E+03  0.17268061245E+03 0.  0.
         24    2    3    3    0    0 -0.16144637666E+03  0.12018745072E+03  0.14636937086E+03  0.26304766260E+03  0.85206362589E+02 0.  0.
         -6    2    1    2    0  501  0.17011248061E+03 -0.91376708866E+02  0.14423251458E+03  0.29666035025E+03  0.17296353999E+03 0.  0.
        -24    2    5    5    0    0  0.71165921994E+02 -0.17749416057E+02  0.22140899758E+01  0.10850423784E+03  0.79928951022E+02 0.  0.
          5    1    3    3  502    0 -0.86661039576E+01 -0.28810741859E+02 -0.68098208541E+01  0.31202946404E+02  0.47000000000E+01 0. -1.
        -13    1    4    4    0    0 -0.14026209673E+03  0.56551980217E+02  0.95400894074E+02  0.17880971124E+03  0.00000000000E+00 0.  1.
         14    1    4    4    0    0 -0.21184279930E+02  0.63635470508E+02  0.50968476786E+02  0.84237951357E+02  0.00000000000E+00 0. -1.
         -5    1    5    5    0  501  0.98946558619E+02 -0.73627292809E+02  0.14201842461E+03  0.18815611241E+03  0.47000000000E+01 0.  1.
         13    1    6    6    0    0  0.71323595783E+02  0.16246366972E+02  0.94146890965E+01  0.73753888887E+02  0.00000000000E+00 0. -1.
        -14    1    6    6    0    0 -0.15767378916E+00 -0.33995783028E+02 -0.72005991207E+01  0.34750348954E+02  0.00000000000E+00 0.  1.
</event>
<event>
12    1  0.1345781E-002  0.1894215E+03  0.7818608E-02  0.1158984E+00
         -1   -1    0    0    0  501 -0.00000000000E+00  0.00000000000E+00  0.82813930670E+02  0.82813930670E+02  0.00000000000E+00 0. -1.
          1   -1    0    0  502    0  0.00000000000E+00 -0.00000000000E+00 -0.49123667006E+03  0.49123667006E+03  0.00000000000E+00 0.  1.
          6    2    1    2  502    0 -0.50852610609E+02  0.62936127382E+02 -0.10767423510E+03  0.21973761134E+03  0.17362008178E+03 0.  0.
         24    2    3    3    0    0 -0.32930253002E+02 -0.25858060580E+02 -0.20308944125E+02  0.93799520260E+02  0.81442347275E+02 0.  0.
         -6    2    1    2    0  501  0.50852610609E+02 -0.62936127382E+02 -0.30074850429E+03  0.35431298939E+03  0.16894107695E+03 0.  0.
        -24    2    5    5    0    0  0.65995545432E+02 -0.10183359750E+03 -0.24757182520E+03  0.28654743136E+03  0.78052086373E+02 0.  0.
          5    1    3    3  502    0 -0.17922357607E+02  0.88794187962E+02 -0.87365290974E+02  0.12593809108E+03  0.47000000000E+01 0. -1.
        -11    1    4    4    0    0 -0.83676992081E+01 -0.47221162789E+02  0.10373250489E+02  0.49065883574E+02  0.00000000000E+00 0.  1.
         12    1    4    4    0    0 -0.24562553794E+02  0.21363102208E+02 -0.30682194613E+02  0.44733636686E+02  0.00000000000E+00 0. -1.
         -5    1    5    5    0  501 -0.15142934823E+02  0.38897470115E+02 -0.53176679087E+02  0.67765558030E+02  0.47000000000E+01 0.  1.
         11    1    6    6    0    0  0.59196714525E+02 -0.55617903367E+02 -0.85727712343E+02  0.11809675207E+03  0.00000000000E+00 0. -1.
        -12    1    6    6    0    0  0.67988309077E+01 -0.46215694130E+02 -0.16184411286E+03  0.16845067929E+03  0.00000000000E+00 0.  1.
</event>
<event>
12    1  0.1345781E-002  0.1749878E+03  0.7818608E-02  0.1172744E+00
          2   -1    0    0  502    0  0.00000000000E+00  0.00000000000E+00  0.97040487506E+03  0.97040487506E+03  0.00000000000E+00 0. -1.
         -2   -1    0    0    0  501 -0.00000000000E+00 -0.00000000000E+00 -0.32408899446E+02  0.32408899446E+02  0.00000000000E+00 0.  1.
          6    2    1    2  502    0  0.27535134720E+02  0.21494246765E+02  0.54411285934E+03  0.57086095582E+03  0.16912492689E+03 0.  0.
         24    2    3    3    0    0  0.13138591474E+02  0.57903188894E+02  0.18249671495E+03  0.20710114852E+03  0.77848782143E+02 0.  0.
         -6    2    1    2    0  501 -0.27535134720E+02 -0.21494246765E+02  0.39388311627E+03  0.43195281868E+03  0.17383653815E+03 0.  0.
        -24    2    5    5    0    0 -0.70687465148E+01 -0.97109105961E+01  0.87601873840E+02  0.12472650223E+03  0.87967852626E+02 0.  0.
          5    1    3    3  502    0  0.14396543246E+02 -0.36408942130E+02  0.36161614439E+03  0.36375980730E+03  0.47000000000E+01 0. -1.
        -11    1    4    4    0    0  0.42904621918E+02  0.31938446335E+02  0.71546217367E+02  0.89329346554E+02  0.00000000000E+00 0.  1.
         12    1    4    4    0    0 -0.29766030444E+02  0.25964742559E+02  0.11095049759E+03  0.11777180197E+03  0.00000000000E+00 0. -1.
         -5    1    5    5    0  501 -0.20466388205E+02 -0.11783336169E+02  0.30628124243E+03  0.30722631645E+03  0.47000000000E+01 0.  1.
         11    1    6    6    0    0  0.29368479488E+02 -0.47661698533E+01  0.82377736275E+02  0.87586045672E+02  0.00000000000E+00 0. -1.
        -12    1    6    6    0    0 -0.36437226003E+02 -0.49447407428E+01  0.52241375644E+01  0.37140456555E+02  0.00000000000E+00 0.  1.
</event>
<event>
12    1  0.1345781E-002  0.1972695E+03  0.7818608E-02  0.1152063E+00
         -2   -1    0    0    0  501 -0.00000000000E+00  0.00000000000E+00  0.79965357657E+03  0.79965357657E+03  0.00000000000E+00 0. -1.
          2   -1    0    0  502    0  0.00000000000E+00 -0.00000000000E+00 -0.48984987345E+02  0.48984987345E+02  0.00000000000E+00 0.  1.
          6    2    1    2  502    0 -0.34943147576E+01 -0.94629263964E+02  0.34277894485E+03  0.39593522316E+03  0.17407006656E+03 0.  0.
         24    2    3    3    0    0  0.60040236646E+02 -0.89188055592E+02  0.23481966546E+03  0.27046195120E+03  0.80312218764E+02 0.  0.
         -6    2    1    2    0  501  0.34943147576E+01  0.94629263964E+02  0.40788964438E+03  0.45270334075E+03  0.17204489213E+03 0.  0.
        -24    2    5    5    0    0  0.16567730969E+02  0.62072768953E+02  0.40404414839E+03  0.41709832119E+03  0.81190007597E+02 0.  0.
          5    1    3    3  502    0 -0.63534551403E+02 -0.54412083718E+01  0.10795927940E+03  0.12547327197E+03  0.47000000000E+01 0. -1.
        -11    1    4    4    0    0 -0.29011888109E+00  0.14228382597E+02  0.20279589398E+02  0.24774841805E+02  0.00000000000E+00 0.  1.
         12    1    4    4    0    0  0.60330355527E+02 -0.10341643819E+03  0.21454007606E+03  0.24568710939E+03  0.00000000000E+00 0. -1.
         -5    1    5    5    0  501 -0.13073416211E+02  0.32556495011E+02  0.38454959833E+01  0.35605019565E+02  0.47000000000E+01 0.  1.
         11    1    6    6    0    0  0.46727095748E+02  0.27537754958E+02  0.16466172229E+03  0.17336444910E+03  0.00000000000E+00 0. -1.
        -12    1    6    6    0    0 -0.30159364779E+02  0.34535013995E+02  0.23938242611E+03  0.24373387209E+03  0.00000000000E+00 0.  1.
</event>
<event>
12    1  0.1345781E-002  0.2096634E+03  0.7818608E-02  0.1141833E+00
          1   -1    0    0  502    0  0.00000000000E+00  0.00000000000E+00  0.29495720048E+03  0.29495720048E+03  0.00000000000E+00 0.  1.
         -1   -1    0    0    0  501 -0.00000000000E+00 -0.00000000000E+00 -0.18135286602E+03  0.18135286602E+03  0.00000000000E+00 0. -1.
          6    2    1    2  502    0 -0.15633827812E+02 -0.11862716269E+03 -0.43680984475E+02  0.21439865450E+03  0.17245850037E+03 0.  0.
         24    2    3    3    0    0  0.34565084987E+02 -0.15923304667E+02 -0.45334333277E+02  0.99974719678E+02  0.80569510793E+02 0.  0.
         -6    2    1    2    0  501  0.15633827812E+02  0.11862716269E+03  0.15728531893E+03  0.26191141199E+03  0.17187814254E+03 0.  0.
        -24    2    5    5    0    0  0.41017539351E+02  0.23974251042E+02  0.25878740543E+02  0.97919688610E+02  0.81617111919E+02 0.  0.
          5    1    3    3  502    0 -0.50198912799E+02 -0.10270385802E+03  0.16533488013E+01  0.11442393482E+03  0.47000000000E+01 0. -1.
        -13    1    4    4    0    0  0.31767870264E+02 -0.19104841598E+02  0.14636105619E+02  0.39854838367E+02  0.00000000000E+00 0.  1.
         14    1    4    4    0    0  0.27972147232E+01  0.31815369318E+01 -0.59970438896E+02  0.60119881311E+02  0.00000000000E+00 0. -1.
         -5    1    5    5    0  501 -0.25383711539E+02  0.94652911644E+02  0.13140657839E+03  0.16399172338E+03  0.47000000000E+01 0.  1.
         11    1    6    6    0    0  0.80339989486E+01  0.36621779522E+02 -0.17998932439E+02  0.41589198639E+02  0.00000000000E+00 0. -1.
        -12    1    6    6    0    0  0.32983540402E+02 -0.12647528480E+02  0.43877672982E+02  0.56330489972E+02  0.00000000000E+00 0.  1.
</event>
<event>
12    1  0.1345781E-002  0.1757908E+03  0.7818608E-02  0.1171940E+00
         -1   -1    0    0    0  501 -0.00000000000E+00  0.00000000000E+00  0.11144764543E+03  0.11144764543E+03  0.00000000000E+00 0. -1.
          1   -1    0    0  502    0  0.00000000000E+00 -0.00000000000E+00 -0.65192634329E+03  0.65192634329E+03  0.00000000000E+00 0.  1.
          6    2    1    2  502    0 -0.40006179878E+01  0.34922437620E+02  0.19034079512E+02  0.17692884084E+03  0.17235410335E+03 0.  0.
         24    2    3    3    0    0 -0.47520040257E+02 -0.29328600461E+02  0.68529781165E-01  0.96904356546E+02  0.79196771337E+02 0.  0.
         -6    2    1    2    0  501  0.40006179878E+01 -0.34922437620E+02 -0.55951277736E+03  0.58644514788E+03  0.17212722577E+03 0.  0.
        -24    2    5    5    0    0  0.26328569813E+02 -0.45560108216E+02 -0.55197186921E+03  0.56016487459E+03  0.79641856359E+02 0.  0.
          5    1    3    3  502    0  0.43519422269E+02  0.64251038081E+02  0.18965549731E+02  0.80024484289E+02  0.47000000000E+01 0. -1.
        -11    1    4    4    0    0 -0.41016921327E+02  0.19134551019E+02  0.11478158987E+02  0.46693329412E+02  0.00000000000E+00 0.  1.
         12    1    4    4    0    0 -0.65031189307E+01 -0.48463151480E+02 -0.11409629206E+02  0.50211027134E+02  0.00000000000E+00 0. -1.
         -5    1    5    5    0  501 -0.22327951825E+02  0.10637670596E+02 -0.75409081564E+01  0.26280273291E+02  0.47000000000E+01 0.  1.
         11    1    6    6    0    0  0.23488043099E+02 -0.64646484945E+02 -0.31567213882E+03  0.32307855920E+03  0.00000000000E+00 0. -1.
        -12    1    6    6    0    0  0.28405267142E+01  0.19086376729E+02 -0.23629973039E+03  0.23708631540E+03  0.00000000000E+00 0.  1.
</event>
<event>
12    1  0.1345781E-002  0.1824540E+03  0.7818608E-02  0.1165449E+00
         -1   -1    0    0    0  501 -0.00000000000E+00  0.00000000000E+00  0.50004472424E+02  0.50004472424E+02  0.00000000000E+00 0.  1.
          1   -1    0    0  502    0  0.00000000000E+00 -0.00000000000E+00 -0.66654469390E+03  0.66654469390E+03  0.00000000000E+00 0. -1.
          6    2    1    2  502    0  0.45070890973E+01 -0.62768880296E+02 -0.32202939679E+03  0.37051461948E+03  0.17209853186E+03 0.  0.
         24    2    3    3    0    0  0.22617315407E+02  0.29325569525E+02 -0.15638824869E+03  0.18007185136E+03  0.81222258901E+02 0.  0.
         -6    2    1    2    0  501 -0.45070890973E+01  0.62768880296E+02 -0.29451082469E+03  0.34603454685E+03  0.17042017359E+03 0.  0.
        -24    2    5    5    0    0 -0.16094741287E+01  0.10565343915E+03 -0.16671575848E+03  0.21112290722E+03  0.74923282198E+02 0.  0.
          5    1    3    3  502    0 -0.18110226310E+02 -0.92094449821E+02 -0.16564114809E+03  0.19044276811E+03  0.47000000000E+01 0. -1.
        -11    1    4    4    0    0  0.22869120582E+02  0.51261416357E+02 -0.64058291163E+02  0.85171557164E+02  0.00000000000E+00 0.  1.
         12    1    4    4    0    0 -0.25180517487E+00 -0.21935846832E+02 -0.92329957529E+02  0.94900294201E+02  0.00000000000E+00 0. -1.
         -5    1    5    5    0  501 -0.28976149686E+01 -0.42884558850E+02 -0.12779506621E+03  0.13491163963E+03  0.47000000000E+01 0.  1.
         11    1    6    6    0    0  0.33704580520E+02  0.67843676025E+02 -0.11691528557E+03  0.13931240837E+03  0.00000000000E+00 0. -1.
        -12    1    6    6    0    0 -0.35314054649E+02  0.37809763121E+02 -0.49800472907E+02  0.71810498848E+02  0.00000000000E+00 0.  1.
</event>
<event>
12    1  0.1345781E-002  0.1753969E+03  0.7818608E-02  0.1172334E+00
          1   -1    0    0  502    0  0.00000000000E+00  0.00000000000E+00  0.10195824633E+04  0.10195824633E+04  0.00000000000E+00 0.  1.
         -1   -1    0    0    0  501 -0.00000000000E+00 -0.00000000000E+00 -0.33472013695E+02  0.33472013695E+02  0.00000000000E+00 0. -1.
          6    2    1    2  502    0  0.27066274978E+02  0.21130750136E+02  0.65966478878E+03  0.68271904454E+03  0.17253570174E+03 0.  0.
         24    2    3    3    0    0 -0.34243132890E+01  0.12017882367E+02  0.13605997273E+03  0.15812699949E+03  0.79596962076E+02 0.  0.
         -6    2    1    2    0  501 -0.27066274978E+02 -0.21130750136E+02  0.32644566079E+03  0.37033543242E+03  0.17147148806E+03 0.  0.
        -24    2    5    5    0    0 -0.36536238957E+01 -0.60269089934E+02  0.11005124666E+03  0.14913734396E+03  0.80529238809E+02 0.  0.
          5    1    3    3  502    0  0.30490588267E+02  0.91128677690E+01  0.52360481605E+03  0.52459204504E+03  0.47000000000E+01 0. -1.
        -11    1    4    4    0    0 -0.35053939604E-01 -0.28177372757E+02  0.10042531967E+03  0.10430345342E+03  0.00000000000E+00 0.  1.
         12    1    4    4    0    0 -0.33892593494E+01  0.40195255124E+02  0.35634653058E+02  0.53823546074E+02  0.00000000000E+00 0. -1.
         -5    1    5    5    0  501 -0.23412651082E+02  0.39138339798E+02  0.21639441412E+03  0.22119808846E+03  0.47000000000E+01 0.  1.
         11    1    6    6    0    0  0.96655129038E+01 -0.58261875734E+02  0.11908069131E+03  0.13292132766E+03  0.00000000000E+00 0. -1.
        -12    1    6    6    0    0 -0.13319136800E+02 -0.20072141996E+01 -0.90294446514E+01  0.16216016300E+02  0.00000000000E+00 0.  1.
</event>
<event>
12    1  0.1345781E-002  0.1766831E+03  0.7818608E-02  0.1171052E+00
          2   -1    0    0  502    0  0.00000000000E+00  0.00000000000E+00  0.58201602023E+03  0.58201602023E+03  0.00000000000E+00 0. -1.
         -2   -1    0    0    0  501 -0.00000000000E+00 -0.00000000000E+00 -0.63675746313E+02  0.63675746313E+02  0.00000000000E+00 0.  1.
          6    2    1    2  502    0  0.46105799029E+02  0.24110204714E+02  0.38676023464E+03  0.42500424911E+03  0.16833919921E+03 0.  0.
         24    2    3    3    0    0 -0.14242630963E+02  0.31247014015E+02  0.11464863669E+03  0.14615002414E+03  0.83882603907E+02 0.  0.
         -6    2    1    2    0  501 -0.46105799029E+02 -0.24110204714E+02  0.13158003929E+03  0.22068751744E+03  0.16935946073E+03 0.  0.
        -24    2    5    5    0    0  0.35976474522E+02 -0.45449147299E+01  0.91126315605E+02  0.12699176533E+03  0.80671804846E+02 0.  0.
          5    1    3    3  502    0  0.60348429992E+02 -0.71368093008E+01  0.27211159794E+03  0.27885422497E+03  0.47000000000E+01 0. -1.
        -11    1    4    4    0    0 -0.10383230263E+02 -0.20570827522E+01  0.11202127680E+03  0.11252026269E+03  0.00000000000E+00 0.  1.
         12    1    4    4    0    0 -0.38594007002E+01  0.33304096767E+02  0.26273598985E+01  0.33629761451E+02  0.00000000000E+00 0. -1.
         -5    1    5    5    0  501 -0.82082273551E+02 -0.19565289984E+02  0.40453723681E+02  0.93695752108E+02  0.47000000000E+01 0.  1.
         13    1    6    6    0    0  0.40123267014E+02 -0.22419750397E+02  0.97317950394E+02  0.10762576472E+03  0.00000000000E+00 0. -1.
        -14    1    6    6    0    0 -0.41467924922E+01  0.17874835667E+02 -0.61916347886E+01  0.19366000606E+02  0.00000000000E+00 0.  1.
</event>
<event>
12    1  0.1345781E-002  0.1842426E+03  0.7818608E-02  0.1163759E+00
          2   -1    0    0  502    0  0.00000000000E+00  0.00000000000E+00  0.39433213461E+03  0.39433213461E+03  0.00000000000E+00 0.  1.
         -2   -1    0    0    0  501 -0.00000000000E+00 -0.00000000000E+00 -0.88648005863E+02  0.88648005863E+02  0.00000000000E+00 0. -1.
          6    2    1    2  502    0  0.84144965899E+02  0.17524827690E+02  0.10670781192E+03  0.20624172276E+03  0.15414796856E+03 0.  0.
         24    2    3    3    0    0  0.86382086990E+02  0.35127218402E+02  0.12837007467E+03  0.17784819362E+03  0.80344990367E+02 0.  0.
         -6    2    1    2    0  501 -0.84144965899E+02 -0.17524827690E+02  0.19897631683E+03  0.27673841772E+03  0.17206127487E+03 0.  0.
        -24    2    5    5    0    0 -0.12679052213E+02 -0.24085624456E+01  0.18749038961E+03  0.20264459329E+03  0.75799904074E+02 0.  0.
          5    1    3    3  502    0 -0.22371210907E+01 -0.17602390712E+02 -0.21662262752E+02  0.28393529141E+02  0.47000000000E+01 0. -1.
        -13    1    4    4    0    0  0.18182916062E+02 -0.25815651039E+02  0.30708712211E+02  0.44046467291E+02  0.00000000000E+00 0.  1.
         14    1    4    4    0    0  0.68199170928E+02  0.60942869441E+02  0.97661362458E+02  0.13380172633E+03  0.00000000000E+00 0. -1.
         -5    1    5    5    0  501 -0.71465913687E+02 -0.15116265244E+02  0.11485927228E+02  0.74093824427E+02  0.47000000000E+01 0.  1.
         11    1    6    6    0    0  0.28867307503E+02  0.52281573462E+00  0.39641441957E+02  0.49041193900E+02  0.00000000000E+00 0. -1.
        -12    1    6    6    0    0 -0.41546359715E+02 -0.29313781802E+01  0.14784894765E+03  0.15360339939E+03  0.00000000000E+00 0.  1.
</event>
<event>
12    1  0.1345781E-002  0.1738743E+03  0.7818608E-02  0.1173867E+00
          2   -1    0    0  502    0  0.00000000000E+00  0.00000000000E+00  0.31272290032E+03  0.31272290032E+03  0.00000000000E+00 0. -1.
         -2   -1    0    0    0  501 -0.00000000000E+00 -0.00000000000E+00 -0.98677920100E+02  0.98677920100E+02  0.00000000000E+00 0.  1.
          6    2    1    2  502    0 -0.52809621996E+01 -0.16415498888E+02  0.77710874025E+02  0.19044942227E+03  0.17301631523E+03 0.  0.
         24    2    3    3    0    0 -0.36155067112E+00 -0.28318867004E+02  0.11567559952E+03  0.15008481941E+03  0.91337395118E+02 0.  0.
         -6    2    1    2    0  501  0.52809621996E+01  0.16415498888E+02  0.13633410619E+03  0.22095139815E+03  0.17301784494E+03 0.  0.
        -24    2    5    5    0    0  0.16549219671E+02 -0.12426116272E+02  0.16137001821E+03  0.18085527263E+03  0.78994061949E+02 0.  0.
          5    1    3    3  502    0 -0.49194115285E+01  0.11903368116E+02 -0.37964725492E+02  0.40364602859E+02  0.47000000000E+01 0. -1.
        -13    1    4    4    0    0 -0.16916730516E+02  0.29024445061E+02  0.58343793580E+02  0.67324530684E+02  0.00000000000E+00 0.  1.
         14    1    4    4    0    0  0.16555179845E+02 -0.57343312065E+02  0.57331805937E+02  0.82760288728E+02  0.00000000000E+00 0. -1.
         -5    1    5    5    0  501 -0.11268257471E+02  0.28841615159E+02 -0.25035912014E+02  0.40096125521E+02  0.47000000000E+01 0.  1.
         13    1    6    6    0    0 -0.10545481280E+02 -0.19844143606E+02  0.64084953300E+01  0.23368055616E+02  0.00000000000E+00 0. -1.
        -14    1    6    6    0    0  0.27094700951E+02  0.74180273347E+01  0.15496152288E+03  0.15748721701E+03  0.00000000000E+00 0.  1.
</event>
<event>
12    1  0.1345781E-002  0.1772541E+03  0.7818608E-02  0.1170487E+00
         -1   -1    0    0    0  501 -0.00000000000E+00  0.00000000000E+00  0.28718263273E+03  0.28718263273E+03  0.00000000000E+00 0.  1.
          1   -1    0    0  502    0  0.00000000000E+00 -0.00000000000E+00 -0.27848056956E+03  0.27848056956E+03  0.00000000000E+00 0. -1.
          6    2    1    2  502    0  0.32302138714E+02 -0.14737631281E+02 -0.21598068032E+03  0.28103478483E+03  0.17627328235E+03 0.  0.
         24    2    3    3    0    0  0.33648625499E+02  0.16852983174E+02 -0.30525842552E+02  0.92845075226E+02  0.79196766919E+02 0.  0.
         -6    2    1    2    0  501 -0.32302138714E+02  0.14737631281E+02  0.22468274349E+03  0.28462841746E+03  0.17108586984E+03 0.  0.
        -24    2    5    5    0    0 -0.43830360672E+02 -0.51910611206E+02  0.15817828404E+03  0.18965567792E+03  0.79580742351E+02 0.  0.
          5    1    3    3  502    0 -0.13464867848E+01 -0.31590614455E+02 -0.18545483777E+03  0.18818970961E+03  0.47000000000E+01 0. -1.
        -13    1    4    4    0    0  0.32859948453E+02 -0.38647482830E+01  0.19700806031E+02  0.38507586914E+02  0.00000000000E+00 0.  1.
         14    1    4    4    0    0  0.78867704600E+00  0.20717731457E+02 -0.50226648584E+02  0.54337488313E+02  0.00000000000E+00 0. -1.
         -5    1    5    5    0  501  0.11528221958E+02  0.66648242488E+02  0.66504459451E+02  0.94972739537E+02  0.47000000000E+01 0.  1.
         11    1    6    6    0    0  0.49494904183E+01 -0.74563788696E+01 -0.72697498170E+01  0.11530147599E+02  0.00000000000E+00 0. -1.
        -12    1    6    6    0    0 -0.48779851091E+02 -0.44454232337E+02  0.16544803386E+03  0.17812553032E+03  0.00000000000E+00 0.  1.
</event>
<event>
12    1  0.1345781E-002  0.1746786E+03  0.7818608E-02  0.1173055E+00
          2   -1    0    0  502    0  0.00000000000E+00  0.00000000000E+00  0.63005513696E+02  0.63005513696E+02  0.00000000000E+00 0. -1.
         -2   -1    0    0    0  501 -0.00000000000E+00 -0.00000000000E+00 -0.48483977379E+03  0.48483977379E+03  0.00000000000E+00 0.  1.
          6    2    1    2  502    0  0.10802766594E+01 -0.29953866706E+02 -0.20172118808E+03  0.26687837159E+03  0.17214594498E+03 0.  0.
         24    2    3    3    0    0  0.38445021799E+02 -0.73539678696E+02 -0.15432853543E+03  0.19228614202E+03  0.79186864593E+02 0.  0.
         -6    2    1    2    0  501 -0.10802766594E+01  0.29953866706E+02 -0.22011307201E+03  0.28096691589E+03  0.17202977134E+03 0.  0.
        -24    2    5    5    0    0 -0.64669447732E+02  0.23766321171E+02 -0.10756679401E+03  0.15146547540E+03  0.81389185847E+02 0.  0.
          5    1    3    3  502    0 -0.37364745140E+02  0.43585811990E+02 -0.47392652654E+02  0.74592229567E+02  0.47000000000E+01 0. -1.
        -11    1    4    4    0    0  0.28648451776E+02 -0.73558268264E+02 -0.16175719301E+03  0.17999150566E+03  0.00000000000E+00 0.  1.
         12    1    4    4    0    0  0.97965700238E+01  0.18589568044E-01  0.74286575851E+01  0.12294636364E+02  0.00000000000E+00 0. -1.
         -5    1    5    5    0  501  0.63589171072E+02  0.61875455351E+01 -0.11254627800E+03  0.12950144049E+03  0.47000000000E+01 0.  1.
         13    1    6    6    0    0 -0.15481426954E+02  0.26366383256E+02  0.27026764899E+01  0.30694709752E+02  0.00000000000E+00 0. -1.
        -14    1    6    6    0    0 -0.49188020777E+02 -0.26000620850E+01 -0.11026947050E+03  0.12077076565E+03  0.00000000000E+00 0.  1.
</event>
<event>
12    1  0.1345781E-002  0.1873805E+03  0.7818608E-02  0.1160845E+00
          4   -1    0    0  502    0  0.00000000000E+00  0.00000000000E+00  0.11999243478E+03  0.11999243478E+03  0.00000000000E+00 0.  1.
         -4   -1    0    0    0  501 -0.00000000000E+00 -0.00000000000E+00 -0.30344026933E+03  0.30344026933E+03  0.00000000000E+00 0. -1.
          6    2    1    2  502    0  0.39306891476E+02 -0.64054922481E+02 -0.51442697462E+02  0.19370825482E+03  0.17096336465E+03 0.  0.
         24    2    3    3    0    0  0.93111056697E+02 -0.42188135895E+02 -0.47468211970E+02  0.13530507780E+03  0.74864712926E+02 0.  0.
         -6    2    1    2    0  501 -0.39306891476E+02  0.64054922481E+02 -0.13200513709E+03  0.22972444929E+03  0.17233659383E+03 0.  0.
        -24    2    5    5    0    0 -0.31124038749E+02  0.11062382840E+03 -0.75131707793E+02  0.15561440249E+03  0.73244327749E+02 0.  0.
          5    1    3    3  502    0 -0.53804165221E+02 -0.21866786586E+02 -0.39744854921E+01  0.58403177017E+02  0.47000000000E+01 0. -1.
        -11    1    4    4    0    0  0.94885222882E+02 -0.30482802956E+02 -0.15048349918E+02  0.10079116843E+03  0.00000000000E+00 0.  1.
         12    1    4    4    0    0 -0.17741661852E+01 -0.11705332939E+02 -0.32419862052E+02  0.34513909375E+02  0.00000000000E+00 0. -1.
         -5    1    5    5    0  501 -0.81828527268E+01 -0.46568905921E+02 -0.56873429299E+02  0.74110046806E+02  0.47000000000E+01 0.  1.
         11    1    6    6    0    0 -0.33516337760E+02  0.11987119778E+02 -0.86211605786E+01  0.36624586648E+02  0.00000000000E+00 0. -1.
        -12    1    6    6    0    0  0.23922990117E+01  0.98636708624E+02 -0.66510547214E+02  0.11898981584E+03  0.00000000000E+00 0.  1.
</event>
<event>
12    1  0.1345781E-002  0.1764963E+03  0.7818608E-02  0.1171238E+00
         -2   -1    0    0    0  501 -0.00000000000E+00  0.00000000000E+00  0.90134719171E+02  0.90134719171E+02  0.00000000000E+00 0.  1.
          2   -1    0    0  502    0  0.00000000000E+00 -0.00000000000E+00 -0.42358703304E+03  0.42358703304E+03  0.00000000000E+00 0. -1.
          6    2    1    2  502    0 -0.29538591581E+02  0.28674985897E+02 -0.27723793806E+03  0.32886238719E+03  0.17203142795E+03 0.  0.
         24    2    3    3    0    0  0.37440424257E+02  0.10187778308E+02 -0.79562121752E+02  0.11927759824E+03  0.79946469773E+02 0.  0.
         -6    2    1    2    0  501  0.29538591581E+02 -0.28674985897E+02 -0.56214375810E+02  0.18485936502E+03  0.17122542328E+03 0.  0.
        -24    2    5    5    0    0  0.62286805612E+02  0.31813642858E+02 -0.27341274315E+02  0.11011268803E+03  0.80532631639E+02 0.  0.
          5    1    3    3  502    0 -0.66979015838E+02  0.18487207589E+02 -0.19767581630E+03  0.20958478895E+03  0.47000000000E+01 0. -1.
        -11    1    4    4    0    0  0.33880307962E+02  0.34741009415E+02 -0.16082662057E+02  0.51122060029E+02  0.00000000000E+00 0.  1.
         12    1    4    4    0    0  0.35601162948E+01 -0.24553231107E+02 -0.63479459695E+02  0.68155538212E+02  0.00000000000E+00 0. -1.
         -5    1    5    5    0  501 -0.32748214031E+02 -0.60488628755E+02 -0.28873101495E+02  0.74746676989E+02  0.47000000000E+01 0.  1.
         11    1    6    6    0    0  0.24765221701E+02 -0.11161667764E+02 -0.43081738862E+02  0.50930690713E+02  0.00000000000E+00 0. -1.
        -12    1    6    6    0    0  0.37521583911E+02  0.42975310622E+02  0.15740464546E+02  0.59181997316E+02  0.00000000000E+00 0.  1.
</event>
<event>
12    1  0.1345781E-002  0.3983633E+03  0.7818608E-02  0.1044348E+00
          1   -1    0    0  502    0  0.00000000000E+00  0.00000000000E+00  0.33383771767E+03  0.33383771767E+03  0.00000000000E+00 0.  1.
         -1   -1    0    0    0  501 -0.00000000000E+00 -0.00000000000E+00 -0.11510101572E+04  0.11510101572E+04  0.00000000000E+00 0. -1.
          6    2    1    2  502    0 -0.11848764778E+02  0.35925870987E+03  0.16030103295E+03  0.42925394401E+03  0.17133392378E+03 0.  0.
         24    2    3    3    0    0 -0.26384390699E+02  0.33332355863E+03  0.18468025854E+03  0.39051955192E+03  0.81228023009E+02 0.  0.
         -6    2    1    2    0  501  0.11848764778E+02 -0.35925870987E+03 -0.97747347253E+03  0.10555939309E+04  0.17209573966E+03 0.  0.
        -24    2    5    5    0    0 -0.49136639700E+01 -0.65830686969E+02 -0.28879798040E+03  0.30681024578E+03  0.79814973485E+02 0.  0.
          5    1    3    3  502    0  0.14535625921E+02  0.25935151239E+02 -0.24379225588E+02  0.38734392095E+02  0.47000000000E+01 0. -1.
        -11    1    4    4    0    0 -0.32291674515E+02  0.20752524044E+03  0.73452702849E+02  0.22249669036E+03  0.00000000000E+00 0.  1.
         12    1    4    4    0    0  0.59072838159E+01  0.12579831819E+03  0.11122755569E+03  0.16802286156E+03  0.00000000000E+00 0. -1.
         -5    1    5    5    0  501  0.16762428748E+02 -0.29342802290E+03 -0.68867549213E+03  0.74878368512E+03  0.47000000000E+01 0.  1.
         11    1    6    6    0    0 -0.35999386486E+02 -0.26807984989E+02 -0.19982506770E+03  0.20480400769E+03  0.00000000000E+00 0. -1.
        -12    1    6    6    0    0  0.31085722516E+02 -0.39022701980E+02 -0.88972912703E+02  0.10200623809E+03  0.00000000000E+00 0.  1.
</event>
<event>
12    1  0.1345781E-002  0.2172662E+03  0.7818608E-02  0.1135938E+00
         -1   -1    0    0    0  501 -0.00000000000E+00  0.00000000000E+00  0.58895995581E+03  0.58895995581E+03  0.00000000000E+00 0. -1.
          1   -1    0    0  502    0  0.00000000000E+00 -0.00000000000E+00 -0.10638178587E+03  0.10638178587E+03  0.00000000000E+00 0.  1.
          6    2    1    2  502    0  0.12478472854E+03  0.44053727454E+02  0.41367222839E+03  0.46711187719E+03  0.17192101061E+03 0.  0.
         24    2    3    3    0    0  0.67705801307E+02  0.87829885064E+02  0.25968567120E+03  0.29708745040E+03  0.92337105852E+02 0.  0.
         -6    2    1    2    0  501 -0.12478472854E+03 -0.44053727454E+02  0.68905941553E+02  0.22822986449E+03  0.17271040179E+03 0.  0.
        -24    2    5    5    0    0 -0.52434465014E+02 -0.10134092690E+02  0.10324385919E+03  0.14113058296E+03  0.80040452460E+02 0.  0.
          5    1    3    3  502    0  0.57078927237E+02 -0.43776157609E+02  0.15398655719E+03  0.17002442679E+03  0.47000000000E+01 0. -1.
        -13    1    4    4    0    0  0.18527087484E+02 -0.16080586598E+02  0.21543181295E+02  0.32648842189E+02  0.00000000000E+00 0.  1.
         14    1    4    4    0    0  0.49178713824E+02  0.10391047166E+03  0.23814248990E+03  0.26443860821E+03  0.00000000000E+00 0. -1.
         -5    1    5    5    0  501 -0.72350263529E+02 -0.33919634764E+02 -0.34337917641E+02  0.87099281531E+02  0.47000000000E+01 0.  1.
         11    1    6    6    0    0 -0.18499077225E+02  0.33728561255E+02  0.27645044790E+02  0.47371723675E+02  0.00000000000E+00 0. -1.
        -12    1    6    6    0    0 -0.33935387790E+02 -0.43862653945E+02  0.75598814404E+02  0.93758859288E+02  0.00000000000E+00 0.  1.
</event>
<event>
12    1  0.1345781E-002  0.1790850E+03  0.7818608E-02  0.1168691E+00
         -2   -1    0    0    0  501 -0.00000000000E+00  0.00000000000E+00  0.22402029167E+02  0.22402029167E+02  0.00000000000E+00 0. -1.
          2   -1    0    0  502    0  0.00000000000E+00 -0.00000000000E+00 -0.19006899949E+04  0.19006899949E+04  0.00000000000E+00 0.  1.
          6    2    1    2  502    0 -0.49959091477E+02 -0.15356440291E+02 -0.46169351638E+03  0.49522949263E+03  0.17134648006E+03 0.  0.
         24    2    3    3    0    0 -0.83447101311E+02 -0.26680320633E+02 -0.21398566113E+03  0.24496773243E+03  0.80895417274E+02 0.  0.
         -6    2    1    2    0  501  0.49959091477E+02  0.15356440291E+02 -0.14165944493E+04  0.14278625314E+04  0.17123038181E+03 0.  0.
        -24    2    5    5    0    0  0.84941750138E+01 -0.41659825638E+02 -0.47797401752E+03  0.48658648323E+03  0.80619799993E+02 0.  0.
          5    1    3    3  502    0  0.33488009834E+02  0.11323880342E+02 -0.24770785525E+03  0.25026176020E+03  0.47000000000E+01 0. -1.
        -11    1    4    4    0    0 -0.69744721564E+02 -0.17911635559E+02 -0.21681122630E+03  0.22845625560E+03  0.00000000000E+00 0.  1.
         12    1    4    4    0    0 -0.13702379747E+02 -0.87686850739E+01  0.28255651640E+01  0.16511476832E+02  0.00000000000E+00 0. -1.
         -5    1    5    5    0  501  0.41464916463E+02  0.57016265930E+02 -0.93862043183E+03  0.94127604820E+03  0.47000000000E+01 0.  1.
         11    1    6    6    0    0 -0.27746270036E+02 -0.44597670340E+02 -0.33331547129E+03  0.33742852739E+03  0.00000000000E+00 0. -1.
        -12    1    6    6    0    0  0.36240445050E+02  0.29378447020E+01 -0.14465854624E+03  0.14915795583E+03  0.00000000000E+00 0.  1.
</event>
<event>
12    1  0.1345781E-002  0.1773516E+03  0.7818608E-02  0.1170391E+00
          1   -1    0    0  502    0  0.00000000000E+00  0.00000000000E+00  0.21032143217E+04  0.21032143217E+04  0.00000000000E+00 0.  1.
         -1   -1    0    0    0  501 -0.00000000000E+00 -0.00000000000E+00 -0.16409983860E+02  0.16409983860E+02  0.00000000000E+00 0. -1.
          6    2    1    2  502    0 -0.91609639590E+01 -0.41200245325E+02  0.13626132625E+04  0.13741949242E+04  0.17296069823E+03 0.  0.
         24    2    3    3    0    0 -0.60976549141E+02 -0.27744973867E+02  0.11323788496E+04  0.11377718414E+04  0.88062369837E+02 0.  0.
         -6    2    1    2    0  501  0.91609639590E+01  0.41200245325E+02  0.72419107535E+03  0.74542938135E+03  0.17155426397E+03 0.  0.
        -24    2    5    5    0    0 -0.21919162346E+02  0.25204621702E+02  0.69273856479E+03  0.69817279824E+03  0.80267144162E+02 0.  0.
          5    1    3    3  502    0  0.51815585182E+02 -0.13455271459E+02  0.23023441287E+03  0.23642308278E+03  0.47000000000E+01 0. -1.
        -13    1    4    4    0    0  0.15578624986E+02 -0.10467746764E+02  0.52608698202E+03  0.52642167502E+03  0.00000000000E+00 0.  1.
         14    1    4    4    0    0 -0.76555174127E+02 -0.17277227103E+02  0.60629186759E+03  0.61135016641E+03  0.00000000000E+00 0. -1.
         -5    1    5    5    0  501  0.31080126305E+02  0.15995623623E+02  0.31452510567E+02  0.47256583110E+02  0.47000000000E+01 0.  1.
         13    1    6    6    0    0  0.29961372694E+02  0.96998142685E+01  0.19940289563E+03  0.20187442888E+03  0.00000000000E+00 0. -1.
        -14    1    6    6    0    0 -0.51880535040E+02  0.15504807434E+02  0.49333566916E+03  0.49629836936E+03  0.00000000000E+00 0.  1.
</event>
<event>
12    1  0.1345781E-002  0.1851857E+03  0.7818608E-02  0.1162877E+00
          1   -1    0    0  502    0  0.00000000000E+00  0.00000000000E+00  0.70331214376E+03  0.70331214376E+03  0.00000000000E+00 0.  1.
         -1   -1    0    0    0  501 -0.00000000000E+00 -0.00000000000E+00 -0.48834349088E+02  0.48834349088E+02  0.00000000000E+00 0. -1.
          6    2    1    2  502    0 -0.69028000684E+02  0.46765690568E+01  0.34054480168E+03  0.38729870445E+03  0.17100523191E+03 0.  0.
         24    2    3    3    0    0 -0.93998743413E+02 -0.34101639900E+02  0.18229422420E+03  0.22239684650E+03  0.78933437461E+02 0.  0.
         -6    2    1    2    0  501  0.69028000684E+02 -0.46765690568E+01  0.31393299299E+03  0.36484778840E+03  0.17254926669E+03 0.  0.
        -24    2    5    5    0    0 -0.16533154609E+02 -0.18365085821E+02  0.56800154098E+02  0.93467108129E+02  0.69994437049E+02 0.  0.
          5    1    3    3  502    0  0.24970742729E+02  0.38778208956E+02  0.15825057748E+03  0.16490185795E+03  0.47000000000E+01 0. -1.
        -11    1    4    4    0    0 -0.56378284920E+02  0.12606343742E+02  0.47244482695E+02  0.74628895598E+02  0.00000000000E+00 0.  1.
         12    1    4    4    0    0 -0.37620458493E+02 -0.46707983642E+02  0.13504974151E+03  0.14776795090E+03  0.00000000000E+00 0. -1.
         -5    1    5    5    0  501  0.85561155293E+02  0.13688516764E+02  0.25713283889E+03  0.27138068027E+03  0.47000000000E+01 0.  1.
         11    1    6    6    0    0  0.13968095621E+02  0.20475405209E+02  0.20721789409E+02  0.32307003422E+02  0.00000000000E+00 0. -1.
        -12    1    6    6    0    0 -0.30501250231E+02 -0.38840491030E+02  0.36078364689E+02  0.61160104707E+02  0.00000000000E+00 0.  1.
</event>
<event>
12    1  0.1345781E-002  0.2102370E+03  0.7818608E-02  0.1141378E+00
          1   -1    0    0  502    0  0.00000000000E+00  0.00000000000E+00  0.10461881914E+04  0.10461881914E+04  0.00000000000E+00 0.  1.
         -1   -1    0    0    0  501 -0.00000000000E+00 -0.00000000000E+00 -0.87361949586E+02  0.87361949586E+02  0.00000000000E+00 0. -1.
          6    2    1    2  502    0  0.85280455234E+02 -0.82292418538E+02  0.88602890432E+03  0.91048961067E+03  0.17291418005E+03 0.  0.
         24    2    3    3    0    0  0.69854090655E+02 -0.11442622295E+03  0.82560183243E+03  0.84017549312E+03  0.79394704175E+02 0.  0.
         -6    2    1    2    0  501 -0.85280455234E+02  0.82292418538E+02  0.72797337475E+02  0.22306053029E+03  0.17438964888E+03 0.  0.
        -24    2    5    5    0    0 -0.78430780863E+02 -0.12999298693E+00  0.84249007903E+02  0.13943276746E+03  0.78690514197E+02 0.  0.
          5    1    3    3  502    0  0.15426364579E+02  0.32133804410E+02  0.60427071892E+02  0.70314117554E+02  0.47000000000E+01 0. -1.
        -13    1    4    4    0    0  0.31188469378E+02 -0.23550835184E+02  0.45383686026E+03  0.45551647412E+03  0.00000000000E+00 0.  1.
         14    1    4    4    0    0  0.38665621277E+02 -0.90875387764E+02  0.37176497216E+03  0.38465901900E+03  0.00000000000E+00 0. -1.
         -5    1    5    5    0  501 -0.68496743710E+01  0.82422411525E+02 -0.11451670428E+02  0.83627762831E+02  0.47000000000E+01 0.  1.
         13    1    6    6    0    0 -0.31385044970E+02  0.34938391868E+02  0.16437642396E+02  0.49758500395E+02  0.00000000000E+00 0. -1.
        -14    1    6    6    0    0 -0.47045735893E+02 -0.35068384855E+02  0.67811365507E+02  0.89674267067E+02  0.00000000000E+00 0.  1.
</event>
<event>
12    1  0.1345781E-002  0.1809321E+03  0.7818608E-02  0.1166904E+00
         -2   -1    0    0    0  501 -0.00000000000E+00  0.00000000000E+00  0.60748952475E+02  0.60748952475E+02  0.00000000000E+00 0. -1.
          2   -1    0    0  502    0  0.00000000000E+00 -0.00000000000E+00 -0.57850370191E+03  0.57850370191E+03  0.00000000000E+00 0.  1.
          6    2    1    2  502    0  0.46075784253E+02 -0.31737182555E+01 -0.17853504301E+03  0.25591338035E+03  0.17743687969E+03 0.  0.
         24    2    3    3    0    0  0.62001895902E+02 -0.77203758782E+01 -0.20229555179E+03  0.22657117687E+03  0.80667023099E+02 0.  0.
         -6    2    1    2    0  501 -0.46075784253E+02  0.31737182555E+01 -0.33921970643E+03  0.38333927404E+03  0.17247011165E+03 0.  0.
        -24    2    5    5    0    0 -0.42042654556E+02  0.66605862077E+02 -0.21119545954E+03  0.24032808288E+03  0.83367497427E+02 0.  0.
          5    1    3    3  502    0 -0.15926111648E+02  0.45466576227E+01  0.23760508775E+02  0.29342203479E+02  0.47000000000E+01 0. -1.
        -11    1    4    4    0    0  0.14035308305E+02  0.34831452913E+02 -0.65713334591E+02  0.75686606043E+02  0.00000000000E+00 0.  1.
         12    1    4    4    0    0  0.47966587597E+02 -0.42551828791E+02 -0.13658221719E+03  0.15088457082E+03  0.00000000000E+00 0. -1.
         -5    1    5    5    0  501 -0.40331296972E+01 -0.63432143822E+02 -0.12802424689E+03  0.14301119116E+03  0.47000000000E+01 0.  1.
         11    1    6    6    0    0 -0.11171290097E+02  0.65928744746E+02 -0.74154569348E+02  0.99851375861E+02  0.00000000000E+00 0. -1.
        -12    1    6    6    0    0 -0.30871364460E+02  0.67711733117E+00 -0.13704089019E+03  0.14047670702E+03  0.00000000000E+00 0.  1.
</event>
<event>
12    1  0.1345781E-002  0.1922699E+03  0.7818608E-02  0.1156430E+00
          2   -1    0    0  502    0  0.00000000000E+00  0.00000000000E+00  0.30951762075E+04  0.30951762075E+04  0.00000000000E+00 0.  1.
         -2   -1    0    0    0  501 -0.00000000000E+00 -0.00000000000E+00 -0.19775920412E+02  0.19775920412E+02  0.00000000000E+00 0. -1.
          6    2    1    2  502    0 -0.84049495690E+02  0.15563080243E+02  0.55999672357E+03  0.59224953318E+03  0.17279077509E+03 0.  0.
         24    2    3    3    0    0 -0.49705814031E+02  0.74660634925E+02  0.32027634094E+03  0.34293053815E+03  0.83543647699E+02 0.  0.
         -6    2    1    2    0  501  0.84049495690E+02 -0.15563080243E+02  0.25154035635E+04  0.25227025947E+04  0.17165886778E+03 0.  0.
        -24    2    5    5    0    0  0.12273724869E+03 -0.36644738112E+01  0.19559688923E+04  0.19617858804E+04  0.87816127490E+02 0.  0.
          5    1    3    3  502    0 -0.34343681659E+02 -0.59097554683E+02  0.23972038263E+03  0.24931899504E+03  0.47000000000E+01 0. -1.
        -13    1    4    4    0    0 -0.20796640961E+02  0.72245965891E+02  0.29507929424E+03  0.30450577951E+03  0.00000000000E+00 0.  1.
         14    1    4    4    0    0 -0.28909173071E+02  0.24146690347E+01  0.25197046700E+02  0.38424758640E+02  0.00000000000E+00 0. -1.
         -5    1    5    5    0  501 -0.38687752996E+02 -0.11898606431E+02  0.55943467122E+03  0.56091671435E+03  0.47000000000E+01 0.  1.
         11    1    6    6    0    0 -0.10493131021E+02  0.78936869370E+01  0.81338176131E+02  0.82391231259E+02  0.00000000000E+00 0. -1.
        -12    1    6    6    0    0  0.13323037971E+03 -0.11558160748E+02  0.18746307162E+04  0.18793946491E+04  0.00000000000E+00 0.  1.
</event>
<event>
12    1  0.1345781E-002  0.1977215E+03  0.7818608E-02  0.1151676E+00
         -1   -1    0    0    0  501 -0.00000000000E+00  0.00000000000E+00  0.13778589847E+02  0.13778589847E+02  0.00000000000E+00 0.  1.
          1   -1    0    0  502    0  0.00000000000E+00 -0.00000000000E+00 -0.28382923003E+04  0.28382923003E+04  0.00000000000E+00 0. -1.
          6    2    1    2  502    0 -0.95771106334E+02  0.11392853771E+02 -0.13906835204E+04  0.14047642446E+04  0.17337827705E+03 0.  0.
         24    2    3    3    0    0 -0.38079349845E+02 -0.38305407589E+02 -0.41561621288E+03  0.42671690412E+03  0.80206849559E+02 0.  0.
         -6    2    1    2    0  501  0.95771106334E+02 -0.11392853771E+02 -0.14338301900E+04  0.14473066456E+04  0.17183017934E+03 0.  0.
        -24    2    5    5    0    0  0.10082127572E+03  0.59143387166E+01 -0.75855100669E+03  0.77177048178E+03  0.10015057546E+03 0.  0.
          5    1    3    3  502    0 -0.57691756489E+02  0.49698261360E+02 -0.97506730754E+03  0.97804734046E+03  0.47000000000E+01 0. -1.
        -13    1    4    4    0    0  0.74718542628E+01 -0.48268832322E+02 -0.17865022983E+03  0.18520694749E+03  0.00000000000E+00 0.  1.
         14    1    4    4    0    0 -0.45551204108E+02  0.99634247333E+01 -0.23696598305E+03  0.24150995663E+03  0.00000000000E+00 0. -1.
         -5    1    5    5    0  501 -0.50501693833E+01 -0.17307192488E+02 -0.67527918336E+03  0.67553616380E+03  0.47000000000E+01 0.  1.
         13    1    6    6    0    0  0.17237953130E+02  0.28492246848E+02 -0.66985434814E+02  0.74806441138E+02  0.00000000000E+00 0. -1.
        -14    1    6    6    0    0  0.83583322588E+02 -0.22577908132E+02 -0.69156557187E+03  0.69696404064E+03  0.00000000000E+00 0.  1.
</event>
<event>
12    1  0.1345781E-002  0.1802752E+03  0.7818608E-02  0.1167537E+00
         -1   -1    0    0    0  501 -0.00000000000E+00  0.00000000000E+00  0.42834997667E+02  0.42834997667E+02  0.00000000000E+00 0.  1.
          1   -1    0    0  502    0  0.00000000000E+00 -0.00000000000E+00 -0.75958772650E+03  0.75958772650E+03  0.00000000000E+00 0. -1.
          6    2    1    2  502    0  0.51385303076E+02 -0.69057462385E+01 -0.36912876466E+03  0.41022577709E+03  0.17129216148E+03 0.  0.
         24    2    3    3    0    0  0.48940052670E+02  0.39711756787E+02 -0.11643232336E+03  0.15321069527E+03  0.77103040400E+02 0.  0.
         -6    2    1    2    0  501 -0.51385303076E+02  0.69057462385E+01 -0.34762396417E+03  0.39219694707E+03  0.17403415218E+03 0.  0.
        -24    2    5    5    0    0  0.17554991091E+02 -0.16754490820E+02 -0.28341915474E+03  0.29495025802E+03  0.77976578278E+02 0.  0.
          5    1    3    3  502    0  0.24452504057E+01 -0.46617503025E+02 -0.25269644131E+03  0.25701508183E+03  0.47000000000E+01 0. -1.
        -11    1    4    4    0    0 -0.70273150710E+01  0.18984688009E+02  0.22487777059E+01  0.20368076421E+02  0.00000000000E+00 0.  1.
         12    1    4    4    0    0  0.55967367741E+02  0.20727068778E+02 -0.11868110106E+03  0.13284261885E+03  0.00000000000E+00 0. -1.
         -5    1    5    5    0  501 -0.68940294167E+02  0.23660237059E+02 -0.64204809431E+02  0.97246689052E+02  0.47000000000E+01 0.  1.
         13    1    6    6    0    0  0.43076022165E+02  0.10301491132E+02 -0.14421310917E+03  0.15086114563E+03  0.00000000000E+00 0. -1.
        -14    1    6    6    0    0 -0.25521031074E+02 -0.27055981952E+02 -0.13920604557E+03  0.14408911239E+03  0.00000000000E+00 0.  1.
</event>
<event>
12    1  0.1345781E-002  0.2453824E+03  0.7818608E-02  0.1116258E+00
         -3   -1    0    0    0  501 -0.00000000000E+00  0.00000000000E+00  0.86508145527E+03  0.86508145527E+03  0.00000000000E+00 0. -1.
          3   -1    0    0  502    0  0.00000000000E+00 -0.00000000000E+00 -0.88356265949E+02  0.88356265949E+02  0.00000000000E+00 0.  1.
          6    2    1    2  502    0 -0.84358095679E+02 -0.15374328028E+03  0.16865392055E+03  0.29769638253E+03  0.17153922791E+03 0.  0.
         24    2    3    3    0    0 -0.42489090670E+02 -0.28902905613E+02  0.12888540016E+03  0.16006732331E+03  0.79808526086E+02 0.  0.
         -6    2    1    2    0  501  0.84358095679E+02  0.15374328028E+03  0.60807126877E+03  0.65574133870E+03  0.17173453594E+03 0.  0.
        -24    2    5    5    0    0  0.12251285029E+03  0.14189792742E+03  0.53071578058E+03  0.56855155010E+03  0.80294489629E+02 0.  0.
          5    1    3    3  502    0 -0.41869005008E+02 -0.12484037467E+03  0.39768520391E+02  0.13762905922E+03  0.47000000000E+01 0. -1.
        -13    1    4    4    0    0 -0.48925153595E+02 -0.51720318397E+02  0.95278781894E+02  0.11893993555E+03  0.00000000000E+00 0.  1.
         14    1    4    4    0    0  0.64360629241E+01  0.22817412784E+02  0.33606618270E+02  0.41127387756E+02  0.00000000000E+00 0. -1.
         -5    1    5    5    0  501 -0.38154754607E+02  0.11845352859E+02  0.77355488185E+02  0.87189788599E+02  0.47000000000E+01 0.  1.
         11    1    6    6    0    0  0.30956386292E+02 -0.23492144589E+01  0.11450686490E+03  0.11864079724E+03  0.00000000000E+00 0. -1.
        -12    1    6    6    0    0  0.91556463993E+02  0.14424714188E+03  0.41620891568E+03  0.44991075285E+03  0.00000000000E+00 0.  1.
</event>
<event>
12    1  0.1345781E-002  0.1755319E+03  0.7818608E-02  0.1172199E+00
          1   -1    0    0  502    0  0.00000000000E+00  0.00000000000E+00  0.57700415900E+03  0.57700415900E+03  0.00000000000E+00 0.  1.
         -1   -1    0    0    0  501 -0.00000000000E+00 -0.00000000000E+00 -0.56007516151E+02  0.56007516151E+02  0.00000000000E+00 0. -1.
          6    2    1    2  502    0 -0.65128753660E+01 -0.49753752218E+02  0.33475693719E+03  0.38015114215E+03  0.17301685025E+03 0.  0.
         24    2    3    3    0    0 -0.50359457219E+02  0.44207946100E+01  0.26542495176E+03  0.28173153806E+03  0.79791203562E+02 0.  0.
         -6    2    1    2    0  501  0.65128753660E+01  0.49753752218E+02  0.18623970566E+03  0.25286053301E+03  0.16350953423E+03 0.  0.
        -24    2    5    5    0    0  0.30730754503E+02 -0.56643796036E+01  0.35925996211E+02  0.90768040114E+02  0.77276745751E+02 0.  0.
          5    1    3    3  502    0  0.43846581853E+02 -0.54174546828E+02  0.69331985435E+02  0.98419604086E+02  0.47000000000E+01 0. -1.
        -11    1    4    4    0    0  0.15322230106E+02  0.19678567520E+02  0.10063179823E+03  0.10367630188E+03  0.00000000000E+00 0.  1.
         12    1    4    4    0    0 -0.65681687325E+02 -0.15257772910E+02  0.16479315352E+03  0.17805523618E+03  0.00000000000E+00 0. -1.
         -5    1    5    5    0  501 -0.24217879137E+02  0.55418131821E+02  0.15031370945E+03  0.16209249289E+03  0.47000000000E+01 0.  1.
         13    1    6    6    0    0 -0.73195507864E+01 -0.32826438098E+02  0.33747014273E+01  0.33801471442E+02  0.00000000000E+00 0. -1.
        -14    1    6    6    0    0  0.38050305289E+02  0.27162058494E+02  0.32551294784E+02  0.56966568673E+02  0.00000000000E+00 0.  1.
</event>
<event>
12    1  0.1345781E-002  0.2622505E+03  0.7818608E-02  0.1105799E+00
         -2   -1    0    0    0  501 -0.00000000000E+00  0.00000000000E+00  0.11038647324E+03  0.11038647324E+03  0.00000000000E+00 0.  1.
          2   -1    0    0  502    0  0.00000000000E+00 -0.00000000000E+00 -0.65296406732E+03  0.65296406732E+03  0.00000000000E+00 0. -1.
          6    2    1    2  502    0  0.22859762407E+02  0.20205932827E+03 -0.19459344481E+03  0.33044334009E+03  0.17313477805E+03 0.  0.
         24    2    3    3    0    0  0.55180094441E+02  0.19947949757E+03 -0.12649012121E+03  0.25486945522E+03  0.78241776973E+02 0.  0.
         -6    2    1    2    0  501 -0.22859762407E+02 -0.20205932827E+03 -0.34798414926E+03  0.43290720047E+03  0.15800359238E+03 0.  0.
        -24    2    5    5    0    0 -0.71161217215E+02 -0.12109854905E+03 -0.19393730458E+03  0.25224121401E+03  0.79279092579E+02 0.  0.
          5    1    3    3  502    0 -0.32320332035E+02  0.25798306932E+01 -0.68103323603E+02  0.75573884875E+02  0.47000000000E+01 0. -1.
        -13    1    4    4    0    0  0.52506218472E+02  0.64361074178E+02 -0.69088990172E+02  0.10803952707E+03  0.00000000000E+00 0.  1.
         14    1    4    4    0    0  0.26738759692E+01  0.13511842340E+03 -0.57401131040E+02  0.14682992814E+03  0.00000000000E+00 0. -1.
         -5    1    5    5    0  501  0.48301454808E+02 -0.80960779222E+02 -0.15404684468E+03  0.18066598646E+03  0.47000000000E+01 0.  1.
         13    1    6    6    0    0 -0.46795590983E+02 -0.94669855507E+02 -0.18824953556E+03  0.21584739173E+03  0.00000000000E+00 0. -1.
        -14    1    6    6    0    0 -0.24365626232E+02 -0.26428693538E+02 -0.56877690219E+01  0.36393822282E+02  0.00000000000E+00 0.  1.
</event>
<event>
12    1  0.1345781E-002  0.1826547E+03  0.7818608E-02  0.1165258E+00
          1   -1    0    0  502    0  0.00000000000E+00  0.00000000000E+00  0.42214705616E+03  0.42214705616E+03  0.00000000000E+00 0. -1.
         -1   -1    0    0    0  501 -0.00000000000E+00 -0.00000000000E+00 -0.79034611673E+02  0.79034611673E+02  0.00000000000E+00 0.  1.
          6    2    1    2  502    0 -0.37320816981E+02 -0.42126399411E+02  0.17059929393E+03  0.24904788577E+03  0.17249131400E+03 0.  0.
         24    2    3    3    0    0 -0.14817513210E+02  0.13379746084E+02  0.16240527007E+02  0.83409575597E+02  0.79339941270E+02 0.  0.
         -6    2    1    2    0  501  0.37320816981E+02  0.42126399411E+02  0.17251315055E+03  0.25213378207E+03  0.17505193526E+03 0.  0.
        -24    2    5    5    0    0  0.42407918530E+02  0.74524185151E+01  0.19166505965E+03  0.21192123209E+03  0.79505618825E+02 0.  0.
          5    1    3    3  502    0 -0.22503303771E+02 -0.55506145495E+02  0.15435876693E+03  0.16563831017E+03  0.47000000000E+01 0. -1.
        -11    1    4    4    0    0  0.89776241878E+01  0.28763867442E+02 -0.20917156342E+02  0.36680856529E+02  0.00000000000E+00 0.  1.
         12    1    4    4    0    0 -0.23795137398E+02 -0.15384121359E+02  0.37157683350E+02  0.46728719067E+02  0.00000000000E+00 0. -1.
         -5    1    5    5    0  501 -0.50871015490E+01  0.34673980896E+02 -0.19151909099E+02  0.40212549975E+02  0.47000000000E+01 0.  1.
         13    1    6    6    0    0  0.19958757838E+01  0.28693027052E+02  0.14022104586E+03  0.14314054291E+03  0.00000000000E+00 0. -1.
        -14    1    6    6    0    0  0.40412042746E+02 -0.21240608537E+02  0.51444013791E+02  0.68780689186E+02  0.00000000000E+00 0.  1.
</event>
<event>
12    1  0.1345781E-002  0.1889290E+03  0.7818608E-02  0.1159431E+00
         -1   -1    0    0    0  501 -0.00000000000E+00  0.00000000000E+00  0.41442694282E+03  0.41442694282E+03  0.00000000000E+00 0.  1.
          1   -1    0    0  502    0  0.00000000000E+00 -0.00000000000E+00 -0.86912748615E+02  0.86912748615E+02  0.00000000000E+00 0. -1.
          6    2    1    2  502    0  0.63593201783E+02 -0.42194529571E+02  0.18762055789E+03  0.26631104838E+03  0.17290351966E+03 0.  0.
         24    2    3    3    0    0  0.58561050919E+02 -0.29976917897E+02  0.29063794898E+02  0.10713526609E+03  0.79405596625E+02 0.  0.
         -6    2    1    2    0  501 -0.63593201783E+02  0.42194529571E+02  0.13989363631E+03  0.23502864305E+03  0.17275346577E+03 0.  0.
        -24    2    5    5    0    0 -0.40161002621E+02  0.81334593389E+02  0.14563739127E+03  0.18881075394E+03  0.78810080906E+02 0.  0.
          5    1    3    3  502    0  0.50321508642E+01 -0.12217611674E+02  0.15855676299E+03  0.15917578229E+03  0.47000000000E+01 0. -1.
        -13    1    4    4    0    0 -0.11833187232E+02  0.46305219318E+01  0.25643948673E+02  0.28619541523E+02  0.00000000000E+00 0.  1.
         14    1    4    4    0    0  0.70394238151E+02 -0.34607439828E+02  0.34198462242E+01  0.78515724568E+02  0.00000000000E+00 0. -1.
         -5    1    5    5    0  501 -0.23432199162E+02 -0.39140063818E+02 -0.57437549576E+01  0.46217889115E+02  0.47000000000E+01 0.  1.
         13    1    6    6    0    0  0.70284008869E+01  0.31210086385E+02  0.52054308839E+01  0.32412411541E+02  0.00000000000E+00 0. -1.
        -14    1    6    6    0    0 -0.47189403508E+02  0.50124507003E+02  0.14043196039E+03  0.15639834240E+03  0.00000000000E+00 0.  1.
</event>
<event>
12    1  0.1345781E-002  0.1733379E+03  0.7818608E-02  0.1174411E+00
         -2   -1    0    0    0  501 -0.00000000000E+00  0.00000000000E+00  0.42521969174E+02  0.42521969174E+02  0.00000000000E+00 0. -1.
          2   -1    0    0  502    0  0.00000000000E+00 -0.00000000000E+00 -0.83422374398E+03  0.83422374398E+03  0.00000000000E+00 0.  1.
          6    2    1    2  502    0  0.14287000889E+02  0.18148925200E+02 -0.56789229595E+03  0.59384509453E+03  0.17209542299E+03 0.  0.
         24    2    3    3    0    0  0.49906744268E+02 -0.21075735742E+02 -0.48904736677E+03  0.49873487950E+03  0.81451110060E+02 0.  0.
         -6    2    1    2    0  501 -0.14287000889E+02 -0.18148925200E+02 -0.22380947885E+03  0.28290061862E+03  0.17148928629E+03 0.  0.
        -24    2    5    5    0    0  0.40411011416E+02 -0.32902503258E+02 -0.19967685407E+03  0.22114291307E+03  0.79484070016E+02 0.  0.
          5    1    3    3  502    0 -0.35619743379E+02  0.39224660942E+02 -0.78844929186E+02  0.95110215029E+02  0.47000000000E+01 0. -1.
        -13    1    4    4    0    0  0.46988557219E+02  0.22904712468E+02 -0.22177194451E+03  0.22784939266E+03  0.00000000000E+00 0.  1.
         14    1    4    4    0    0  0.29181870496E+01 -0.43980448210E+02 -0.26727542226E+03  0.27088548684E+03  0.00000000000E+00 0. -1.
         -5    1    5    5    0  501 -0.54698012305E+02  0.14753578058E+02 -0.24132624778E+02  0.61757705546E+02  0.47000000000E+01 0.  1.
         11    1    6    6    0    0 -0.16690425457E+02 -0.19356410041E+02 -0.21013255309E+02  0.33087728999E+02  0.00000000000E+00 0. -1.
        -12    1    6    6    0    0  0.57101436874E+02 -0.13546093218E+02 -0.17866359876E+03  0.18805518407E+03  0.00000000000E+00 0.  1.
</event>
<event>
12    1  0.1345781E-002  0.2264023E+03  0.7818608E-02  0.1129198E+00
         -1   -1    0    0    0  501 -0.00000000000E+00  0.00000000000E+00  0.99013008578E+02  0.99013008578E+02  0.00000000000E+00 0. -1.
          1   -1    0    0  502    0  0.00000000000E+00 -0.00000000000E+00 -0.68241789391E+03  0.68241789391E+03  0.00000000000E+00 0.  1.
          6    2    1    2  502    0  0.61471361791E+01 -0.14831903689E+03 -0.48057549748E+03  0.52993431116E+03  0.16685694884E+03 0.  0.
         24    2    3    3    0    0  0.63371005938E+02 -0.71659307568E+02 -0.31739802721E+03  0.34072473906E+03  0.78745789564E+02 0.  0.
         -6    2    1    2    0  501 -0.61471361791E+01  0.14831903689E+03 -0.10282938785E+03  0.25149659133E+03  0.17504379011E+03 0.  0.
        -24    2    5    5    0    0 -0.66646789854E+02  0.12084195896E+03 -0.55539439672E+02  0.16980432055E+03  0.81879816041E+02 0.  0.
          5    1    3    3  502    0 -0.57223869759E+02 -0.76659729326E+02 -0.16317747027E+03  0.18920957210E+03  0.47000000000E+01 0. -1.
        -11    1    4    4    0    0  0.33405094798E+02 -0.62052759717E+02 -0.10789222802E+03  0.12886884113E+03  0.00000000000E+00 0.  1.
         12    1    4    4    0    0  0.29965911140E+02 -0.96065478508E+01 -0.20950579920E+03  0.21185589793E+03  0.00000000000E+00 0. -1.
         -5    1    5    5    0  501  0.60499653674E+02  0.27477077939E+02 -0.47289948176E+02  0.81692270780E+02  0.47000000000E+01 0.  1.
         11    1    6    6    0    0 -0.23352300263E+02  0.96158059003E+02 -0.53849618895E+01  0.99099445272E+02  0.00000000000E+00 0. -1.
        -12    1    6    6    0    0 -0.43294489591E+02  0.24683899953E+02 -0.50154477783E+02  0.70704875274E+02  0.00000000000E+00 0.  1.
</event>
<event>
12    1  0.1345781E-002  0.1980031E+03  0.7818608E-02  0.1151435E+00
         -2   -1    0    0    0  501 -0.00000000000E+00  0.00000000000E+00  0.34456879236E+03  0.34456879236E+03  0.00000000000E+00 0.  1.
          2   -1    0    0  502    0  0.00000000000E+00 -0.00000000000E+00 -0.11517874565E+03  0.11517874565E+03  0.00000000000E+00 0. -1.
          6    2    1    2  502    0  0.65868558306E+02  0.75077455886E+02  0.13953003671E+03  0.24155130253E+03  0.17000914462E+03 0.  0.
         24    2    3    3    0    0 -0.17380023214E+02  0.55872597484E+02  0.11660759495E+03  0.15296980758E+03  0.79866253664E+02 0.  0.
         -6    2    1    2    0  501 -0.65868558306E+02 -0.75077455886E+02  0.89860010005E+02  0.21819623548E+03  0.17192871903E+03 0.  0.
        -24    2    5    5    0    0 -0.57725738595E+02  0.12137057685E+02  0.99637474959E+01  0.99544730424E+02  0.79563232875E+02 0.  0.
          5    1    3    3  502    0  0.83248581519E+02  0.19204858402E+02  0.22922441756E+02  0.88581494948E+02  0.47000000000E+01 0. -1.
        -11    1    4    4    0    0 -0.63634066190E+00 -0.75393101391E+00  0.86831554178E+02  0.86837158765E+02  0.00000000000E+00 0.  1.
         12    1    4    4    0    0 -0.16743682552E+02  0.56626528498E+02  0.29776040772E+02  0.66132648814E+02  0.00000000000E+00 0. -1.
         -5    1    5    5    0  501 -0.81428197106E+01 -0.87214513570E+02  0.79896262509E+02  0.11865150506E+03  0.47000000000E+01 0.  1.
         11    1    6    6    0    0  0.86774348698E+01 -0.21787343459E+02  0.85577982729E+01  0.24964417121E+02  0.00000000000E+00 0. -1.
        -12    1    6    6    0    0 -0.66403173465E+02  0.33924401144E+02  0.14059492230E+01  0.74580313303E+02  0.00000000000E+00 0.  1.
</event>
<event>
12    1  0.1345781E-002  0.1727909E+03  0.7818608E-02  0.1174968E+00
          1   -1    0    0  502    0  0.00000000000E+00  0.00000000000E+00  0.14611099517E+04  0.14611099517E+04  0.00000000000E+00 0. -1.
         -1   -1    0    0    0  501 -0.00000000000E+00 -0.00000000000E+00 -0.22070547147E+02  0.22070547147E+02  0.00000000000E+00 0.  1.
          6    2    1    2  502    0  0.10786026324E+02  0.20560526071E+02  0.91689894792E+03  0.93282434232E+03  0.17005440108E+03 0.  0.
         24    2    3    3    0    0  0.59074336435E+02  0.19305166788E+02  0.37729457941E+03  0.39104182014E+03  0.81853764467E+02 0.  0.
         -6    2    1    2    0  501 -0.10786026324E+02 -0.20560526071E+02  0.52214045659E+03  0.55035615648E+03  0.17240118613E+03 0.  0.
        -24    2    5    5    0    0  0.55653564439E+02 -0.83365907304E+01  0.20186068457E+03  0.22299570350E+03  0.76239948999E+02 0.  0.
          5    1    3    3  502    0 -0.48288310111E+02  0.12553592823E+01  0.53960436852E+03  0.54178252218E+03  0.47000000000E+01 0. -1.
        -11    1    4    4    0    0 -0.14828577950E+02 -0.86678297503E+01  0.27424686806E+02  0.32359410424E+02  0.00000000000E+00 0.  1.
         12    1    4    4    0    0  0.73902914385E+02  0.27972996539E+02  0.34986989260E+03  0.35868240972E+03  0.00000000000E+00 0. -1.
         -5    1    5    5    0  501 -0.66439590763E+02 -0.12223935340E+02  0.32027977201E+03  0.32736045298E+03  0.47000000000E+01 0.  1.
         13    1    6    6    0    0  0.65486408866E+02  0.15575965338E+02  0.12605250377E+03  0.14289966462E+03  0.00000000000E+00 0. -1.
        -14    1    6    6    0    0 -0.98328444273E+01 -0.23912556068E+02  0.75808180803E+02  0.80096038878E+02  0.00000000000E+00 0.  1.
</event>
<event>
12    1  0.1345781E-002  0.2808695E+03  0.7818608E-02  0.1095215E+00
         -2   -1    0    0    0  501 -0.00000000000E+00  0.00000000000E+00  0.50645773477E+02  0.50645773477E+02  0.00000000000E+00 0.  1.
          2   -1    0    0  502    0  0.00000000000E+00 -0.00000000000E+00 -0.15858258021E+04  0.15858258021E+04  0.00000000000E+00 0. -1.
          6    2    1    2  502    0  0.20750446367E+03  0.80560654131E+02 -0.65819255798E+03  0.71557069907E+03  0.17110190106E+03 0.  0.
         24    2    3    3    0    0  0.11783948075E+03  0.11639136955E+02 -0.21186212830E+03  0.25511122512E+03  0.78578387874E+02 0.  0.
         -6    2    1    2    0  501 -0.20750446367E+03 -0.80560654131E+02 -0.87698747060E+03  0.92090087646E+03  0.17147384421E+03 0.  0.
        -24    2    5    5    0    0 -0.43568620059E+02 -0.67484379263E+02 -0.29778050538E+03  0.31878066559E+03  0.80594771984E+02 0.  0.
          5    1    3    3  502    0  0.89664982924E+02  0.68921517176E+02 -0.44633042969E+03  0.46045947396E+03  0.47000000000E+01 0. -1.
        -11    1    4    4    0    0  0.59224182353E+02 -0.18938737222E+02 -0.48430941533E+02  0.78814564902E+02  0.00000000000E+00 0.  1.
         12    1    4    4    0    0  0.58615298395E+02  0.30577874176E+02 -0.16343118676E+03  0.17629666021E+03  0.00000000000E+00 0. -1.
         -5    1    5    5    0  501 -0.16393584361E+03 -0.13076274868E+02 -0.57920696522E+03  0.60212021087E+03  0.47000000000E+01 0.  1.
         11    1    6    6    0    0  0.20124492023E+02 -0.30735303706E+02 -0.13943799237E+03  0.14419642087E+03  0.00000000000E+00 0. -1.
        -12    1    6    6    0    0 -0.63693112082E+02 -0.36749075557E+02 -0.15834251301E+03  0.17458424472E+03  0.00000000000E+00 0.  1.
</event>
<event>
12    1  0.1345781E-002  0.4886989E+03  0.7818608E-02  0.1016771E+00
         -2   -1    0    0    0  501 -0.00000000000E+00  0.00000000000E+00  0.78126048096E+02  0.78126048096E+02  0.00000000000E+00 0.  1.
          2   -1    0    0  502    0  0.00000000000E+00 -0.00000000000E+00 -0.32938532224E+04  0.32938532224E+04  0.00000000000E+00 0. -1.
          6    2    1    2  502    0 -0.23935241533E+03 -0.38980370469E+03 -0.20584957566E+04  0.21155949505E+04  0.17058929594E+03 0.  0.
         24    2    3    3    0    0 -0.90550296042E+02 -0.27518578414E+03 -0.13507225854E+04  0.13833079233E+04  0.71852181602E+02 0.  0.
         -6    2    1    2    0  501  0.23935241533E+03  0.38980370469E+03 -0.11572314177E+04  0.12563843200E+04  0.17343730397E+03 0.  0.
        -24    2    5    5    0    0  0.37498787075E+02  0.12982182059E+03 -0.32194090213E+03  0.35857153173E+03  0.81656198603E+02 0.  0.
          5    1    3    3  502    0 -0.14880211929E+03 -0.11461792054E+03 -0.70777317113E+03  0.73228702719E+03  0.47000000000E+01 0. -1.
        -13    1    4    4    0    0  0.36159709668E+01 -0.91272352725E+02 -0.45245373751E+03  0.46158217275E+03  0.00000000000E+00 0.  1.
         14    1    4    4    0    0 -0.94166267009E+02 -0.18391343142E+03 -0.89826884793E+03  0.92172575056E+03  0.00000000000E+00 0. -1.
         -5    1    5    5    0  501  0.20185362826E+03  0.25998188410E+03 -0.83529051562E+03  0.89781278827E+03  0.47000000000E+01 0.  1.
         13    1    6    6    0    0  0.13008097856E+02  0.44266341961E+02 -0.21281846626E+03  0.21776229982E+03  0.00000000000E+00 0. -1.
        -14    1    6    6    0    0  0.24490689219E+02  0.85555478628E+02 -0.10912243587E+03  0.14080923191E+03  0.00000000000E+00 0.  1.
</event>
<event>
12    1  0.1345781E-002  0.2151087E+03  0.7818608E-02  0.1137583E+00
          1   -1    0    0  502    0  0.00000000000E+00  0.00000000000E+00  0.90746221920E+03  0.90746221920E+03  0.00000000000E+00 0.  1.
         -1   -1    0    0    0  501 -0.00000000000E+00 -0.00000000000E+00 -0.70930749353E+02  0.70930749353E+02  0.00000000000E+00 0. -1.
          6    2    1    2  502    0 -0.10950536964E+03  0.68339798260E+02  0.67701307241E+03  0.71022896254E+03  0.17151304619E+03 0.  0.
         24    2    3    3    0    0 -0.43128519638E+02  0.43567723154E+02  0.58497248799E+03  0.59398309766E+03  0.82854649214E+02 0.  0.
         -6    2    1    2    0  501  0.10950536964E+03 -0.68339798260E+02  0.15951839744E+03  0.26816400601E+03  0.17263852697E+03 0.  0.
        -24    2    5    5    0    0  0.13214153774E+03 -0.93683765121E+02  0.14031783296E+03  0.22885161053E+03  0.80286558970E+02 0.  0.
          5    1    3    3  502    0 -0.66376850000E+02  0.24772075106E+02  0.92040584415E+02  0.11624586487E+03  0.47000000000E+01 0. -1.
        -13    1    4    4    0    0 -0.47815565223E+02  0.50631541587E+02  0.57997742350E+03  0.58414355517E+03  0.00000000000E+00 0.  1.
         14    1    4    4    0    0  0.46870455846E+01 -0.70638184326E+01  0.49950644931E+01  0.98395424920E+01  0.00000000000E+00 0. -1.
         -5    1    5    5    0  501 -0.22636168100E+02  0.25343966862E+02  0.19200564482E+02  0.39312395488E+02  0.47000000000E+01 0.  1.
         13    1    6    6    0    0  0.12227181568E+03 -0.83326652943E+02  0.82749779517E+02  0.16953245710E+03  0.00000000000E+00 0. -1.
        -14    1    6    6    0    0  0.98697220591E+01 -0.10357112178E+02  0.57568053442E+02  0.59319153427E+02  0.00000000000E+00 0.  1.
</event>
<event>
12    1  0.1345781E-002  0.2372670E+03  0.7818608E-02  0.1121627E+00
         -1   -1    0    0    0  501 -0.00000000000E+00  0.00000000000E+00  0.12245268017E+03  0.12245268017E+03  0.00000000000E+00 0. -1.
          1   -1    0    0  502    0  0.00000000000E+00 -0.00000000000E+00 -0.52967591720E+03  0.52967591720E+03  0.00000000000E+00 0.  1.
          6    2    1    2  502    0  0.13974526232E+03  0.86780253170E+02 -0.32272172082E+03  0.40105782048E+03  0.17215840263E+03 0.  0.
         24    2    3    3    0    0  0.32362937446E+01  0.55571836760E+02 -0.14176777704E+03  0.17220178817E+03  0.80353286199E+02 0.  0.
         -6    2    1    2    0  501 -0.13974526232E+03 -0.86780253170E+02 -0.84501516204E+02  0.25107077689E+03  0.16981306807E+03 0.  0.
        -24    2    5    5    0    0 -0.20845605161E+02 -0.84039009352E+02 -0.44263831238E+02  0.12542920662E+03  0.79221870523E+02 0.  0.
          5    1    3    3  502    0  0.13650896857E+03  0.31208416410E+02 -0.18095394378E+03  0.22885603231E+03  0.47000000000E+01 0. -1.
        -13    1    4    4    0    0  0.20568968833E+02  0.37307765147E+02 -0.18598226027E+02  0.46484898951E+02  0.00000000000E+00 0.  1.
         14    1    4    4    0    0 -0.17332675088E+02  0.18264071614E+02 -0.12316955101E+03  0.12571688922E+03  0.00000000000E+00 0. -1.
         -5    1    5    5    0  501 -0.11889965716E+03 -0.27412438178E+01 -0.40237684966E+02  0.12564157027E+03  0.47000000000E+01 0.  1.
         11    1    6    6    0    0 -0.41640640240E+02 -0.22583255844E+02 -0.87385660964E+00  0.47378370481E+02  0.00000000000E+00 0. -1.
        -12    1    6    6    0    0  0.20795035079E+02 -0.61455753508E+02 -0.43389974628E+02  0.78050836135E+02  0.00000000000E+00 0.  1.
</event>
<event>
12    1  0.1345781E-002  0.1791918E+03  0.7818608E-02  0.1168588E+00
         -2   -1    0    0    0  501 -0.00000000000E+00  0.00000000000E+00  0.65397151159E+02  0.65397151159E+02  0.00000000000E+00 0.  1.
          2   -1    0    0  502    0  0.00000000000E+00 -0.00000000000E+00 -0.51802303717E+03  0.51802303717E+03  0.00000000000E+00 0. -1.
          6    2    1    2  502    0 -0.53154147497E+02 -0.89047527748E+00 -0.15843080086E+03  0.23839306795E+03  0.17001405778E+03 0.  0.
         24    2    3    3    0    0 -0.68580490195E+02 -0.32962133524E+02 -0.44165955795E+02  0.11862200246E+03  0.79566085329E+02 0.  0.
         -6    2    1    2    0  501  0.53154147497E+02  0.89047527748E+00 -0.29419508515E+03  0.34502712038E+03  0.17224055657E+03 0.  0.
        -24    2    5    5    0    0 -0.35997190965E+02 -0.70752352694E+01 -0.17585167965E+03  0.19657286709E+03  0.79819935655E+02 0.  0.
          5    1    3    3  502    0  0.15426342698E+02  0.32071658246E+02 -0.11426484506E+03  0.11977106549E+03  0.47000000000E+01 0. -1.
        -11    1    4    4    0    0 -0.38370328607E+02  0.16458978898E+02  0.57661796215E+01  0.42147703748E+02  0.00000000000E+00 0.  1.
         12    1    4    4    0    0 -0.30210161588E+02 -0.49421112422E+02 -0.49932135417E+02  0.76474298712E+02  0.00000000000E+00 0. -1.
         -5    1    5    5    0  501  0.89151338462E+02  0.79657105468E+01 -0.11834340551E+03  0.14845425329E+03  0.47000000000E+01 0.  1.
         13    1    6    6    0    0 -0.30081882959E+02  0.28556499906E+02 -0.13865090275E+03  0.14472203081E+03  0.00000000000E+00 0. -1.
        -14    1    6    6    0    0 -0.59153080059E+01 -0.35631735175E+02 -0.37200776897E+02  0.51850836273E+02  0.00000000000E+00 0.  1.
</event>
<event>
12    1  0.1345781E-002  0.1982292E+03  0.7818608E-02  0.1151242E+00
         -2   -1    0    0    0  501 -0.00000000000E+00  0.00000000000E+00  0.48112270782E+02  0.48112270782E+02  0.00000000000E+00 0. -1.
          2   -1    0    0  502    0  0.00000000000E+00 -0.00000000000E+00 -0.82811231141E+03  0.82811231141E+03  0.00000000000E+00 0.  1.
          6    2    1    2  502    0 -0.98962951970E+02  0.28104025981E+01 -0.33908487457E+03  0.39289180442E+03  0.17199957439E+03 0.  0.
         24    2    3    3    0    0 -0.47484732900E+02  0.62323257126E+02 -0.14328686319E+03  0.18182134663E+03  0.79930524128E+02 0.  0.
         -6    2    1    2    0  501  0.98962951970E+02 -0.28104025981E+01 -0.44091516606E+03  0.48333277778E+03  0.17147252313E+03 0.  0.
        -24    2    5    5    0    0  0.47017419589E+02 -0.24112473178E+02 -0.40554704306E+03  0.41681127246E+03  0.80443667291E+02 0.  0.
          5    1    3    3  502    0 -0.51478219070E+02 -0.59512854528E+02 -0.19579801138E+03  0.21107045779E+03  0.47000000000E+01 0. -1.
        -13    1    4    4    0    0  0.68815203707E+01  0.27891897790E+02 -0.10054339151E+03  0.10456714045E+03  0.00000000000E+00 0.  1.
         14    1    4    4    0    0 -0.54366253271E+02  0.34431359336E+02 -0.42743471680E+02  0.77254206175E+02  0.00000000000E+00 0. -1.
         -5    1    5    5    0  501  0.51945532381E+02  0.21302070580E+02 -0.35368123001E+02  0.66521505320E+02  0.47000000000E+01 0.  1.
         11    1    6    6    0    0  0.56737028343E+01  0.26317481329E+02 -0.70257151018E+02  0.75238739998E+02  0.00000000000E+00 0. -1.
        -12    1    6    6    0    0  0.41343716754E+02 -0.50429954507E+02 -0.33528989204E+03  0.34157253246E+03  0.00000000000E+00 0.  1.
</event>
<event>
12    1  0.1345781E-002  0.1827251E+03  0.7818608E-02  0.1165191E+00
         -2   -1    0    0    0  501 -0.00000000000E+00  0.00000000000E+00  0.48691179790E+02  0.48691179790E+02  0.00000000000E+00 0. -1.
          2   -1    0    0  502    0  0.00000000000E+00 -0.00000000000E+00 -0.16824162979E+04  0.16824162979E+04  0.00000000000E+00 0.  1.
          6    2    1    2  502    0 -0.63980543443E+02  0.59528959371E+01 -0.14904395326E+03  0.23511507201E+03  0.17010599687E+03 0.  0.
         24    2    3    3    0    0 -0.10231433956E+03  0.29741082400E+02 -0.12884651807E+03  0.18546243735E+03  0.80262907925E+02 0.  0.
         -6    2    1    2    0  501  0.63980543443E+02 -0.59528959371E+01 -0.14846811648E+04  0.14959924057E+04  0.17200630715E+03 0.  0.
        -24    2    5    5    0    0  0.13665653196E+02 -0.66116526211E+02 -0.90616834248E+03  0.91216843715E+03  0.79699734679E+02 0.  0.
          5    1    3    3  502    0  0.38333796117E+02 -0.23788186463E+02 -0.20197435199E+02  0.49652634658E+02  0.47000000000E+01 0. -1.
        -11    1    4    4    0    0 -0.49948060635E+02  0.61885259693E+01 -0.11625067400E+03  0.12667804001E+03  0.00000000000E+00 0.  1.
         12    1    4    4    0    0 -0.52366278924E+02  0.23552556430E+02 -0.12595844061E+02  0.58784397338E+02  0.00000000000E+00 0. -1.
         -5    1    5    5    0  501  0.50314890247E+02  0.60163630274E+02 -0.57851282237E+03  0.58382396853E+03  0.47000000000E+01 0.  1.
         11    1    6    6    0    0  0.24028856186E+02  0.17766612049E+00 -0.87028082187E+02  0.90284575559E+02  0.00000000000E+00 0. -1.
        -12    1    6    6    0    0 -0.10363202989E+02 -0.66294192332E+02 -0.81914026029E+03  0.82188386159E+03  0.00000000000E+00 0.  1.
</event>
<event>
12    1  0.1345781E-002  0.2156673E+03  0.7818608E-02  0.1137155E+00
          1   -1    0    0  502    0  0.00000000000E+00  0.00000000000E+00  0.20353349490E+04  0.20353349490E+04  0.00000000000E+00 0.  1.
         -1   -1    0    0    0  501 -0.00000000000E+00 -0.00000000000E+00 -0.33829129434E+02  0.33829129434E+02  0.00000000000E+00 0. -1.
          6    2    1    2  502    0  0.10595190864E+03 -0.83185539871E+02  0.41410309898E+03  0.46729181245E+03  0.16951289159E+03 0.  0.
         24    2    3    3    0    0  0.46492519903E+02 -0.28233398658E+02  0.35049322282E+03  0.36422162725E+03  0.82784148893E+02 0.  0.
         -6    2    1    2    0  501 -0.10595190864E+03  0.83185539871E+02  0.15874027206E+04  0.16018722660E+04  0.16733713932E+03 0.  0.
        -24    2    5    5    0    0 -0.41825963619E+02 -0.14317058668E+02  0.50013136314E+03  0.50834586563E+03  0.79559721589E+02 0.  0.
          5    1    3    3  502    0  0.59459388742E+02 -0.54952141213E+02  0.63609876161E+02  0.10307018521E+03  0.47000000000E+01 0. -1.
        -11    1    4    4    0    0  0.54156907707E+01 -0.50642637911E+02  0.21220739155E+03  0.21823378178E+03  0.00000000000E+00 0.  1.
         12    1    4    4    0    0  0.41076829132E+02  0.22409239253E+02  0.13828583126E+03  0.14598784547E+03  0.00000000000E+00 0. -1.
         -5    1    5    5    0  501 -0.64125945026E+02  0.97502598538E+02  0.10872713575E+04  0.10935264004E+04  0.47000000000E+01 0.  1.
         13    1    6    6    0    0 -0.31528631564E+02  0.11771364793E+02  0.74010506376E+02  0.81302980827E+02  0.00000000000E+00 0. -1.
        -14    1    6    6    0    0 -0.10297332055E+02 -0.26088423461E+02  0.42612085677E+03  0.42704288480E+03  0.00000000000E+00 0.  1.
</event>
<event>
12    1  0.1345781E-002  0.1823191E+03  0.7818608E-02  0.1165577E+00
         -2   -1    0    0    0  501 -0.00000000000E+00  0.00000000000E+00  0.10230549587E+03  0.10230549587E+03  0.00000000000E+00 0. -1.
          2   -1    0    0  502    0  0.00000000000E+00 -0.00000000000E+00 -0.37515836336E+03  0.37515836336E+03  0.00000000000E+00 0.  1.
          6    2    1    2  502    0  0.50211150381E+02 -0.38417890053E+02 -0.49569044443E+02  0.18969185381E+03  0.17183950459E+03 0.  0.
         24    2    3    3    0    0  0.77901676654E+02 -0.54658144622E+02 -0.80613903757E+02  0.14478768470E+03  0.73543783988E+02 0.  0.
         -6    2    1    2    0  501 -0.50211150381E+02  0.38417890053E+02 -0.22328382305E+03  0.28777200541E+03  0.17017628379E+03 0.  0.
        -24    2    5    5    0    0 -0.85531817590E+02  0.66555394444E+02 -0.18148482947E+03  0.22605884191E+03  0.80128299162E+02 0.  0.
          5    1    3    3  502    0 -0.27690526272E+02  0.16240254569E+02  0.31044859314E+02  0.44904169111E+02  0.47000000000E+01 0. -1.
        -13    1    4    4    0    0  0.21732958973E+02  0.14103590539E+02 -0.38781833698E+02  0.46639719090E+02  0.00000000000E+00 0.  1.
         14    1    4    4    0    0  0.56168717680E+02 -0.68761735161E+02 -0.41832070059E+02  0.98147965611E+02  0.00000000000E+00 0. -1.
         -5    1    5    5    0  501  0.35320667209E+02 -0.28137504392E+02 -0.41798993573E+02  0.61713163500E+02  0.47000000000E+01 0.  1.
         11    1    6    6    0    0 -0.25910887152E+02 -0.14817097255E+02 -0.67748158054E+02  0.74031975280E+02  0.00000000000E+00 0. -1.
        -12    1    6    6    0    0 -0.59620930438E+02  0.81372491700E+02 -0.11373667142E+03  0.15202686663E+03  0.00000000000E+00 0.  1.
</event>
<event>
12    1  0.1345781E-002  0.2143596E+03  0.7818608E-02  0.1138159E+00
         -1   -1    0    0    0  501 -0.00000000000E+00  0.00000000000E+00  0.63865603689E+02  0.63865603689E+02  0.00000000000E+00 0. -1.
          1   -1    0    0  502    0  0.00000000000E+00 -0.00000000000E+00 -0.72934165295E+03  0.72934165295E+03  0.00000000000E+00 0.  1.
          6    2    1    2  502    0 -0.44997825900E+02 -0.12070556830E+03 -0.28489834896E+03  0.35584232170E+03  0.16988834605E+03 0.  0.
         24    2    3    3    0    0 -0.87185752390E+02 -0.79036033818E+02 -0.24906237037E+03  0.28639825351E+03  0.78382684444E+02 0.  0.
         -6    2    1    2    0  501  0.44997825900E+02  0.12070556830E+03 -0.38057770030E+03  0.43736493493E+03  0.17278327983E+03 0.  0.
        -24    2    5    5    0    0  0.32695654959E+02  0.10410588154E+01 -0.22610571533E+03  0.24152157308E+03  0.78350405892E+02 0.  0.
          5    1    3    3  502    0  0.42187926490E+02 -0.41669534480E+02 -0.35835978592E+02  0.69444068191E+02  0.47000000000E+01 0. -1.
        -11    1    4    4    0    0  0.12513931631E+02  0.20327851220E+01 -0.27204556545E+02  0.30013640183E+02  0.00000000000E+00 0.  1.
         12    1    4    4    0    0 -0.99699684021E+02 -0.81068818940E+02 -0.22185781382E+03  0.25638461333E+03  0.00000000000E+00 0. -1.
         -5    1    5    5    0  501  0.12302170941E+02  0.11966450948E+03 -0.15447198497E+03  0.19584336185E+03  0.47000000000E+01 0.  1.
         11    1    6    6    0    0  0.59442360640E+01  0.69241959380E+01  0.38758317412E+01  0.99146610360E+01  0.00000000000E+00 0. -1.
        -12    1    6    6    0    0  0.26751418895E+02 -0.58831371226E+01 -0.22998154707E+03  0.23160691205E+03  0.00000000000E+00 0.  1.
</event>
<event>
12    1  0.1345781E-002  0.1763509E+03  0.7818608E-02  0.1171382E+00
         -2   -1    0    0    0  501 -0.00000000000E+00  0.00000000000E+00  0.12905501728E+03  0.12905501728E+03  0.00000000000E+00 0. -1.
          2   -1    0    0  502    0  0.00000000000E+00 -0.00000000000E+00 -0.51503554295E+03  0.51503554295E+03  0.00000000000E+00 0.  1.
          6    2    1    2  502    0 -0.56920693677E+01  0.54774789089E+02 -0.42568182432E+03  0.45920192411E+03  0.16318307013E+03 0.  0.
         24    2    3    3    0    0 -0.46432512104E+02  0.63494979522E+02 -0.38419050443E+03  0.40021510336E+03  0.79888639136E+02 0.  0.
         -6    2    1    2    0  501  0.56920693677E+01 -0.54774789089E+02  0.39701298647E+02  0.18488863612E+03  0.17197365344E+03 0.  0.
        -24    2    5    5    0    0 -0.59292585147E+02 -0.58420725898E+02  0.30350047534E+02  0.11896569569E+03  0.79392187889E+02 0.  0.
          5    1    3    3  502    0  0.40740442737E+02 -0.87201904337E+01 -0.41491319896E+02  0.58986820751E+02  0.47000000000E+01 0. -1.
        -11    1    4    4    0    0 -0.41602306053E+02  0.36107909513E+02 -0.95970390696E+02  0.11065644531E+03  0.00000000000E+00 0.  1.
         12    1    4    4    0    0 -0.48302060511E+01  0.27387070009E+02 -0.28822011373E+03  0.28955865805E+03  0.00000000000E+00 0. -1.
         -5    1    5    5    0  501  0.64984654515E+02  0.36459368090E+01  0.93512511137E+01  0.65922940431E+02  0.47000000000E+01 0.  1.
         13    1    6    6    0    0 -0.34039288131E+01 -0.55267009505E+02  0.30022571687E+02  0.62987172359E+02  0.00000000000E+00 0. -1.
        -14    1    6    6    0    0 -0.55888656334E+02 -0.31537163924E+01  0.32747584629E+00  0.55978523331E+02  0.00000000000E+00 0.  1.
</event>
<event>
12    1  0.1345781E-002  0.2376681E+03  0.7818608E-02  0.1121356E+00
          1   -1    0    0  502    0  0.00000000000E+00  0.00000000000E+00  0.27218047328E+03  0.27218047328E+03  0.00000000000E+00 0. -1.
         -1   -1    0    0    0  501 -0.00000000000E+00 -0.00000000000E+00 -0.31830379448E+03  0.31830379448E+03  0.00000000000E+00 0.  1.
          6    2    1    2  502    0 -0.85470020911E+02  0.14533364053E+03 -0.19704538441E+03  0.30678706222E+03  0.16390371101E+03 0.  0.
         24    2    3    3    0    0 -0.27145148707E+01  0.37116398159E+02 -0.34200165337E+02  0.94419219313E+02  0.79751752729E+02 0.  0.
         -6    2    1    2    0  501  0.85470020911E+02 -0.14533364053E+03  0.15092206321E+03  0.28369720554E+03  0.17111295604E+03 0.  0.
        -24    2    5    5    0    0  0.10333055714E+03 -0.10210266960E+03  0.16562352130E+03  0.23444135846E+03  0.80183792449E+02 0.  0.
          5    1    3    3  502    0 -0.82755506040E+02  0.10821724237E+03 -0.16284521907E+03  0.21236784291E+03  0.47000000000E+01 0. -1.
        -11    1    4    4    0    0  0.20192600524E+02  0.73517444223E+01 -0.49422944819E+02  0.53892640838E+02  0.00000000000E+00 0.  1.
         12    1    4    4    0    0 -0.22907115394E+02  0.29764653736E+02  0.15222779481E+02  0.40526578475E+02  0.00000000000E+00 0. -1.
         -5    1    5    5    0  501 -0.17860536233E+02 -0.43230970927E+02 -0.14701458086E+02  0.49255847081E+02  0.47000000000E+01 0.  1.
         11    1    6    6    0    0  0.20447858364E+02 -0.76421005608E+02  0.81771421643E+02  0.11377543851E+03  0.00000000000E+00 0. -1.
        -12    1    6    6    0    0  0.82882698780E+02 -0.25681663995E+02  0.83852099654E+02  0.12066591996E+03  0.00000000000E+00 0.  1.
</event>
<event>
12    1  0.1345781E-002  0.1748855E+03  0.7818608E-02  0.1172847E+00
         -1   -1    0    0    0  501 -0.00000000000E+00  0.00000000000E+00  0.71216142388E+02  0.71216142388E+02  0.00000000000E+00 0. -1.
          1   -1    0    0  502    0  0.00000000000E+00 -0.00000000000E+00 -0.59290022911E+03  0.59290022911E+03  0.00000000000E+00 0.  1.
          6    2    1    2  502    0 -0.32826347979E+02 -0.90448751586E+01 -0.43542438339E+03  0.46931698653E+03  0.17176920943E+03 0.  0.
         24    2    3    3    0    0 -0.50945985899E+02  0.50652439561E+02 -0.31899999053E+03  0.33714732315E+03  0.82135013493E+02 0.  0.
         -6    2    1    2    0  501  0.32826347979E+02  0.90448751586E+01 -0.86259703336E+02  0.19479938497E+03  0.17130874198E+03 0.  0.
        -24    2    5    5    0    0  0.39655966144E+02  0.28214315845E+02  0.11858089008E+02  0.94483372716E+02  0.80111485915E+02 0.  0.
          5    1    3    3  502    0  0.18119637920E+02 -0.59697314720E+02 -0.11642439286E+03  0.13216966337E+03  0.47000000000E+01 0. -1.
        -11    1    4    4    0    0 -0.72624225299E+02  0.29177671882E+02 -0.21712034668E+03  0.23079614290E+03  0.00000000000E+00 0.  1.
         12    1    4    4    0    0  0.21678239400E+02  0.21474767680E+02 -0.10187964385E+03  0.10635118025E+03  0.00000000000E+00 0. -1.
         -5    1    5    5    0  501 -0.68296181642E+01 -0.19169440686E+02 -0.98117792344E+02  0.10031601226E+03  0.47000000000E+01 0.  1.
         13    1    6    6    0    0  0.31149459747E+02 -0.24729142237E+02  0.10701883231E+01  0.39786487924E+02  0.00000000000E+00 0. -1.
        -14    1    6    6    0    0  0.85065063967E+01  0.52943458082E+02  0.10787900685E+02  0.54696884792E+02  0.00000000000E+00 0.  1.
</event>
<event>
12    1  0.1345781E-002  0.2716678E+03  0.7818608E-02  0.1100329E+00
          2   -1    0    0  502    0  0.00000000000E+00  0.00000000000E+00  0.40432732910E+03  0.40432732910E+03  0.00000000000E+00 0.  1.
         -2   -1    0    0    0  501 -0.00000000000E+00 -0.00000000000E+00 -0.18504515629E+03  0.18504515629E+03  0.00000000000E+00 0. -1.
          6    2    1    2  502    0 -0.74988590165E+02  0.19660673042E+03  0.75281441404E+02  0.28183414811E+03  0.17171399628E+03 0.  0.
         24    2    3    3    0    0 -0.33804324993E+02  0.13374569188E+03  0.11599641404E+03  0.19623360570E+03  0.77600370179E+02 0.  0.
         -6    2    1    2    0  501  0.74988590165E+02 -0.19660673042E+03  0.14400073141E+03  0.30753833728E+03  0.17194802455E+03 0.  0.
        -24    2    5    5    0    0  0.89824429253E+02 -0.20394113285E+03  0.93200114352E+02  0.25390356988E+03  0.78232651251E+02 0.  0.
          5    1    3    3  502    0 -0.41184265173E+02  0.62861038544E+02 -0.40714972635E+02  0.85600542412E+02  0.47000000000E+01 0. -1.
        -11    1    4    4    0    0 -0.43653090664E+02  0.13918552397E+03  0.11319647349E+03  0.18463922665E+03  0.00000000000E+00 0.  1.
         12    1    4    4    0    0  0.98487656708E+01 -0.54398320924E+01  0.27999405443E+01  0.11594379047E+02  0.00000000000E+00 0. -1.
         -5    1    5    5    0  501 -0.14835839087E+02  0.73344024339E+01  0.50800617057E+02  0.53634767399E+02  0.47000000000E+01 0.  1.
         11    1    6    6    0    0 -0.14581848087E+02 -0.23118635675E+02  0.91927986207E+01  0.28837634362E+02  0.00000000000E+00 0. -1.
        -12    1    6    6    0    0  0.10440627734E+03 -0.18082249718E+03  0.84007315732E+02  0.22506593552E+03  0.00000000000E+00 0.  1.
</event>
<event>
12    1  0.1345781E-002  0.1960200E+03  0.7818608E-02  0.1153141E+00
          2   -1    0    0  502    0  0.00000000000E+00  0.00000000000E+00  0.69927548164E+03  0.69927548164E+03  0.00000000000E+00 0. -1.
         -2   -1    0    0    0  501 -0.00000000000E+00 -0.00000000000E+00 -0.71105844934E+02  0.71105844934E+02  0.00000000000E+00 0.  1.
          6    2    1    2  502    0 -0.11599916860E+02 -0.91746323281E+02  0.49722217964E+03  0.53432430325E+03  0.17239669144E+03 0.  0.
         24    2    3    3    0    0 -0.56774627538E+02 -0.50780108348E+01  0.28680472570E+03  0.30226882328E+03  0.76552898800E+02 0.  0.
         -6    2    1    2    0  501  0.11599916860E+02  0.91746323281E+02  0.13094745707E+03  0.23605702332E+03  0.17327358667E+03 0.  0.
        -24    2    5    5    0    0  0.36706701672E+02 -0.76664105728E+01  0.89523879284E+02  0.12537168060E+03  0.79356017646E+02 0.  0.
          5    1    3    3  502    0  0.45174710679E+02 -0.86668312446E+02  0.21041745393E+03  0.23205547998E+03  0.47000000000E+01 0. -1.
        -11    1    4    4    0    0 -0.30291832366E+02 -0.13775555739E+02  0.32750509896E+02  0.46690009022E+02  0.00000000000E+00 0.  1.
         12    1    4    4    0    0 -0.26482795172E+02  0.86975449046E+01  0.25405421581E+03  0.25557881426E+03  0.00000000000E+00 0. -1.
         -5    1    5    5    0  501 -0.25106784813E+02  0.99412733853E+02  0.41423577790E+02  0.11068534272E+03  0.47000000000E+01 0.  1.
         13    1    6    6    0    0  0.54603778731E+02  0.73383174620E+01  0.85438870182E+02  0.10166230419E+03  0.00000000000E+00 0. -1.
        -14    1    6    6    0    0 -0.17897077059E+02 -0.15004728035E+02  0.40850091019E+01  0.23709376415E+02  0.00000000000E+00 0.  1.
</event>
<event>
12    1  0.1345781E-002  0.1963477E+03  0.7818608E-02  0.1152858E+00
         -1   -1    0    0    0  501 -0.00000000000E+00  0.00000000000E+00  0.12334446589E+03  0.12334446589E+03  0.00000000000E+00 0. -1.
          1   -1    0    0  502    0  0.00000000000E+00 -0.00000000000E+00 -0.50257915028E+03  0.50257915028E+03  0.00000000000E+00 0.  1.
          6    2    1    2  502    0 -0.17560363900E+02 -0.88921548871E+02 -0.38392846703E+03  0.43270970858E+03  0.17782355264E+03 0.  0.
         24    2    3    3    0    0 -0.80029111008E+02 -0.74607662221E+02 -0.25085688451E+03  0.28493498886E+03  0.79295709205E+02 0.  0.
         -6    2    1    2    0  501  0.17560363900E+02  0.88921548871E+02  0.46937826398E+01  0.19321390759E+03  0.17057014469E+03 0.  0.
        -24    2    5    5    0    0  0.39748025826E+02  0.86533987914E+02  0.56624786235E+02  0.13649608038E+03  0.79729398108E+02 0.  0.
          5    1    3    3  502    0  0.62468747108E+02 -0.14313886649E+02 -0.13307158252E+03  0.14777471972E+03  0.47000000000E+01 0. -1.
        -13    1    4    4    0    0 -0.45652600924E+02 -0.31176906304E+02 -0.20708747179E+03  0.21433940475E+03  0.00000000000E+00 0.  1.
         14    1    4    4    0    0 -0.34376510084E+02 -0.43430755918E+02 -0.43769412721E+02  0.70595584105E+02  0.00000000000E+00 0. -1.
         -5    1    5    5    0  501 -0.22187661925E+02  0.23875609569E+01 -0.51931003595E+02  0.56717827210E+02  0.47000000000E+01 0.  1.
         11    1    6    6    0    0  0.64369451948E+02  0.62470073818E+02  0.42950080501E+02  0.99451726390E+02  0.00000000000E+00 0. -1.
        -12    1    6    6    0    0 -0.24621426122E+02  0.24063914096E+02  0.13674705734E+02  0.37044353994E+02  0.00000000000E+00 0.  1.
</event>
<event>
12    1  0.1345781E-002  0.2662729E+03  0.7818608E-02  0.1103432E+00
         -2   -1    0    0    0  501 -0.00000000000E+00  0.00000000000E+00  0.53870984632E+03  0.53870984632E+03  0.00000000000E+00 0.  1.
          2   -1    0    0  502    0  0.00000000000E+00 -0.00000000000E+00 -0.13770386285E+03  0.13770386285E+03  0.00000000000E+00 0. -1.
          6    2    1    2  502    0 -0.20287817632E+03 -0.18267940817E+02  0.12920723710E+03  0.29575690480E+03  0.17112674989E+03 0.  0.
         24    2    3    3    0    0 -0.14084075756E+03  0.28250422916E+02  0.25570577660E+02  0.16623761407E+03  0.79667336494E+02 0.  0.
         -6    2    1    2    0  501  0.20287817632E+03  0.18267940817E+02  0.27179874636E+03  0.38065680437E+03  0.17184810765E+03 0.  0.
        -24    2    5    5    0    0  0.18829563984E+03 -0.24546000651E+02  0.26206960765E+03  0.33415486792E+03  0.83194004396E+02 0.  0.
          5    1    3    3  502    0 -0.62037418752E+02 -0.46518363733E+02  0.10363665944E+03  0.12951929073E+03  0.47000000000E+01 0. -1.
        -13    1    4    4    0    0 -0.75187068684E+01 -0.38800477494E+01  0.27821968770E+02  0.29080021832E+02  0.00000000000E+00 0.  1.
         14    1    4    4    0    0 -0.13332205070E+03  0.32130470666E+02 -0.22513911096E+01  0.13715759224E+03  0.00000000000E+00 0. -1.
         -5    1    5    5    0  501  0.14582536482E+02  0.42813941468E+02  0.97291387098E+01  0.46501936457E+02  0.47000000000E+01 0.  1.
         13    1    6    6    0    0  0.82107707082E+02 -0.19683197002E+02  0.53213095245E+02  0.99803493486E+02  0.00000000000E+00 0. -1.
        -14    1    6    6    0    0  0.10618793275E+03 -0.48628036487E+01  0.20885651241E+03  0.23435137443E+03  0.00000000000E+00 0.  1.
</event>
<event>
12    1  0.1345781E-002  0.1868638E+03  0.7818608E-02  0.1161321E+00
         -1   -1    0    0    0  501 -0.00000000000E+00  0.00000000000E+00  0.27357129080E+02  0.27357129080E+02  0.00000000000E+00 0.  1.
          1   -1    0    0  502    0  0.00000000000E+00 -0.00000000000E+00 -0.15671196947E+04  0.15671196947E+04  0.00000000000E+00 0. -1.
          6    2    1    2  502    0  0.64755106795E+02  0.56565443313E+02 -0.10955061685E+04  0.11104949660E+04  0.16022618772E+03 0.  0.
         24    2    3    3    0    0  0.25399441190E+02 -0.16333204054E+02 -0.44789738359E+03  0.45759197980E+03  0.88693001865E+02 0.  0.
         -6    2    1    2    0  501 -0.64755106795E+02 -0.56565443313E+02 -0.44425639714E+03  0.48398185772E+03  0.17170270519E+03 0.  0.
        -24    2    5    5    0    0 -0.53409313738E+02 -0.63357463823E+02 -0.45315377712E+03  0.46736524154E+03  0.78836541393E+02 0.  0.
          5    1    3    3  502    0  0.39355665604E+02  0.72898647367E+02 -0.64760878487E+03  0.65290298624E+03  0.47000000000E+01 0. -1.
        -13    1    4    4    0    0  0.70177191733E+01 -0.16635777508E+02 -0.12861684744E+02  0.22168004199E+02  0.00000000000E+00 0.  1.
         14    1    4    4    0    0  0.18381722017E+02  0.30257345429E+00 -0.43503569885E+03  0.43542397560E+03  0.00000000000E+00 0. -1.
         -5    1    5    5    0  501 -0.11345793057E+02  0.67920205099E+01  0.88973799871E+01  0.16616616182E+02  0.47000000000E+01 0.  1.
         11    1    6    6    0    0  0.13286927654E+02  0.60849619066E+01 -0.10974795228E+03  0.11071667552E+03  0.00000000000E+00 0. -1.
        -12    1    6    6    0    0 -0.66696241392E+02 -0.69442425729E+02 -0.34340582484E+03  0.35664856602E+03  0.00000000000E+00 0.  1.
</event>
<event>
12    1  0.1345781E-002  0.1730838E+03  0.7818608E-02  0.1174670E+00
         -1   -1    0    0    0  501 -0.00000000000E+00  0.00000000000E+00  0.73588320993E+02  0.73588320993E+02  0.00000000000E+00 0. -1.
          1   -1    0    0  502    0  0.00000000000E+00 -0.00000000000E+00 -0.42166711624E+03  0.42166711624E+03  0.00000000000E+00 0.  1.
          6    2    1    2  502    0  0.17746037392E+02 -0.36587491071E+01 -0.22005536414E+03  0.27996468236E+03  0.17212655748E+03 0.  0.
         24    2    3    3    0    0 -0.43094593928E+02 -0.13856155269E+02 -0.11898339033E+03  0.16146065963E+03  0.99314451964E+02 0.  0.
         -6    2    1    2    0  501 -0.17746037392E+02  0.36587491071E+01 -0.12802343110E+03  0.21529075488E+03  0.17213890303E+03 0.  0.
        -24    2    5    5    0    0 -0.37308660487E+02  0.63058198383E+02 -0.96980046420E+02  0.14531381204E+03  0.79641082579E+02 0.  0.
          5    1    3    3  502    0  0.60840631320E+02  0.10197406162E+02 -0.10107197381E+03  0.11850402273E+03  0.47000000000E+01 0. -1.
        -13    1    4    4    0    0 -0.19352917849E+02  0.28810154688E+02 -0.10512348277E+03  0.11070459373E+03  0.00000000000E+00 0.  1.
         14    1    4    4    0    0 -0.23741676079E+02 -0.42666309957E+02 -0.13859907560E+02  0.50756065903E+02  0.00000000000E+00 0. -1.
         -5    1    5    5    0  501  0.19562623095E+02 -0.59399449276E+02 -0.31043384684E+02  0.69976942841E+02  0.47000000000E+01 0.  1.
         11    1    6    6    0    0 -0.21548314005E+02  0.32815441078E+02  0.32972812244E+01  0.39396130179E+02  0.00000000000E+00 0. -1.
        -12    1    6    6    0    0 -0.15760346482E+02  0.30242757305E+02 -0.10027732764E+03  0.10591768186E+03  0.00000000000E+00 0.  1.
</event>
<event>
12    1  0.1345781E-002  0.1986084E+03  0.7818608E-02  0.1150918E+00
          2   -1    0    0  502    0  0.00000000000E+00  0.00000000000E+00  0.37340113817E+03  0.37340113817E+03  0.00000000000E+00 0. -1.
         -2   -1    0    0    0  501 -0.00000000000E+00 -0.00000000000E+00 -0.10859700396E+03  0.10859700396E+03  0.00000000000E+00 0.  1.
          6    2    1    2  502    0  0.83416855840E+01  0.93337051525E+02  0.17421284143E+03  0.26683108281E+03  0.17907351488E+03 0.  0.
         24    2    3    3    0    0  0.41816352725E+02  0.10198817433E+03  0.18593491255E+03  0.23002222223E+03  0.78665341514E+02 0.  0.
         -6    2    1    2    0  501 -0.83416855840E+01 -0.93337051525E+02  0.90591292773E+02  0.21516705932E+03  0.17119781594E+03 0.  0.
        -24    2    5    5    0    0 -0.33133698343E+02 -0.98886976654E+02  0.14581268318E+02  0.13488593213E+03  0.84291904606E+02 0.  0.
          5    1    3    3  502    0 -0.33474667141E+02 -0.86511228061E+01 -0.11722071123E+02  0.36808860583E+02  0.47000000000E+01 0. -1.
        -13    1    4    4    0    0  0.16621570175E+02  0.42564410101E+02  0.16286458758E+02  0.48510352928E+02  0.00000000000E+00 0.  1.
         14    1    4    4    0    0  0.25194782550E+02  0.59423764230E+02  0.16964845379E+03  0.18151186930E+03  0.00000000000E+00 0. -1.
         -5    1    5    5    0  501  0.24792012759E+02  0.55499251292E+01  0.76010024454E+02  0.80281127192E+02  0.47000000000E+01 0.  1.
         13    1    6    6    0    0 -0.10646964842E+02 -0.37890608683E+02  0.47769605716E+02  0.61895002358E+02  0.00000000000E+00 0. -1.
        -14    1    6    6    0    0 -0.22486733502E+02 -0.60996367971E+02 -0.33188337397E+02  0.72990929768E+02  0.00000000000E+00 0.  1.
</event>
<event>
12    1  0.1345781E-002  0.2559437E+03  0.7818608E-02  0.1109605E+00
         -2   -1    0    0    0  501 -0.00000000000E+00  0.00000000000E+00  0.66623025277E+02  0.66623025277E+02  0.00000000000E+00 0. -1.
          2   -1    0    0  502    0  0.00000000000E+00 -0.00000000000E+00 -0.10116928969E+04  0.10116928969E+04  0.00000000000E+00 0.  1.
          6    2    1    2  502    0 -0.18669131905E+03 -0.26379371537E+02 -0.38083833442E+03  0.45844579859E+03  0.17200346921E+03 0.  0.
         24    2    3    3    0    0 -0.69464265255E+02  0.14632255293E+02 -0.27583746189E+03  0.29574543316E+03  0.79622037214E+02 0.  0.
         -6    2    1    2    0  501  0.18669131905E+03  0.26379371537E+02 -0.56423153720E+03  0.61987012360E+03  0.17416148454E+03 0.  0.
        -24    2    5    5    0    0  0.59559091793E+02  0.67798847976E+02 -0.21031127420E+03  0.24150545981E+03  0.77136799652E+02 0.  0.
          5    1    3    3  502    0 -0.11722705380E+03 -0.41011626830E+02 -0.10500087254E+03  0.16270036543E+03  0.47000000000E+01 0. -1.
        -11    1    4    4    0    0 -0.72337420463E+02  0.25520001549E+01 -0.12535726953E+03  0.14475379141E+03  0.00000000000E+00 0.  1.
         12    1    4    4    0    0  0.28731552073E+01  0.12080255138E+02 -0.15048019236E+03  0.15099164174E+03  0.00000000000E+00 0. -1.
         -5    1    5    5    0  501  0.12713222726E+03 -0.41419476439E+02 -0.35392026301E+03  0.37836466379E+03  0.47000000000E+01 0.  1.
         13    1    6    6    0    0  0.72828524105E+02  0.45122270994E+02 -0.11996556280E+03  0.14741692413E+03  0.00000000000E+00 0. -1.
        -14    1    6    6    0    0 -0.13269432312E+02  0.22676576982E+02 -0.90345711400E+02  0.94088535677E+02  0.00000000000E+00 0.  1.
</event>
<event>
12    1  0.1345781E-002  0.1836020E+03  0.7818608E-02  0.1164362E+00
         -2   -1    0    0    0  501 -0.00000000000E+00  0.00000000000E+00  0.23370701706E+03  0.23370701706E+03  0.00000000000E+00 0. -1.
          2   -1    0    0  502    0  0.00000000000E+00 -0.00000000000E+00 -0.28925634012E+03  0.28925634012E+03  0.00000000000E+00 0.  1.
          6    2    1    2  502    0  0.29217520694E+02 -0.54428792333E+02 -0.21284510438E+03  0.28048842142E+03  0.17191439481E+03 0.  0.
         24    2    3    3    0    0 -0.47772023635E+02 -0.45270530883E+02 -0.10293949952E+03  0.14590537766E+03  0.79751184692E+02 0.  0.
         -6    2    1    2    0  501 -0.29217520694E+02  0.54428792333E+02  0.15729578133E+03  0.24247493575E+03  0.17388494672E+03 0.  0.
        -24    2    5    5    0    0  0.41180387271E+01  0.25625183360E+02  0.17511226197E+03  0.19472114644E+03  0.81107412193E+02 0.  0.
          5    1    3    3  502    0  0.76989544329E+02 -0.91582614495E+01 -0.10990560487E+03  0.13458304377E+03  0.47000000000E+01 0. -1.
        -13    1    4    4    0    0 -0.85942246106E+01 -0.52116983578E+02 -0.89500100044E+02  0.10392453311E+03  0.00000000000E+00 0.  1.
         14    1    4    4    0    0 -0.39177799024E+02  0.68464526945E+01 -0.13439399475E+02  0.41980844550E+02  0.00000000000E+00 0. -1.
         -5    1    5    5    0  501 -0.33335559421E+02  0.28803608973E+02 -0.17816480640E+02  0.47753789317E+02  0.47000000000E+01 0.  1.
         11    1    6    6    0    0  0.30256867613E+02  0.41392864910E+02  0.81781069719E+02  0.96524559919E+02  0.00000000000E+00 0. -1.
        -12    1    6    6    0    0 -0.26138828886E+02 -0.15767681550E+02  0.93331192250E+02  0.98196586518E+02  0.00000000000E+00 0.  1.
</event>
<event>
12    1  0.1345781E-002  0.1813737E+03  0.7818608E-02  0.1166480E+00
          2   -1    0    0  502    0  0.00000000000E+00  0.00000000000E+00  0.32796953244E+04  0.32796953244E+04  0.00000000000E+00 0. -1.
         -2   -1    0    0    0  501 -0.00000000000E+00 -0.00000000000E+00 -0.10545631455E+02  0.10545631455E+02  0.00000000000E+00 0.  1.
          6    2    1    2  502    0  0.30723401348E+02  0.47519525069E+02  0.19992773599E+04  0.20074986133E+04  0.17244908718E+03 0.  0.
         24    2    3    3    0    0 -0.31472139763E+02  0.33951411802E+02  0.16260256353E+04  0.16288281510E+04  0.83537925370E+02 0.  0.
         -6    2    1    2    0  501 -0.30723401348E+02 -0.47519525069E+02  0.12698723330E+04  0.12827423426E+04  0.17219216785E+03 0.  0.
        -24    2    5    5    0    0 -0.51644797611E+01 -0.96624457372E+02  0.85404957479E+03  0.86322451329E+03  0.79955778549E+02 0.  0.
          5    1    3    3  502    0  0.62195541110E+02  0.13568113266E+02  0.37325172461E+03  0.37867046222E+03  0.47000000000E+01 0. -1.
        -13    1    4    4    0    0 -0.25478141408E+02 -0.22099873166E+02  0.89367641438E+03  0.89431262638E+03  0.00000000000E+00 0.  1.
         14    1    4    4    0    0 -0.59939983551E+01  0.56051284968E+02  0.73234922093E+03  0.73451552465E+03  0.00000000000E+00 0. -1.
         -5    1    5    5    0  501 -0.25558921587E+02  0.49104932304E+02  0.41582275822E+03  0.41951782930E+03  0.47000000000E+01 0.  1.
         11    1    6    6    0    0  0.30037073113E+02 -0.95660387761E+01  0.22937237855E+03  0.23152844944E+03  0.00000000000E+00 0. -1.
        -12    1    6    6    0    0 -0.35201552874E+02 -0.87058418596E+02  0.62467719624E+03  0.63169606385E+03  0.00000000000E+00 0.  1.
</event>
<event>
12    1  0.1345781E-002  0.2278969E+03  0.7818608E-02  0.1128129E+00
          2   -1    0    0  502    0  0.00000000000E+00  0.00000000000E+00  0.22157788438E+04  0.22157788438E+04  0.00000000000E+00 0.  1.
         -2   -1    0    0    0  501 -0.00000000000E+00 -0.00000000000E+00 -0.31785155417E+02  0.31785155417E+02  0.00000000000E+00 0. -1.
          6    2    1    2  502    0 -0.77114004490E+02  0.12927408626E+03  0.16673676895E+04  0.16828524314E+04  0.17093547012E+03 0.  0.
         24    2    3    3    0    0 -0.20622472227E+02  0.10170558420E+03  0.14663307371E+04  0.14721648387E+04  0.79838395415E+02 0.  0.
         -6    2    1    2    0  501  0.77114004490E+02 -0.12927408626E+03  0.51662599887E+03  0.56471156776E+03  0.17128447972E+03 0.  0.
        -24    2    5    5    0    0  0.97379322606E+02 -0.10333680356E+03  0.50268509288E+03  0.52865793255E+03  0.81398277619E+02 0.  0.
          5    1    3    3  502    0 -0.56491532262E+02  0.27568502067E+02  0.20103695237E+03  0.21068759275E+03  0.47000000000E+01 0. -1.
        -13    1    4    4    0    0 -0.47776795107E+02  0.36065401510E+02  0.68805023712E+03  0.69064930619E+03  0.00000000000E+00 0.  1.
         14    1    4    4    0    0  0.27154322880E+02  0.65640182687E+02  0.77828050001E+03  0.78151553250E+03  0.00000000000E+00 0. -1.
         -5    1    5    5    0  501 -0.20265318117E+02 -0.25937282703E+02  0.13940905984E+02  0.36053635212E+02  0.47000000000E+01 0.  1.
         13    1    6    6    0    0  0.11339248908E+02 -0.44559516871E+02  0.71098327051E+02  0.84670545168E+02  0.00000000000E+00 0. -1.
        -14    1    6    6    0    0  0.86040073698E+02 -0.58777286690E+02  0.43158676583E+03  0.44398738738E+03  0.00000000000E+00 0.  1.
</event>
<event>
12    1  0.1345781E-002  0.2308693E+03  0.7818608E-02  0.1126029E+00
         -2   -1    0    0    0  501 -0.00000000000E+00  0.00000000000E+00  0.21882522036E+03  0.21882522036E+03  0.00000000000E+00 0.  1.
          2   -1    0    0  502    0  0.00000000000E+00 -0.00000000000E+00 -0.24470646841E+03  0.24470646841E+03  0.00000000000E+00 0. -1.
          6    2    1    2  502    0 -0.88433486851E+01  0.15162237256E+03  0.28141282155E+01  0.22923568854E+03  0.17167857440E+03 0.  0.
         24    2    3    3    0    0  0.53497004761E+02  0.81498219549E+02  0.16277836590E+02  0.13433006202E+03  0.90970920023E+02 0.  0.
         -6    2    1    2    0  501  0.88433486851E+01 -0.15162237256E+03 -0.28695376271E+02  0.23429600022E+03  0.17607851211E+03 0.  0.
        -24    2    5    5    0    0 -0.59899457240E+01 -0.47851871212E+01 -0.32370974394E+02  0.86590937104E+02  0.79945812521E+02 0.  0.
          5    1    3    3  502    0 -0.62340353446E+02  0.70124153008E+02 -0.13463708375E+02  0.94905626525E+02  0.47000000000E+01 0. -1.
        -13    1    4    4    0    0  0.87073362774E+01  0.13303146145E+02  0.45084161610E+02  0.47805575308E+02  0.00000000000E+00 0.  1.
         14    1    4    4    0    0  0.44789668484E+02  0.68195073403E+02 -0.28806325020E+02  0.86524486710E+02  0.00000000000E+00 0. -1.
         -5    1    5    5    0  501  0.14833294409E+02 -0.14683718543E+03  0.36755981237E+01  0.14770506312E+03  0.47000000000E+01 0.  1.
         11    1    6    6    0    0 -0.26534179821E+02  0.29427583279E+02 -0.10103213109E+02  0.40891567242E+02  0.00000000000E+00 0. -1.
        -12    1    6    6    0    0  0.20544234097E+02 -0.34212770400E+02 -0.22267761285E+02  0.45699369861E+02  0.00000000000E+00 0.  1.
</event>
<event>
12    1  0.1345781E-002  0.1833433E+03  0.7818608E-02  0.1164606E+00
         -2   -1    0    0    0  501 -0.00000000000E+00  0.00000000000E+00  0.10847816026E+03  0.10847816026E+03  0.00000000000E+00 0. -1.
          2   -1    0    0  502    0  0.00000000000E+00 -0.00000000000E+00 -0.39002312242E+03  0.39002312242E+03  0.00000000000E+00 0.  1.
          6    2    1    2  502    0  0.65098666104E+02 -0.13583808909E+02 -0.25365081687E+03  0.31286947197E+03  0.17066403662E+03 0.  0.
         24    2    3    3    0    0  0.11078222722E+03 -0.54696350038E+01 -0.18251195598E+03  0.22780681798E+03  0.79263569596E+02 0.  0.
         -6    2    1    2    0  501 -0.65098666104E+02  0.13583808909E+02 -0.27894145289E+02  0.18563181071E+03  0.17105183311E+03 0.  0.
        -24    2    5    5    0    0 -0.37716315338E+02  0.72667239935E+02 -0.36484661345E+02  0.11977946131E+03  0.79454015853E+02 0.  0.
          5    1    3    3  502    0 -0.45683561121E+02 -0.81141739057E+01 -0.71138860891E+02  0.85062653989E+02  0.47000000000E+01 0. -1.
        -11    1    4    4    0    0  0.99173830832E+01  0.27571433099E+02 -0.50881366670E+02  0.58715005616E+02  0.00000000000E+00 0.  1.
         12    1    4    4    0    0  0.10086484414E+03 -0.33041068103E+02 -0.13163058931E+03  0.16909181236E+03  0.00000000000E+00 0. -1.
         -5    1    5    5    0  501 -0.27382350765E+02 -0.59083431025E+02  0.85905160567E+01  0.65852349398E+02  0.47000000000E+01 0.  1.
         11    1    6    6    0    0 -0.55115830314E+02  0.27025028811E+02 -0.48331471385E+01  0.61574883229E+02  0.00000000000E+00 0. -1.
        -12    1    6    6    0    0  0.17399514976E+02  0.45642211124E+02 -0.31651514207E+02  0.58204578078E+02  0.00000000000E+00 0.  1.
</event>
<event>
12    1  0.1345781E-002  0.2883156E+03  0.7818608E-02  0.1091232E+00
          2   -1    0    0  502    0  0.00000000000E+00  0.00000000000E+00  0.78521322995E+03  0.78521322995E+03  0.00000000000E+00 0. -1.
         -2   -1    0    0    0  501 -0.00000000000E+00 -0.00000000000E+00 -0.11791627218E+03  0.11791627218E+03  0.00000000000E+00 0.  1.
          6    2    1    2  502    0 -0.22485105020E+03  0.55859149249E+02  0.47833191612E+03  0.55866257309E+03  0.17211684771E+03 0.  0.
         24    2    3    3    0    0 -0.10491151240E+03  0.59889084880E+01  0.35759893544E+03  0.38126168170E+03  0.80256955151E+02 0.  0.
         -6    2    1    2    0  501  0.22485105020E+03 -0.55859149249E+02  0.18896504165E+03  0.34446692904E+03  0.17108897948E+03 0.  0.
        -24    2    5    5    0    0  0.46874208865E+02 -0.27264230240E+02  0.24913726653E+02  0.10068762434E+03  0.81097313223E+02 0.  0.
          5    1    3    3  502    0 -0.11993953780E+03  0.49870240761E+02  0.12073298068E+03  0.17740089139E+03  0.47000000000E+01 0. -1.
        -13    1    4    4    0    0 -0.99817067384E+02  0.41131511365E+01  0.19993911010E+03  0.22350841752E+03  0.00000000000E+00 0.  1.
         14    1    4    4    0    0 -0.50944450142E+01  0.18757573515E+01  0.15765982534E+03  0.15775326419E+03  0.00000000000E+00 0. -1.
         -5    1    5    5    0  501  0.17797684134E+03 -0.28594919009E+02  0.16405131500E+03  0.24377930470E+03  0.47000000000E+01 0.  1.
         13    1    6    6    0    0  0.25294507329E+02 -0.45507752347E+02  0.42667999672E+02  0.67315123269E+02  0.00000000000E+00 0. -1.
        -14    1    6    6    0    0  0.21579701536E+02  0.18243522107E+02 -0.17754273019E+02  0.33372501070E+02  0.00000000000E+00 0.  1.
</event>
<event>
12    1  0.1345781E-002  0.2139118E+03  0.7818608E-02  0.1138505E+00
         -2   -1    0    0    0  501 -0.00000000000E+00  0.00000000000E+00  0.16454880486E+03  0.16454880486E+03  0.00000000000E+00 0. -1.
          2   -1    0    0  502    0  0.00000000000E+00 -0.00000000000E+00 -0.36151585498E+03  0.36151585498E+03  0.00000000000E+00 0.  1.
          6    2    1    2  502    0 -0.61858203039E+02  0.11058591285E+03 -0.22486059191E+03  0.31038649913E+03  0.17240014979E+03 0.  0.
         24    2    3    3    0    0 -0.65692781282E+02  0.13092579484E+03 -0.23265042204E+03  0.28777707094E+03  0.85043038634E+02 0.  0.
         -6    2    1    2    0  501  0.61858203039E+02 -0.11058591285E+03  0.27893541783E+02  0.21567816070E+03  0.17228853104E+03 0.  0.
        -24    2    5    5    0    0  0.21170000597E+02 -0.12676447195E+03 -0.19103848670E+02  0.15127225801E+03  0.77465726191E+02 0.  0.
          5    1    3    3  502    0  0.38345782428E+01 -0.20339881990E+02  0.77898301284E+01  0.22609428190E+02  0.47000000000E+01 0. -1.
        -13    1    4    4    0    0 -0.18727773962E+02  0.58127740837E+02 -0.31394797752E+02  0.68667292784E+02  0.00000000000E+00 0.  1.
         14    1    4    4    0    0 -0.46965007319E+02  0.72798054004E+02 -0.20125562428E+03  0.21910977816E+03  0.00000000000E+00 0. -1.
         -5    1    5    5    0  501  0.40688202442E+02  0.16178559103E+02  0.46997390453E+02  0.64405902695E+02  0.47000000000E+01 0.  1.
         13    1    6    6    0    0  0.15184437255E+02  0.63887549173E+01 -0.51303576040E+01  0.17254097870E+02  0.00000000000E+00 0. -1.
        -14    1    6    6    0    0  0.59855633418E+01 -0.13315322687E+03 -0.13973491066E+02  0.13401816014E+03  0.00000000000E+00 0.  1.
</event>
<event>
12    1  0.1345781E-002  0.2833286E+03  0.7818608E-02  0.1093885E+00
          2   -1    0    0  502    0  0.00000000000E+00  0.00000000000E+00  0.10483895362E+04  0.10483895362E+04  0.00000000000E+00 0. -1.
         -2   -1    0    0    0  501 -0.00000000000E+00 -0.00000000000E+00 -0.77653644783E+02  0.77653644783E+02  0.00000000000E+00 0.  1.
          6    2    1    2  502    0 -0.12631404008E+03 -0.18653937699E+03  0.41926668701E+03  0.50615916644E+03  0.17222186577E+03 0.  0.
         24    2    3    3    0    0 -0.11166120959E+02 -0.65409189543E+02  0.23526711600E+03  0.25754400656E+03  0.81087946789E+02 0.  0.
         -6    2    1    2    0  501  0.12631404008E+03  0.18653937699E+03  0.55146920439E+03  0.61988401452E+03  0.17142267113E+03 0.  0.
        -24    2    5    5    0    0  0.13244344561E+03  0.16988860559E+03  0.55469917439E+03  0.60124694108E+03  0.86042463325E+02 0.  0.
          5    1    3    3  502    0 -0.11514791912E+03 -0.12113018745E+03  0.18399957101E+03  0.24861515988E+03  0.47000000000E+01 0. -1.
        -13    1    4    4    0    0 -0.91578196448E+01  0.14943735359E+02  0.88399637481E+02  0.90120346171E+02  0.00000000000E+00 0.  1.
         14    1    4    4    0    0 -0.20083013143E+01 -0.80352924902E+02  0.14686747851E+03  0.16742366039E+03  0.00000000000E+00 0. -1.
         -5    1    5    5    0  501 -0.61294055301E+01  0.16650771398E+02 -0.32299699977E+01  0.18637073442E+02  0.47000000000E+01 0.  1.
         13    1    6    6    0    0 -0.44153325611E+01  0.15000612879E+02  0.10703344642E+03  0.10816964547E+03  0.00000000000E+00 0. -1.
        -14    1    6    6    0    0  0.13685877817E+03  0.15488799272E+03  0.44766572797E+03  0.49307729561E+03  0.00000000000E+00 0.  1.
</event>
<event>
12    1  0.1345781E-002  0.1943921E+03  0.7818608E-02  0.1154559E+00
          2   -1    0    0  502    0  0.00000000000E+00  0.00000000000E+00  0.63308998864E+03  0.63308998864E+03  0.00000000000E+00 0. -1.
         -2   -1    0    0    0  501 -0.00000000000E+00 -0.00000000000E+00 -0.13133988512E+03  0.13133988512E+03  0.00000000000E+00 0.  1.
          6    2    1    2  502    0  0.52629906838E+02 -0.70866025940E+02 -0.31405183586E+02  0.19695713893E+03  0.17324528361E+03 0.  0.
         24    2    3    3    0    0  0.10353993537E+02  0.35440165308E+02 -0.18321948785E+02  0.81711661032E+02  0.70554172394E+02 0.  0.
         -6    2    1    2    0  501 -0.52629906838E+02  0.70866025940E+02  0.53315528711E+03  0.56747273483E+03  0.17314399754E+03 0.  0.
        -24    2    5    5    0    0  0.39604139655E+02  0.45430410205E+02  0.31285636846E+03  0.32724827014E+03  0.74698815085E+02 0.  0.
          5    1    3    3  502    0  0.42275913302E+02 -0.10630619125E+03 -0.13083234801E+02  0.11524547790E+03  0.47000000000E+01 0. -1.
        -11    1    4    4    0    0 -0.17457869933E+02 -0.12931244657E+02  0.30966987348E+01  0.21945018888E+02  0.00000000000E+00 0.  1.
         12    1    4    4    0    0  0.27811863470E+02  0.48371409964E+02 -0.21418647520E+02  0.59766642144E+02  0.00000000000E+00 0. -1.
         -5    1    5    5    0  501 -0.92234046493E+02  0.25435615735E+02  0.22029891865E+03  0.24022446469E+03  0.47000000000E+01 0.  1.
         13    1    6    6    0    0 -0.74329560622E+01  0.15665546458E+02  0.20631360224E+03  0.20704096370E+03  0.00000000000E+00 0. -1.
        -14    1    6    6    0    0  0.47037095717E+02  0.29764863747E+02  0.10654276622E+03  0.12020730644E+03  0.00000000000E+00 0.  1.
</event>
<event>
12    1  0.1345781E-002  0.1985079E+03  0.7818608E-02  0.1151004E+00
         -4   -1    0    0    0  501 -0.00000000000E+00  0.00000000000E+00  0.29124551181E+03  0.29124551181E+03  0.00000000000E+00 0. -1.
          4   -1    0    0  502    0  0.00000000000E+00 -0.00000000000E+00 -0.13668976051E+03  0.13668976051E+03  0.00000000000E+00 0.  1.
          6    2    1    2  502    0 -0.90347901074E+02  0.40780978508E+02  0.55844276029E+02  0.20656572915E+03  0.17240935548E+03 0.  0.
         24    2    3    3    0    0  0.69889378381E+01  0.12171418933E+02 -0.13942578277E+02  0.83337233487E+02  0.80954989379E+02 0.  0.
         -6    2    1    2    0  501  0.90347901074E+02 -0.40780978508E+02  0.98711475271E+02  0.22136954317E+03  0.17156540402E+03 0.  0.
        -24    2    5    5    0    0  0.11561760247E+03 -0.15001724758E+02  0.11462728012E+03  0.18163881732E+03  0.79124995176E+02 0.  0.
          5    1    3    3  502    0 -0.97336838912E+02  0.28609559575E+02  0.69786854306E+02  0.12322849566E+03  0.47000000000E+01 0. -1.
        -13    1    4    4    0    0 -0.13125654192E+02 -0.24948926725E+01 -0.43027250025E+02  0.45053873664E+02  0.00000000000E+00 0.  1.
         14    1    4    4    0    0  0.20114592030E+02  0.14666311606E+02  0.29084671749E+02  0.38283359823E+02  0.00000000000E+00 0. -1.
         -5    1    5    5    0  501 -0.25269701394E+02 -0.25779253750E+02 -0.15915804853E+02  0.39730725850E+02  0.47000000000E+01 0.  1.
         13    1    6    6    0    0  0.12594319888E+02  0.25240922333E+02  0.36933819419E+02  0.46473950451E+02  0.00000000000E+00 0. -1.
        -14    1    6    6    0    0  0.10302328258E+03 -0.40242647092E+02  0.77693460705E+02  0.13516486687E+03  0.00000000000E+00 0.  1.
</event>
<event>
12    1  0.1345781E-002  0.2304815E+03  0.7818608E-02  0.1126301E+00
          1   -1    0    0  502    0  0.00000000000E+00  0.00000000000E+00  0.14908018326E+03  0.14908018326E+03  0.00000000000E+00 0. -1.
         -1   -1    0    0    0  501 -0.00000000000E+00 -0.00000000000E+00 -0.36716788515E+03  0.36716788515E+03  0.00000000000E+00 0.  1.
          6    2    1    2  502    0 -0.12768455065E+03 -0.86215815759E+02 -0.15364481423E+03  0.27746703198E+03  0.17217640237E+03 0.  0.
         24    2    3    3    0    0 -0.84140027697E+02 -0.12521415752E+03 -0.12904608726E+03  0.21387313677E+03  0.79565674059E+02 0.  0.
         -6    2    1    2    0  501  0.12768455065E+03  0.86215815759E+02 -0.64442887656E+02  0.23878103644E+03  0.17066630080E+03 0.  0.
        -24    2    5    5    0    0  0.56868664383E+02  0.11455224958E+03 -0.60832108406E+02  0.16227632444E+03  0.79226240526E+02 0.  0.
          5    1    3    3  502    0 -0.43544522956E+02  0.38998341765E+02 -0.24598726973E+02  0.63593895215E+02  0.47000000000E+01 0. -1.
        -13    1    4    4    0    0 -0.89366018779E+02 -0.70082436464E+02 -0.10009588504E+03  0.15138368279E+03  0.00000000000E+00 0.  1.
         14    1    4    4    0    0  0.52259910813E+01 -0.55131721060E+02 -0.28950202217E+02  0.62489453976E+02  0.00000000000E+00 0. -1.
         -5    1    5    5    0  501  0.70815886270E+02 -0.28336433826E+02 -0.36107792494E+01  0.76504711992E+02  0.47000000000E+01 0.  1.
         11    1    6    6    0    0 -0.78889503423E+00  0.19261726808E+02  0.17561055568E+02  0.26077330148E+02  0.00000000000E+00 0. -1.
        -12    1    6    6    0    0  0.57657559417E+02  0.95290522777E+02 -0.78393163974E+02  0.13619899430E+03  0.00000000000E+00 0.  1.
</event>
<event>
12    1  0.1345781E-002  0.2194826E+03  0.7818608E-02  0.1134269E+00
         -2   -1    0    0    0  501 -0.00000000000E+00  0.00000000000E+00  0.38173505200E+02  0.38173505200E+02  0.00000000000E+00 0. -1.
          2   -1    0    0  502    0  0.00000000000E+00 -0.00000000000E+00 -0.12626843121E+04  0.12626843121E+04  0.00000000000E+00 0.  1.
          6    2    1    2  502    0 -0.13287561781E+03 -0.16200034573E+01 -0.59062495250E+03  0.62894636440E+03  0.17052020572E+03 0.  0.
         24    2    3    3    0    0 -0.14721806354E+03  0.15907369115E+02 -0.36720598462E+03  0.40433327540E+03  0.81969261523E+02 0.  0.
         -6    2    1    2    0  501  0.13287561781E+03  0.16200034573E+01 -0.63388585444E+03  0.67191145294E+03  0.17887193719E+03 0.  0.
        -24    2    5    5    0    0  0.46919849836E+02 -0.38780446458E+02 -0.15847084744E+03  0.18707941059E+03  0.78614890736E+02 0.  0.
          5    1    3    3  502    0  0.14342445735E+02 -0.17527372572E+02 -0.22341896788E+03  0.22461308900E+03  0.47000000000E+01 0. -1.
        -13    1    4    4    0    0 -0.98129075372E+02  0.81392898291E+01 -0.32348656193E+03  0.33814067963E+03  0.00000000000E+00 0.  1.
         14    1    4    4    0    0 -0.49088988168E+02  0.77680792855E+01 -0.43719422694E+02  0.66192595778E+02  0.00000000000E+00 0. -1.
         -5    1    5    5    0  501  0.85955767969E+02  0.40400449916E+02 -0.47541500700E+03  0.48483204234E+03  0.47000000000E+01 0.  1.
         11    1    6    6    0    0 -0.16522734055E+02 -0.22973514070E+02 -0.22312045271E+02  0.36036238060E+02  0.00000000000E+00 0. -1.
        -12    1    6    6    0    0  0.63442583891E+02 -0.15806932389E+02 -0.13615880216E+03  0.15104317253E+03  0.00000000000E+00 0.  1.
</event>
<event>
12    1  0.1345781E-002  0.1878549E+03  0.7818608E-02  0.1160410E+00
          2   -1    0    0  502    0  0.00000000000E+00  0.00000000000E+00  0.68949209664E+03  0.68949209664E+03  0.00000000000E+00 0. -1.
         -2   -1    0    0    0  501 -0.00000000000E+00 -0.00000000000E+00 -0.55818898966E+02  0.55818898966E+02  0.00000000000E+00 0.  1.
          6    2    1    2  502    0 -0.49859920535E+01  0.71394273826E+02  0.20829484431E+03  0.27999931980E+03  0.17288977549E+03 0.  0.
         24    2    3    3    0    0  0.48734704996E+02  0.69116918257E+02  0.76633521375E+02  0.13770422643E+03  0.77055418478E+02 0.  0.
         -6    2    1    2    0  501  0.49859920535E+01 -0.71394273826E+02  0.42537835336E+03  0.46531167581E+03  0.17448842278E+03 0.  0.
        -24    2    5    5    0    0 -0.45949311863E+02 -0.93526784902E+02  0.32423649474E+03  0.34982999415E+03  0.79956998041E+02 0.  0.
          5    1    3    3  502    0 -0.53720697050E+02  0.22773555687E+01  0.13166132294E+03  0.14229509337E+03  0.47000000000E+01 0. -1.
        -11    1    4    4    0    0 -0.14871328111E+02 -0.58331487137E+01  0.84614305848E+01  0.18076997296E+02  0.00000000000E+00 0.  1.
         12    1    4    4    0    0  0.63606033108E+02  0.74950066971E+02  0.68172090790E+02  0.11962722913E+03  0.00000000000E+00 0. -1.
         -5    1    5    5    0  501  0.50935303917E+02  0.22132511076E+02  0.10114185862E+03  0.11548168165E+03  0.47000000000E+01 0.  1.
         13    1    6    6    0    0 -0.71786611717E+01 -0.87233007607E+02  0.26201576242E+03  0.27624878379E+03  0.00000000000E+00 0. -1.
        -14    1    6    6    0    0 -0.38770650692E+02 -0.62937772947E+01  0.62220732320E+02  0.73581210360E+02  0.00000000000E+00 0.  1.
</event>
<event>
12    1  0.1345781E-002  0.1799651E+03  0.7818608E-02  0.1167837E+00
         -2   -1    0    0    0  501 -0.00000000000E+00  0.00000000000E+00  0.23450871286E+02  0.23450871286E+02  0.00000000000E+00 0.  1.
          2   -1    0    0  502    0  0.00000000000E+00 -0.00000000000E+00 -0.14254335025E+04  0.14254335025E+04  0.00000000000E+00 0. -1.
          6    2    1    2  502    0  0.39016242368E+02 -0.37156618912E+02 -0.82941229578E+03  0.84874736311E+03  0.17188498626E+03 0.  0.
         24    2    3    3    0    0 -0.22890804051E+02  0.49562907425E+01 -0.63053878794E+03  0.63619444810E+03  0.81336701303E+02 0.  0.
         -6    2    1    2    0  501 -0.39016242368E+02  0.37156618912E+02 -0.57257033548E+03  0.60013701072E+03  0.17153647153E+03 0.  0.
        -24    2    5    5    0    0 -0.14674813277E+01  0.69233278951E+02 -0.22318524758E+03  0.24724772040E+03  0.80773634872E+02 0.  0.
          5    1    3    3  502    0  0.61907046419E+02 -0.42112909655E+02 -0.19887350784E+03  0.21255291501E+03  0.47000000000E+01 0. -1.
        -13    1    4    4    0    0  0.17664755274E+02  0.29008861582E+02 -0.17844939976E+03  0.18165281695E+03  0.00000000000E+00 0.  1.
         14    1    4    4    0    0 -0.40555559324E+02 -0.24052570840E+02 -0.45208938817E+03  0.45454163116E+03  0.00000000000E+00 0. -1.
         -5    1    5    5    0  501 -0.37548761041E+02 -0.32076660039E+02 -0.34938508790E+03  0.35288929032E+03  0.47000000000E+01 0.  1.
         11    1    6    6    0    0 -0.39430143531E+02  0.42335780719E+02 -0.14705902383E+03  0.15802977896E+03  0.00000000000E+00 0. -1.
        -12    1    6    6    0    0  0.37962662203E+02  0.26897498232E+02 -0.76126223749E+02  0.89217941441E+02  0.00000000000E+00 0.  1.
</event>
<event>
12    1  0.1345781E-002  0.1998040E+03  0.7818608E-02  0.1149904E+00
          1   -1    0    0  502    0  0.00000000000E+00  0.00000000000E+00  0.47795941223E+03  0.47795941223E+03  0.00000000000E+00 0. -1.
         -1   -1    0    0    0  501 -0.00000000000E+00 -0.00000000000E+00 -0.83576747517E+02  0.83576747517E+02  0.00000000000E+00 0.  1.
          6    2    1    2  502    0  0.43253390281E+02 -0.97045648400E+02  0.20403993905E+03  0.28893166767E+03  0.17481561203E+03 0.  0.
         24    2    3    3    0    0 -0.32744570766E+02 -0.13346613506E+02  0.66369829732E+02  0.11072850405E+03  0.81274278237E+02 0.  0.
         -6    2    1    2    0  501 -0.43253390281E+02  0.97045648400E+02  0.19034272567E+03  0.27260449208E+03  0.16368916349E+03 0.  0.
        -24    2    5    5    0    0 -0.44304221422E+02 -0.62192515027E+01  0.80172219435E+02  0.12152711376E+03  0.79622305192E+02 0.  0.
          5    1    3    3  502    0  0.75997961047E+02 -0.83699034894E+02  0.13767010932E+03  0.17820316362E+03  0.47000000000E+01 0. -1.
        -11    1    4    4    0    0 -0.37108502774E+01 -0.16107731061E+02 -0.16209015868E+02  0.23150844588E+02  0.00000000000E+00 0.  1.
         12    1    4    4    0    0 -0.29033720488E+02  0.27611175553E+01  0.82578845600E+02  0.87577659458E+02  0.00000000000E+00 0. -1.
         -5    1    5    5    0  501  0.10508311403E+01  0.10326489990E+03  0.11017050623E+03  0.15107737833E+03  0.47000000000E+01 0.  1.
         11    1    6    6    0    0 -0.53350830603E+02 -0.16479237921E+01  0.91745550750E+02  0.10614270046E+03  0.00000000000E+00 0. -1.
        -12    1    6    6    0    0  0.90466091815E+01 -0.45713277106E+01 -0.11573331315E+02  0.15384413296E+02  0.00000000000E+00 0.  1.
</event>
<event>
12    1  0.1345781E-002  0.1936600E+03  0.7818608E-02  0.1155201E+00
          1   -1    0    0  502    0  0.00000000000E+00  0.00000000000E+00  0.10635006947E+03  0.10635006947E+03  0.00000000000E+00 0. -1.
         -1   -1    0    0    0  501 -0.00000000000E+00 -0.00000000000E+00 -0.42391896754E+03  0.42391896754E+03  0.00000000000E+00 0.  1.
          6    2    1    2  502    0 -0.19401181449E+01 -0.88606244590E+02 -0.49872424159E+02  0.19969446131E+03  0.17185979328E+03 0.  0.
         24    2    3    3    0    0  0.39868807548E+02 -0.96471306586E+02  0.29195147836E+01  0.13173179299E+03  0.80302595896E+02 0.  0.
         -6    2    1    2    0  501  0.19401181449E+01  0.88606244590E+02 -0.26769647391E+03  0.33057457571E+03  0.17252048377E+03 0.  0.
        -24    2    5    5    0    0  0.50428211917E+02  0.37201754725E+02 -0.78175122080E+02  0.12825317393E+03  0.80065921590E+02 0.  0.
          5    1    3    3  502    0 -0.41808925693E+02  0.78650619961E+01 -0.52791938942E+02  0.67962668319E+02  0.47000000000E+01 0. -1.
        -11    1    4    4    0    0  0.22030804284E+02  0.96434991613E+01 -0.82325571282E+00  0.24063066376E+02  0.00000000000E+00 0.  1.
         12    1    4    4    0    0  0.17838003264E+02 -0.10611480575E+03  0.37427704964E+01  0.10766872661E+03  0.00000000000E+00 0. -1.
         -5    1    5    5    0  501 -0.48488093772E+02  0.51404489866E+02 -0.18952135183E+03  0.20232140178E+03  0.47000000000E+01 0.  1.
         13    1    6    6    0    0  0.28868737011E+02  0.32521075402E+02  0.35232952574E+01  0.43628407390E+02  0.00000000000E+00 0. -1.
        -14    1    6    6    0    0  0.21559474906E+02  0.46806793227E+01 -0.81698417337E+02  0.84624766543E+02  0.00000000000E+00 0.  1.
</event>
<event>
12    1  0.1345781E-002  0.1876431E+03  0.7818608E-02  0.1160604E+00
         -2   -1    0    0    0  501 -0.00000000000E+00  0.00000000000E+00  0.43845345497E+03  0.43845345497E+03  0.00000000000E+00 0. -1.
          2   -1    0    0  502    0  0.00000000000E+00 -0.00000000000E+00 -0.23189778559E+03  0.23189778559E+03  0.00000000000E+00 0.  1.
          6    2    1    2  502    0  0.17653844588E+02  0.76180151438E+02 -0.16721989775E+03  0.25322976416E+03  0.17334285548E+03 0.  0.
         24    2    3    3    0    0  0.42175533100E+02  0.10605999790E+03 -0.16256431603E+03  0.21401391438E+03  0.79669943878E+02 0.  0.
         -6    2    1    2    0  501 -0.17653844588E+02 -0.76180151438E+02  0.37377556714E+03  0.41712147640E+03  0.16783050314E+03 0.  0.
        -24    2    5    5    0    0  0.34292745727E+02 -0.22251402834E+02  0.13122563686E+03  0.16323308193E+03  0.88055402605E+02 0.  0.
          5    1    3    3  502    0 -0.24521688512E+02 -0.29879846463E+02 -0.46555817270E+01  0.39215849772E+02  0.47000000000E+01 0. -1.
        -11    1    4    4    0    0 -0.23434871382E+02  0.26986592708E+02 -0.32937455750E+02  0.48603964591E+02  0.00000000000E+00 0.  1.
         12    1    4    4    0    0  0.65610404482E+02  0.79073405193E+02 -0.12962686028E+03  0.16540994979E+03  0.00000000000E+00 0. -1.
         -5    1    5    5    0  501 -0.51946590315E+02 -0.53928748604E+02  0.24254993027E+03  0.25388839447E+03  0.47000000000E+01 0.  1.
         11    1    6    6    0    0 -0.57361010464E+01  0.32010259440E+01  0.11176966916E+03  0.11196253108E+03  0.00000000000E+00 0. -1.
        -12    1    6    6    0    0  0.40028846773E+02 -0.25452428778E+02  0.19455967703E+02  0.51270550845E+02  0.00000000000E+00 0.  1.
</event>
<event>
12    1  0.1345781E-002  0.1948315E+03  0.7818608E-02  0.1154174E+00
          2   -1    0    0  502    0  0.00000000000E+00  0.00000000000E+00  0.29363495275E+03  0.29363495275E+03  0.00000000000E+00 0.  1.
         -2   -1    0    0    0  501 -0.00000000000E+00 -0.00000000000E+00 -0.15904583090E+03  0.15904583090E+03  0.00000000000E+00 0. -1.
          6    2    1    2  502    0  0.89292076539E+02  0.26261093957E+02  0.16496735171E+03  0.25461472194E+03  0.17015201882E+03 0.  0.
         24    2    3    3    0    0  0.26590575562E+02 -0.30771273764E+02  0.13928367836E+03  0.16592475481E+03  0.80480750508E+02 0.  0.
         -6    2    1    2    0  501 -0.89292076539E+02 -0.26261093957E+02 -0.30378229869E+02  0.19806606171E+03  0.17217609579E+03 0.  0.
        -24    2    5    5    0    0 -0.11568921565E+03 -0.64537602975E+01 -0.60519820756E+02  0.15312448940E+03  0.79742177737E+02 0.  0.
          5    1    3    3  502    0  0.62701500978E+02  0.57032367721E+02  0.25683673353E+02  0.88689967131E+02  0.47000000000E+01 0. -1.
        -11    1    4    4    0    0 -0.61314549091E+01  0.19334891707E+02  0.76685883087E+02  0.79323120473E+02  0.00000000000E+00 0.  1.
         12    1    4    4    0    0  0.32722030471E+02 -0.50106165471E+02  0.62597795274E+02  0.86601634335E+02  0.00000000000E+00 0. -1.
         -5    1    5    5    0  501  0.26397139112E+02 -0.19807333660E+02  0.30141590888E+02  0.44941572305E+02  0.47000000000E+01 0.  1.
         11    1    6    6    0    0 -0.29450056225E+02 -0.30230960484E+02  0.46306349261E+01  0.42457738556E+02  0.00000000000E+00 0. -1.
        -12    1    6    6    0    0 -0.86239159426E+02  0.23777200186E+02 -0.65150455682E+02  0.11066675085E+03  0.00000000000E+00 0.  1.
</event>
<event>
12    1  0.1345781E-002  0.2373095E+03  0.7818608E-02  0.1121598E+00
         -1   -1    0    0    0  501 -0.00000000000E+00  0.00000000000E+00  0.39639115912E+02  0.39639115912E+02  0.00000000000E+00 0. -1.
          1   -1    0    0  502    0  0.00000000000E+00 -0.00000000000E+00 -0.14636681419E+04  0.14636681419E+04  0.00000000000E+00 0.  1.
          6    2    1    2  502    0  0.12917873194E+03 -0.97155015078E+02 -0.58171301263E+03  0.62805616975E+03  0.17302682325E+03 0.  0.
         24    2    3    3    0    0  0.57202516854E+02 -0.11031953379E+03 -0.48264218870E+03  0.50480440204E+03  0.80258797248E+02 0.  0.
         -6    2    1    2    0  501 -0.12917873194E+03  0.97155015078E+02 -0.84231601337E+03  0.87525108807E+03  0.17447624207E+03 0.  0.
        -24    2    5    5    0    0 -0.13130384324E+03  0.32540854560E+02 -0.42362405492E+03  0.45157131288E+03  0.78483783288E+02 0.  0.
          5    1    3    3  502    0  0.71976215082E+02  0.13164518717E+02 -0.99070823933E+02  0.12325176772E+03  0.47000000000E+01 0. -1.
        -11    1    4    4    0    0 -0.92347260935E+01 -0.15094914384E+02 -0.17647161980E+03  0.17735661589E+03  0.00000000000E+00 0.  1.
         12    1    4    4    0    0  0.66437242947E+02 -0.95224619411E+02 -0.30617056889E+03  0.32744778614E+03  0.00000000000E+00 0. -1.
         -5    1    5    5    0  501  0.21251113084E+01  0.64614160518E+02 -0.41869195845E+03  0.42367977519E+03  0.47000000000E+01 0.  1.
         13    1    6    6    0    0 -0.73788370624E+02  0.39950345802E+02 -0.15004405332E+03  0.17191268629E+03  0.00000000000E+00 0. -1.
        -14    1    6    6    0    0 -0.57515472620E+02 -0.74094912417E+01 -0.27358000160E+03  0.27965862659E+03  0.00000000000E+00 0.  1.
</event>
<event>
12    1  0.1345781E-002  0.2536063E+03  0.7818608E-02  0.1111047E+00
         -1   -1    0    0    0  501 -0.00000000000E+00  0.00000000000E+00  0.80182411024E+02  0.80182411024E+02  0.00000000000E+00 0.  1.
          1   -1    0    0  502    0  0.00000000000E+00 -0.00000000000E+00 -0.80558262532E+03  0.80558262532E+03  0.00000000000E+00 0. -1.
          6    2    1    2  502    0  0.18518461335E+03 -0.55788636691E+01 -0.33345888253E+03  0.41884710702E+03  0.17295550867E+03 0.  0.
         24    2    3    3    0    0  0.11297743634E+03  0.61028290669E+02 -0.21439171969E+03  0.26441437510E+03  0.86387492761E+02 0.  0.
         -6    2    1    2    0  501 -0.18518461335E+03  0.55788636691E+01 -0.39194133176E+03  0.46691792932E+03  0.17340669087E+03 0.  0.
        -24    2    5    5    0    0 -0.11547988915E+03 -0.53713549887E+02 -0.30843888152E+03  0.34294580311E+03  0.79098230062E+02 0.  0.
          5    1    3    3  502    0  0.72207177009E+02 -0.66607154338E+02 -0.11906716284E+03  0.15443273192E+03  0.47000000000E+01 0. -1.
        -11    1    4    4    0    0  0.10786789228E+03  0.45353854957E+02 -0.11641505563E+03  0.16506035115E+03  0.00000000000E+00 0.  1.
         12    1    4    4    0    0  0.51095440567E+01  0.15674435711E+02 -0.97976664053E+02  0.99354023946E+02  0.00000000000E+00 0. -1.
         -5    1    5    5    0  501 -0.69704724196E+02  0.59292413557E+02 -0.83502450242E+02  0.12397212621E+03  0.47000000000E+01 0.  1.
         13    1    6    6    0    0 -0.11528800455E+03 -0.46849703135E+02 -0.20880506634E+03  0.24307565572E+03  0.00000000000E+00 0. -1.
        -14    1    6    6    0    0 -0.19188460317E+00 -0.68638467520E+01 -0.99633815180E+02  0.99870147388E+02  0.00000000000E+00 0.  1.
</event>
<event>
12    1  0.1345781E-002  0.1931010E+03  0.7818608E-02  0.1155694E+00
         -1   -1    0    0    0  501 -0.00000000000E+00  0.00000000000E+00  0.17964009425E+02  0.17964009425E+02  0.00000000000E+00 0. -1.
          1   -1    0    0  502    0  0.00000000000E+00 -0.00000000000E+00 -0.23003802250E+04  0.23003802250E+04  0.00000000000E+00 0.  1.
          6    2    1    2  502    0  0.29163433086E+02 -0.82431265935E+02 -0.15059721580E+04  0.15183617669E+04  0.17269885637E+03 0.  0.
         24    2    3    3    0    0  0.50880245949E+02 -0.97768950040E+02 -0.14478456209E+04  0.14542708250E+04  0.80617141312E+02 0.  0.
         -6    2    1    2    0  501 -0.29163433086E+02  0.82431265935E+02 -0.77644405761E+03  0.79998246759E+03  0.17164251926E+03 0.  0.
        -24    2    5    5    0    0 -0.33929226598E+02  0.41309610563E+02 -0.73456840481E+03  0.74091163193E+03  0.80632677231E+02 0.  0.
          5    1    3    3  502    0 -0.21716812863E+02  0.15337684105E+02 -0.58126537113E+02  0.64090941883E+02  0.47000000000E+01 0. -1.
        -13    1    4    4    0    0  0.42873900117E+02 -0.13490808349E+02 -0.30500397894E+03  0.30829790851E+03  0.00000000000E+00 0.  1.
         14    1    4    4    0    0  0.80063458318E+01 -0.84278141691E+02 -0.11428416419E+04  0.11459729165E+04  0.00000000000E+00 0. -1.
         -5    1    5    5    0  501  0.47657935115E+01  0.41121655372E+02 -0.41875652802E+02  0.59070835663E+02  0.47000000000E+01 0.  1.
         11    1    6    6    0    0 -0.20193861054E+01 -0.21565034931E+02 -0.93425526635E+02  0.95903376785E+02  0.00000000000E+00 0. -1.
        -12    1    6    6    0    0 -0.31909840492E+02  0.62874645495E+02 -0.64114287818E+03  0.64500825514E+03  0.00000000000E+00 0.  1.
</event>
<event>
12    1  0.1345781E-002  0.1796685E+03  0.7818608E-02  0.1168124E+00
         -1   -1    0    0    0  501 -0.00000000000E+00  0.00000000000E+00  0.29622379895E+02  0.29622379895E+02  0.00000000000E+00 0.  1.
          1   -1    0    0  502    0  0.00000000000E+00 -0.00000000000E+00 -0.13146385137E+04  0.13146385137E+04  0.00000000000E+00 0. -1.
          6    2    1    2  502    0 -0.37288592938E+01  0.52044336418E+02 -0.36944826615E+03  0.41154438004E+03  0.17364975679E+03 0.  0.
         24    2    3    3    0    0  0.46750187067E+02  0.56330298118E+02 -0.14259252549E+03  0.17905326051E+03  0.79804506736E+02 0.  0.
         -6    2    1    2    0  501  0.37288592938E+01 -0.52044336418E+02 -0.91556786761E+03  0.93271651352E+03  0.17021473802E+03 0.  0.
        -24    2    5    5    0    0  0.52697947929E+02  0.18519677496E+01 -0.65644415938E+03  0.66351404434E+03  0.80941022658E+02 0.  0.
          5    1    3    3  502    0 -0.50479046361E+02 -0.42859616995E+01 -0.22685574066E+03  0.23249111953E+03  0.47000000000E+01 0. -1.
        -11    1    4    4    0    0 -0.15299794197E+02  0.21982491732E+02 -0.80334639708E+02  0.84681568138E+02  0.00000000000E+00 0.  1.
         12    1    4    4    0    0  0.62049981264E+02  0.34347806385E+02 -0.62257885782E+02  0.94371692368E+02  0.00000000000E+00 0. -1.
         -5    1    5    5    0  501 -0.48969088635E+02 -0.53896304168E+02 -0.25912370823E+03  0.26920246918E+03  0.47000000000E+01 0.  1.
         13    1    6    6    0    0 -0.12510049738E+02  0.24359124876E+02 -0.20811151812E+03  0.20990538889E+03  0.00000000000E+00 0. -1.
        -14    1    6    6    0    0  0.65207997666E+02 -0.22507157127E+02 -0.44833264126E+03  0.45360865545E+03  0.00000000000E+00 0.  1.
</event>
<event>
12    1  0.1345781E-002  0.2290283E+03  0.7818608E-02  0.1127326E+00
          1   -1    0    0  502    0  0.00000000000E+00  0.00000000000E+00  0.89259334905E+03  0.89259334905E+03  0.00000000000E+00 0.  1.
         -1   -1    0    0    0  501 -0.00000000000E+00 -0.00000000000E+00 -0.13928895948E+03  0.13928895948E+03  0.00000000000E+00 0. -1.
          6    2    1    2  502    0 -0.52222538459E+02 -0.14073636317E+03  0.76878188909E+03  0.80210780074E+03  0.17267719469E+03 0.  0.
         24    2    3    3    0    0 -0.87025447735E+02 -0.14795750146E+03  0.58743993592E+03  0.61725547775E+03  0.80335519609E+02 0.  0.
         -6    2    1    2    0  501  0.52222538459E+02  0.14073636317E+03 -0.15477499527E+02  0.22977450779E+03  0.17327104200E+03 0.  0.
        -24    2    5    5    0    0  0.93200957110E+02  0.11363049614E+03  0.20034665047E+02  0.16897020979E+03  0.80939705539E+02 0.  0.
          5    1    3    3  502    0  0.34802909276E+02  0.72211382900E+01  0.18134195318E+03  0.18485232299E+03  0.47000000000E+01 0. -1.
        -13    1    4    4    0    0 -0.50753471357E+02 -0.31314749300E+02  0.28316463203E+03  0.28937646278E+03  0.00000000000E+00 0.  1.
         14    1    4    4    0    0 -0.36271976378E+02 -0.11664275216E+03  0.30427530389E+03  0.32787901497E+03  0.00000000000E+00 0. -1.
         -5    1    5    5    0  501 -0.40978418650E+02  0.27105867034E+02 -0.35512164574E+02  0.60804298002E+02  0.47000000000E+01 0.  1.
         11    1    6    6    0    0  0.66031762509E+02  0.45359359932E+02 -0.23597261506E+02  0.83513447684E+02  0.00000000000E+00 0. -1.
        -12    1    6    6    0    0  0.27169194601E+02  0.68271136207E+02  0.43631926553E+02  0.85456762103E+02  0.00000000000E+00 0.  1.
</event>
<event>
12    1  0.1345781E-002  0.2503244E+03  0.7818608E-02  0.1113100E+00
         -2   -1    0    0    0  501 -0.00000000000E+00  0.00000000000E+00  0.70921126868E+02  0.70921126868E+02  0.00000000000E+00 0.  1.
          2   -1    0    0  502    0  0.00000000000E+00 -0.00000000000E+00 -0.95440887001E+03  0.95440887001E+03  0.00000000000E+00 0. -1.
          6    2    1    2  502    0 -0.10270296519E+03  0.14975834484E+03 -0.30185496910E+03  0.39206855870E+03  0.17212167627E+03 0.  0.
         24    2    3    3    0    0 -0.18887447937E+02  0.59575494883E+02 -0.11028354433E+03  0.16429742764E+03  0.10452372600E+03 0.  0.
         -6    2    1    2    0  501  0.10270296519E+03 -0.14975834484E+03 -0.58163277405E+03  0.63326143819E+03  0.17247580798E+03 0.  0.
        -24    2    5    5    0    0  0.13305026600E+03 -0.13852446708E+03 -0.54855064845E+03  0.58674611050E+03  0.80447392792E+02 0.  0.
          5    1    3    3  502    0 -0.83815517253E+02  0.90182849954E+02 -0.19157142476E+03  0.22777113106E+03  0.47000000000E+01 0. -1.
        -13    1    4    4    0    0 -0.31705407199E+02  0.49871957696E+02 -0.67020305550E+01  0.59475728021E+02  0.00000000000E+00 0.  1.
         14    1    4    4    0    0  0.12817959262E+02  0.97035371872E+01 -0.10358151378E+03  0.10482169961E+03  0.00000000000E+00 0. -1.
         -5    1    5    5    0  501 -0.30347300809E+02 -0.11233877760E+02 -0.33082125598E+02  0.46515327689E+02  0.47000000000E+01 0.  1.
         11    1    6    6    0    0  0.12458064254E+03 -0.10093980315E+03 -0.49807240569E+03  0.52324497290E+03  0.00000000000E+00 0. -1.
        -12    1    6    6    0    0  0.84696234596E+01 -0.37584663924E+02 -0.50478242756E+02  0.63501137593E+02  0.00000000000E+00 0.  1.
</event>
<event>
12    1  0.1345781E-002  0.1726398E+03  0.7818608E-02  0.1175123E+00
         -1   -1    0    0    0  501 -0.00000000000E+00  0.00000000000E+00  0.24992448095E+02  0.24992448095E+02  0.00000000000E+00 0.  1.
          1   -1    0    0  502    0  0.00000000000E+00 -0.00000000000E+00 -0.15508680671E+04  0.15508680671E+04  0.00000000000E+00 0. -1.
          6    2    1    2  502    0 -0.88596522506E+01 -0.13365270156E+02 -0.38459488141E+03  0.42161357848E+03  0.17201064754E+03 0.  0.
         24    2    3    3    0    0  0.40520448022E+02  0.13082545997E+02 -0.33308329020E+03  0.34536782246E+03  0.80755153775E+02 0.  0.
         -6    2    1    2    0  501  0.88596522506E+01  0.13365270156E+02 -0.11412807376E+04  0.11542469367E+04  0.17177643910E+03 0.  0.
        -24    2    5    5    0    0  0.17916985292E+02 -0.10630342970E+02 -0.24592133872E+03  0.25850793015E+03  0.76909183842E+02 0.  0.
          5    1    3    3  502    0 -0.49380100273E+02 -0.26447816152E+02 -0.51511591210E+02  0.76245756020E+02  0.47000000000E+01 0. -1.
        -13    1    4    4    0    0  0.27682797154E+02  0.42722034539E+02 -0.26703988654E+03  0.27184887437E+03  0.00000000000E+00 0.  1.
         14    1    4    4    0    0  0.12837650868E+02 -0.29639488542E+02 -0.66043403659E+02  0.73518948087E+02  0.00000000000E+00 0. -1.
         -5    1    5    5    0  501 -0.90573330411E+01  0.23995613126E+02 -0.89535939883E+03  0.89573900652E+03  0.47000000000E+01 0.  1.
         13    1    6    6    0    0  0.12216936610E+02  0.30738963507E+02 -0.15448733783E+03  0.15798884444E+03  0.00000000000E+00 0. -1.
        -14    1    6    6    0    0  0.57000486815E+01 -0.41369306477E+02 -0.91434000895E+02  0.10051908572E+03  0.00000000000E+00 0.  1.
</event>
<event>
12    1  0.1345781E-002  0.1771537E+03  0.7818608E-02  0.1170586E+00
          2   -1    0    0  502    0  0.00000000000E+00  0.00000000000E+00  0.31728887365E+04  0.31728887365E+04  0.00000000000E+00 0.  1.
         -2   -1    0    0    0  501 -0.00000000000E+00 -0.00000000000E+00 -0.31714754714E+02  0.31714754714E+02  0.00000000000E+00 0. -1.
          6    2    1    2  502    0 -0.12995659883E+02  0.33861294743E+02  0.23752319760E+03  0.29546618654E+03  0.17195209662E+03 0.  0.
         24    2    3    3    0    0 -0.25580983518E+02  0.85203997793E+02  0.18771703269E+03  0.22268426852E+03  0.80227745370E+02 0.  0.
         -6    2    1    2    0  501  0.12995659883E+02 -0.33861294743E+02  0.29036507841E+04  0.29091373046E+04  0.17486139220E+03 0.  0.
        -24    2    5    5    0    0 -0.40342727804E+02 -0.11457013629E+02  0.24673127085E+04  0.24689555903E+04  0.79692573601E+02 0.  0.
          5    1    3    3  502    0  0.12585323636E+02 -0.51342703050E+02  0.49806164915E+02  0.72781918023E+02  0.47000000000E+01 0. -1.
        -13    1    4    4    0    0 -0.20850895080E+02  0.71144457429E+00  0.51971854759E+01  0.21500621290E+02  0.00000000000E+00 0.  1.
         14    1    4    4    0    0 -0.47300884389E+01  0.84492553219E+02  0.18251984721E+03  0.20118364723E+03  0.00000000000E+00 0. -1.
         -5    1    5    5    0  501  0.53338387687E+02 -0.22404281114E+02  0.43633807564E+03  0.44018171437E+03  0.47000000000E+01 0.  1.
         13    1    6    6    0    0  0.27239199048E+01 -0.32685210786E+02  0.50971842200E+03  0.51077256432E+03  0.00000000000E+00 0. -1.
        -14    1    6    6    0    0 -0.43066647709E+02  0.21228197157E+02  0.19575942865E+04  0.19581830259E+04  0.00000000000E+00 0.  1.
</event>
<event>
12    1  0.1345781E-002  0.1691695E+03  0.7818608E-02  0.1178717E+00
         -2   -1    0    0    0  501 -0.00000000000E+00  0.00000000000E+00  0.40168974428E+02  0.40168974428E+02  0.00000000000E+00 0.  1.
          2   -1    0    0  502    0  0.00000000000E+00 -0.00000000000E+00 -0.10855440077E+04  0.10855440077E+04  0.00000000000E+00 0. -1.
          6    2    1    2  502    0 -0.28288187052E+01 -0.13840870194E+01 -0.84671529805E+03  0.86289587406E+03  0.16629063597E+03 0.  0.
         24    2    3    3    0    0 -0.10545002596E+02 -0.53580770176E+01 -0.32152416309E+03  0.33761199812E+03  0.10229451477E+03 0.  0.
         -6    2    1    2    0  501  0.28288187052E+01  0.13840870194E+01 -0.19865973519E+03  0.26281710804E+03  0.17203843750E+03 0.  0.
        -24    2    5    5    0    0 -0.88560943303E+01  0.33819971743E+02 -0.20926975218E+03  0.22644010609E+03  0.79114294359E+02 0.  0.
          5    1    3    3  502    0  0.77161838906E+01  0.39739899982E+01 -0.52519113496E+03  0.52528387595E+03  0.47000000000E+01 0. -1.
        -13    1    4    4    0    0 -0.50189301595E+02 -0.25860414448E+02 -0.21082026769E+03  0.21824965590E+03  0.00000000000E+00 0.  1.
         14    1    4    4    0    0  0.39644298999E+02  0.20502337431E+02 -0.11070389540E+03  0.11936234222E+03  0.00000000000E+00 0. -1.
         -5    1    5    5    0  501  0.11684913035E+02 -0.32435884724E+02  0.10610016986E+02  0.36377001950E+02  0.47000000000E+01 0.  1.
         13    1    6    6    0    0 -0.15118147295E+02 -0.23899446551E+02 -0.62281813647E+02  0.68401507544E+02  0.00000000000E+00 0. -1.
        -14    1    6    6    0    0  0.62620529645E+01  0.57719418294E+02 -0.14698793853E+03  0.15803859854E+03  0.00000000000E+00 0.  1.
</event>
<event>
12    1  0.1345781E-002  0.1816671E+03  0.7818608E-02  0.1166199E+00
          1   -1    0    0  502    0  0.00000000000E+00  0.00000000000E+00  0.16102471362E+03  0.16102471362E+03  0.00000000000E+00 0.  1.
         -1   -1    0    0    0  501 -0.00000000000E+00 -0.00000000000E+00 -0.24265853980E+03  0.24265853980E+03  0.00000000000E+00 0. -1.
          6    2    1    2  502    0  0.31453632647E+02  0.38409456273E+02  0.39085672045E+02  0.18392693011E+03  0.17273334514E+03 0.  0.
         24    2    3    3    0    0  0.56928329471E+01 -0.44129826744E+02  0.11171488887E+02  0.92945373393E+02  0.80834338717E+02 0.  0.
         -6    2    1    2    0  501 -0.31453632647E+02 -0.38409456273E+02 -0.12071949822E+03  0.21975632331E+03  0.17679091335E+03 0.  0.
        -24    2    5    5    0    0 -0.43972223511E+01  0.19863303337E+02 -0.13263940531E+03  0.15424343880E+03  0.76052220142E+02 0.  0.
          5    1    3    3  502    0  0.25760799700E+02  0.82539283017E+02  0.27914183157E+02  0.90981556721E+02  0.47000000000E+01 0. -1.
        -11    1    4    4    0    0 -0.98088794340E+01 -0.57990990199E+01  0.40617111209E+02  0.42185227132E+02  0.00000000000E+00 0.  1.
         12    1    4    4    0    0  0.15501712381E+02 -0.38330727724E+02 -0.29445622321E+02  0.50760146262E+02  0.00000000000E+00 0. -1.
         -5    1    5    5    0  501 -0.27056410296E+02 -0.58272759610E+02  0.11919907093E+02  0.65512884502E+02  0.47000000000E+01 0.  1.
         13    1    6    6    0    0 -0.32600502252E+02  0.32160524422E+02 -0.96260313536E+02  0.10659803019E+03  0.00000000000E+00 0. -1.
        -14    1    6    6    0    0  0.28203279901E+02 -0.12297221085E+02 -0.36379091776E+02  0.47645408615E+02  0.00000000000E+00 0.  1.
</event>
<event>
12    1  0.1345781E-002  0.1921728E+03  0.7818608E-02  0.1156516E+00
          1   -1    0    0  502    0  0.00000000000E+00  0.00000000000E+00  0.16720624827E+03  0.16720624827E+03  0.00000000000E+00 0. -1.
         -1   -1    0    0    0  501 -0.00000000000E+00 -0.00000000000E+00 -0.29589912373E+03  0.29589912373E+03  0.00000000000E+00 0.  1.
          6    2    1    2  502    0  0.72347694075E+02  0.46093387385E+02 -0.18117364173E+03  0.26478715432E+03  0.17300161685E+03 0.  0.
         24    2    3    3    0    0  0.85769296295E+02  0.86191609448E+02 -0.11113299996E+03  0.18283724084E+03  0.79331880303E+02 0.  0.
         -6    2    1    2    0  501 -0.72347694075E+02 -0.46093387385E+02  0.52480766271E+02  0.19831821768E+03  0.17093008932E+03 0.  0.
        -24    2    5    5    0    0 -0.49638624636E+02 -0.10061261968E+02  0.97557916271E+02  0.13612452548E+03  0.80293943495E+02 0.  0.
          5    1    3    3  502    0 -0.13421602219E+02 -0.40098222063E+02 -0.70040641769E+02  0.81949913473E+02  0.47000000000E+01 0. -1.
        -13    1    4    4    0    0  0.33275986039E+02  0.30029490662E+02 -0.93907619853E+02  0.10405624740E+03  0.00000000000E+00 0.  1.
         14    1    4    4    0    0  0.52493310256E+02  0.56162118786E+02 -0.17225380109E+02  0.78780993444E+02  0.00000000000E+00 0. -1.
         -5    1    5    5    0  501 -0.22709069439E+02 -0.36032125417E+02 -0.45077150000E+02  0.62193692196E+02  0.47000000000E+01 0.  1.
         11    1    6    6    0    0  0.14667438093E+01 -0.77347687542E+01  0.82389645570E+02  0.82764918185E+02  0.00000000000E+00 0. -1.
        -12    1    6    6    0    0 -0.51105368446E+02 -0.23264932140E+01  0.15168270701E+02  0.53359607295E+02  0.00000000000E+00 0.  1.
</event>
<event>
12    1  0.1345781E-002  0.1778333E+03  0.7818608E-02  0.1169917E+00
         -3   -1    0    0    0  501 -0.00000000000E+00  0.00000000000E+00  0.61987358430E+03  0.61987358430E+03  0.00000000000E+00 0.  1.
          3   -1    0    0  502    0  0.00000000000E+00 -0.00000000000E+00 -0.54766514702E+02  0.54766514702E+02  0.00000000000E+00 0. -1.
          6    2    1    2  502    0 -0.58696934755E+01  0.45894627104E+02  0.19337058908E+03  0.26228164471E+03  0.17105176507E+03 0.  0.
         24    2    3    3    0    0 -0.40985245954E+01  0.84820702341E+02  0.18946039812E+03  0.22283857224E+03  0.80934772332E+02 0.  0.
         -6    2    1    2    0  501  0.58696934755E+01 -0.45894627104E+02  0.37173648052E+03  0.41235845429E+03  0.17236796042E+03 0.  0.
        -24    2    5    5    0    0 -0.54456236684E+01 -0.77562434149E+02  0.35952290721E+03  0.37627316951E+03  0.79241348262E+02 0.  0.
          5    1    3    3  502    0 -0.17711688801E+01 -0.38926075237E+02  0.39101909587E+01  0.39443072470E+02  0.47000000000E+01 0. -1.
        -11    1    4    4    0    0 -0.34818739913E+01  0.71955275234E+02  0.19569157992E+03  0.20853028445E+03  0.00000000000E+00 0.  1.
         12    1    4    4    0    0 -0.61665060405E+00  0.12865427107E+02 -0.62311818073E+01  0.14308287785E+02  0.00000000000E+00 0. -1.
         -5    1    5    5    0  501  0.11315317144E+02  0.31667807045E+02  0.12213573311E+02  0.36085284787E+02  0.47000000000E+01 0.  1.
         13    1    6    6    0    0 -0.25841429787E+02 -0.25212077672E+02  0.49881345868E+02  0.61575782736E+02  0.00000000000E+00 0. -1.
        -14    1    6    6    0    0  0.20395806119E+02 -0.52350356477E+02  0.30964156134E+03  0.31469738677E+03  0.00000000000E+00 0.  1.
</event>
<event>
12    1  0.1345781E-002  0.2099500E+03  0.7818608E-02  0.1141606E+00
          2   -1    0    0  502    0  0.00000000000E+00  0.00000000000E+00  0.21198059598E+04  0.21198059598E+04  0.00000000000E+00 0. -1.
         -2   -1    0    0    0  501 -0.00000000000E+00 -0.00000000000E+00 -0.34195541278E+02  0.34195541278E+02  0.00000000000E+00 0.  1.
          6    2    1    2  502    0 -0.10059138461E+03  0.45730651483E+02  0.17358024674E+04  0.17492500715E+04  0.18616038160E+03 0.  0.
         24    2    3    3    0    0 -0.80256413498E+02 -0.45538364399E+02  0.10429166853E+04  0.10500674478E+04  0.80321839020E+02 0.  0.
         -6    2    1    2    0  501  0.10059138461E+03 -0.45730651483E+02  0.34980795112E+03  0.40475142957E+03  0.17102104529E+03 0.  0.
        -24    2    5    5    0    0  0.45305119752E+02 -0.90246799557E+02  0.18944072932E+03  0.22931484744E+03  0.80625496135E+02 0.  0.
          5    1    3    3  502    0 -0.20334971110E+02  0.91269015882E+02  0.69288578208E+03  0.69918262372E+03  0.47000000000E+01 0. -1.
        -13    1    4    4    0    0 -0.47600031393E+02 -0.33335729766E-01  0.21258925665E+03  0.21785306090E+03  0.00000000000E+00 0.  1.
         14    1    4    4    0    0 -0.32656382105E+02 -0.45505028670E+02  0.83032742870E+03  0.83221438691E+03  0.00000000000E+00 0. -1.
         -5    1    5    5    0  501  0.55286264856E+02  0.44516148074E+02  0.16036722180E+03  0.17543658213E+03  0.47000000000E+01 0.  1.
         13    1    6    6    0    0  0.44225871105E+01 -0.12611370540E+02  0.11044750570E+03  0.11125312337E+03  0.00000000000E+00 0. -1.
        -14    1    6    6    0    0  0.40882532642E+02 -0.77635429017E+02  0.78993223617E+02  0.11806172407E+03  0.00000000000E+00 0.  1.
</event>
<event>
12    1  0.1345781E-002  0.2069063E+03  0.7818608E-02  0.1144040E+00
         -2   -1    0    0    0  501 -0.00000000000E+00  0.00000000000E+00  0.58977035435E+02  0.58977035435E+02  0.00000000000E+00 0.  1.
          2   -1    0    0  502    0  0.00000000000E+00 -0.00000000000E+00 -0.86749669073E+03  0.86749669073E+03  0.00000000000E+00 0. -1.
          6    2    1    2  502    0 -0.11759528976E+02  0.11807397379E+03 -0.58891955859E+03  0.62371004380E+03  0.16765506980E+03 0.  0.
         24    2    3    3    0    0 -0.64832743898E+02  0.12162526371E+03 -0.37752266513E+03  0.40567308737E+03  0.55238588643E+02 0.  0.
         -6    2    1    2    0  501  0.11759528976E+02 -0.11807397379E+03 -0.21960009670E+03  0.30276368236E+03  0.17135312977E+03 0.  0.
        -24    2    5    5    0    0  0.56741210348E+02 -0.17732280902E+02 -0.10774266532E+03  0.14583700539E+03  0.78268457720E+02 0.  0.
          5    1    3    3  502    0  0.53073214922E+02 -0.35512899161E+01 -0.21139689347E+03  0.21803695643E+03  0.47000000000E+01 0. -1.
        -13    1    4    4    0    0 -0.54631737768E+02  0.55792598246E+02 -0.15763495187E+03  0.17591537409E+03  0.00000000000E+00 0.  1.
         14    1    4    4    0    0 -0.10201006130E+02  0.65832665462E+02 -0.21988771326E+03  0.22975771328E+03  0.00000000000E+00 0. -1.
         -5    1    5    5    0  501 -0.44981681371E+02 -0.10034169289E+03 -0.11185743138E+03  0.15692667697E+03  0.47000000000E+01 0.  1.
         13    1    6    6    0    0 -0.56239878937E+00 -0.12256583837E+02 -0.81768092415E+02  0.82683499424E+02  0.00000000000E+00 0. -1.
        -14    1    6    6    0    0  0.57303609137E+02 -0.54756970652E+01 -0.25974572903E+02  0.63153505967E+02  0.00000000000E+00 0.  1.
</event>
<event>
12    1  0.1345781E-002  0.1818454E+03  0.7818608E-02  0.1166029E+00
         -2   -1    0    0    0  501 -0.00000000000E+00  0.00000000000E+00  0.13713071123E+02  0.13713071123E+02  0.00000000000E+00 0. -1.
          2   -1    0    0  502    0  0.00000000000E+00 -0.00000000000E+00 -0.24114445523E+04  0.24114445523E+04  0.00000000000E+00 0.  1.
          6    2    1    2  502    0 -0.56779557251E+02 -0.10095347593E+02 -0.12052356719E+04  0.12189161230E+04  0.17273579856E+03 0.  0.
         24    2    3    3    0    0 -0.22865121963E+02  0.39487635839E+02 -0.35660170337E+03  0.36814567006E+03  0.79274033299E+02 0.  0.
         -6    2    1    2    0  501  0.56779557251E+02  0.10095347593E+02 -0.11924958093E+04  0.12062415004E+04  0.17218149685E+03 0.  0.
        -24    2    5    5    0    0  0.65992361594E+02 -0.54213590290E+02 -0.74782408807E+03  0.75682460603E+03  0.79047532782E+02 0.  0.
          5    1    3    3  502    0 -0.33914435287E+02 -0.49582983432E+02 -0.84863396850E+03  0.85077045298E+03  0.47000000000E+01 0. -1.
        -11    1    4    4    0    0 -0.46682777604E+02  0.25407268410E+02 -0.30498078699E+03  0.30957727863E+03  0.00000000000E+00 0.  1.
         12    1    4    4    0    0  0.23817655640E+02  0.14080367429E+02 -0.51620916380E+02  0.58568391433E+02  0.00000000000E+00 0. -1.
         -5    1    5    5    0  501 -0.92128043436E+01  0.64308937883E+02 -0.44467172125E+03  0.44941689436E+03  0.47000000000E+01 0.  1.
         13    1    6    6    0    0  0.70012270800E+02 -0.13751524274E+02 -0.36982630879E+03  0.37664614847E+03  0.00000000000E+00 0. -1.
        -14    1    6    6    0    0 -0.40199092059E+01 -0.40462066016E+02 -0.37799777928E+03  0.38017845756E+03  0.00000000000E+00 0.  1.
</event>
<event>
12    1  0.1345781E-002  0.1784859E+03  0.7818608E-02  0.1169276E+00
          1   -1    0    0  502    0  0.00000000000E+00  0.00000000000E+00  0.20419591794E+03  0.20419591794E+03  0.00000000000E+00 0.  1.
         -1   -1    0    0    0  501 -0.00000000000E+00 -0.00000000000E+00 -0.26616028956E+03  0.26616028956E+03  0.00000000000E+00 0. -1.
          6    2    1    2  502    0 -0.40072899928E+02  0.63829193128E+02 -0.18116790619E+03  0.24894696434E+03  0.15320828181E+03 0.  0.
         24    2    3    3    0    0 -0.62404876597E+02  0.75426151687E+02 -0.92078097302E+02  0.15625235458E+03  0.79705390839E+02 0.  0.
         -6    2    1    2    0  501  0.40072899928E+02 -0.63829193128E+02  0.11920353457E+03  0.22140924316E+03  0.17068265026E+03 0.  0.
        -24    2    5    5    0    0 -0.13504080421E+02  0.35086972678E+01  0.98558864245E+01  0.82183231004E+02  0.80388269148E+02 0.  0.
          5    1    3    3  502    0  0.22331976669E+02 -0.11596958558E+02 -0.89089808887E+02  0.92694609753E+02  0.47000000000E+01 0. -1.
        -13    1    4    4    0    0 -0.24986310959E+02  0.95179896759E+01  0.10489213876E+02  0.28721620263E+02  0.00000000000E+00 0.  1.
         14    1    4    4    0    0 -0.37418565638E+02  0.65908162011E+02 -0.10256731118E+03  0.12753073432E+03  0.00000000000E+00 0. -1.
         -5    1    5    5    0  501  0.53576980349E+02 -0.67337890396E+02  0.10934764814E+03  0.13922601215E+03  0.47000000000E+01 0.  1.
         13    1    6    6    0    0  0.14532432803E+01 -0.25167928450E+02 -0.24390961185E+02  0.35077849507E+02  0.00000000000E+00 0. -1.
        -14    1    6    6    0    0 -0.14957323701E+02  0.28676625718E+02  0.34246847609E+02  0.47105381498E+02  0.00000000000E+00 0.  1.
</event>
<event>
12    1  0.1345781E-002  0.1775988E+03  0.7818608E-02  0.1170147E+00
          1   -1    0    0  502    0  0.00000000000E+00  0.00000000000E+00  0.26926482830E+02  0.26926482830E+02  0.00000000000E+00 0.  1.
         -1   -1    0    0    0  501 -0.00000000000E+00 -0.00000000000E+00 -0.11715365813E+04  0.11715365813E+04  0.00000000000E+00 0. -1.
          6    2    1    2  502    0 -0.14446797112E+02  0.41718485724E+02 -0.56456478626E+03  0.59174296721E+03  0.17168925233E+03 0.  0.
         24    2    3    3    0    0 -0.46607242874E+01  0.87414952940E+02 -0.29204685072E+03  0.31520716569E+03  0.80006861801E+02 0.  0.
         -6    2    1    2    0  501  0.14446797112E+02 -0.41718485724E+02 -0.58004531220E+03  0.60672009690E+03  0.17235884017E+03 0.  0.
        -24    2    5    5    0    0 -0.58394448736E+02 -0.21465132028E+02 -0.29085408277E+03  0.30777243825E+03  0.79101913692E+02 0.  0.
          5    1    3    3  502    0 -0.97860728243E+01 -0.45696467216E+02 -0.27251793554E+03  0.27653580153E+03  0.47000000000E+01 0. -1.
        -13    1    4    4    0    0 -0.33774265925E+02  0.76855903718E+02 -0.17441352603E+03  0.19356551614E+03  0.00000000000E+00 0.  1.
         14    1    4    4    0    0  0.29113541637E+02  0.10559049221E+02 -0.11763332469E+03  0.12164164955E+03  0.00000000000E+00 0. -1.
         -5    1    5    5    0  501  0.72841245848E+02 -0.20253353696E+02 -0.28919122943E+03  0.29894765865E+03  0.47000000000E+01 0.  1.
         11    1    6    6    0    0 -0.70501704971E+02 -0.27450933368E+02 -0.28112329643E+03  0.29112600699E+03  0.00000000000E+00 0. -1.
        -12    1    6    6    0    0  0.12107256235E+02  0.59858013405E+01 -0.97307863337E+01  0.16646431266E+02  0.00000000000E+00 0.  1.
</event>
<event>
12    1  0.1345781E-002  0.1794514E+03  0.7818608E-02  0.1168335E+00
         -4   -1    0    0    0  501 -0.00000000000E+00  0.00000000000E+00  0.28710183652E+03  0.28710183652E+03  0.00000000000E+00 0. -1.
          4   -1    0    0  502    0  0.00000000000E+00 -0.00000000000E+00 -0.14181250204E+03  0.14181250204E+03  0.00000000000E+00 0.  1.
          6    2    1    2  502    0 -0.11027166446E+02 -0.50234608625E+02 -0.25626126482E+02  0.18060063364E+03  0.17121558401E+03 0.  0.
         24    2    3    3    0    0  0.31075811224E+02 -0.70135877016E+02 -0.44843791753E+02  0.13000290770E+03  0.94894905356E+02 0.  0.
         -6    2    1    2    0  501  0.11027166446E+02  0.50234608625E+02  0.17091546097E+03  0.24831370492E+03  0.17263396812E+03 0.  0.
        -24    2    5    5    0    0  0.19273796136E+02  0.22595053957E+02  0.19342575098E+03  0.21142529157E+03  0.80031975440E+02 0.  0.
          5    1    3    3  502    0 -0.42102977671E+02  0.19901268391E+02  0.19217665271E+02  0.50597725945E+02  0.47000000000E+01 0. -1.
        -13    1    4    4    0    0 -0.14344379682E+02  0.67017179443E+01 -0.37186793404E+02  0.40416974844E+02  0.00000000000E+00 0.  1.
         14    1    4    4    0    0  0.45420190906E+02 -0.76837594961E+02 -0.76569983492E+01  0.89585932852E+02  0.00000000000E+00 0. -1.
         -5    1    5    5    0  501 -0.82466296895E+01  0.27639554668E+02 -0.22510290005E+02  0.36888413352E+02  0.47000000000E+01 0.  1.
         11    1    6    6    0    0 -0.22001004110E+02  0.23080541875E+02  0.33462930891E+02  0.46222541458E+02  0.00000000000E+00 0. -1.
        -12    1    6    6    0    0  0.41274800246E+02 -0.48548791809E+00  0.15996282008E+03  0.16520275011E+03  0.00000000000E+00 0.  1.
</event>
<event>
12    1  0.1345781E-002  0.2362907E+03  0.7818608E-02  0.1122289E+00
         -4   -1    0    0    0  501 -0.00000000000E+00  0.00000000000E+00  0.85173162011E+02  0.85173162011E+02  0.00000000000E+00 0. -1.
          4   -1    0    0  502    0  0.00000000000E+00 -0.00000000000E+00 -0.71799197307E+03  0.71799197307E+03  0.00000000000E+00 0.  1.
          6    2    1    2  502    0 -0.83919438446E+02 -0.13811306314E+03 -0.43465452231E+03  0.49465041502E+03  0.17215338786E+03 0.  0.
         24    2    3    3    0    0  0.12275213875E+02 -0.10134236506E+03 -0.28129919503E+03  0.30986556234E+03  0.80414387833E+02 0.  0.
         -6    2    1    2    0  501  0.83919438446E+02  0.13811306314E+03 -0.19816428875E+03  0.30851472006E+03  0.17261099849E+03 0.  0.
        -24    2    5    5    0    0  0.63272525772E+02  0.14937924448E+03 -0.21349502399E+03  0.28004819081E+03  0.80804038926E+02 0.  0.
          5    1    3    3  502    0 -0.96194652321E+02 -0.36770698083E+02 -0.15335532728E+03  0.18478485268E+03  0.47000000000E+01 0. -1.
        -11    1    4    4    0    0  0.25617198789E+02 -0.88874179786E+02 -0.27564523346E+03  0.29074929998E+03  0.00000000000E+00 0.  1.
         12    1    4    4    0    0 -0.13341984914E+02 -0.12468185272E+02 -0.56539615655E+01  0.19116262365E+02  0.00000000000E+00 0. -1.
         -5    1    5    5    0  501  0.20646912673E+02 -0.11266181341E+02  0.15330735239E+02  0.28466529257E+02  0.47000000000E+01 0.  1.
         13    1    6    6    0    0  0.13515101226E+01  0.48762933689E+01 -0.60392531021E+02  0.60604146885E+02  0.00000000000E+00 0. -1.
        -14    1    6    6    0    0  0.61921015650E+02  0.14450295111E+03 -0.15310249297E+03  0.21944404392E+03  0.00000000000E+00 0.  1.
</event>
<event>
12    1  0.1345781E-002  0.2088669E+03  0.7818608E-02  0.1142466E+00
          2   -1    0    0  502    0  0.00000000000E+00  0.00000000000E+00  0.23718268118E+03  0.23718268118E+03  0.00000000000E+00 0.  1.
         -2   -1    0    0    0  501 -0.00000000000E+00 -0.00000000000E+00 -0.65227576174E+03  0.65227576174E+03  0.00000000000E+00 0. -1.
          6    2    1    2  502    0  0.67231170009E+02 -0.96425836761E+02  0.16954817321E+03  0.26832370449E+03  0.17156064566E+03 0.  0.
         24    2    3    3    0    0  0.10084449825E+03 -0.27266555874E+02  0.10400571812E+03  0.16717645842E+03  0.78852399784E+02 0.  0.
         -6    2    1    2    0  501 -0.67231170009E+02  0.96425836761E+02 -0.58464125377E+03  0.62113473842E+03  0.17373829585E+03 0.  0.
        -24    2    5    5    0    0 -0.35331105094E+02  0.17681810132E+02 -0.47459888399E+03  0.48203172257E+03  0.74495284972E+02 0.  0.
          5    1    3    3  502    0 -0.33613328244E+02 -0.69159280886E+02  0.65542455093E+02  0.10114724607E+03  0.47000000000E+01 0. -1.
        -11    1    4    4    0    0  0.69899678499E+02 -0.31463561988E+02  0.11126649555E+03  0.13511533525E+03  0.00000000000E+00 0.  1.
         12    1    4    4    0    0  0.30944819755E+02  0.41970061135E+01 -0.72607774352E+01  0.32061123170E+02  0.00000000000E+00 0. -1.
         -5    1    5    5    0  501 -0.31900064915E+02  0.78744026629E+02 -0.11004236978E+03  0.13910301585E+03  0.47000000000E+01 0.  1.
         13    1    6    6    0    0  0.21057487106E+02 -0.39363446277E+01 -0.18267164746E+03  0.18392347147E+03  0.00000000000E+00 0. -1.
        -14    1    6    6    0    0 -0.56388592200E+02  0.21618154760E+02 -0.29192723654E+03  0.29810825111E+03  0.00000000000E+00 0.  1.
</event>
<event>
12    1  0.1345781E-002  0.3545502E+03  0.7818608E-02  0.1060763E+00
          2   -1    0    0  502    0  0.00000000000E+00  0.00000000000E+00  0.15720100843E+04  0.15720100843E+04  0.00000000000E+00 0.  1.
         -2   -1    0    0    0  501 -0.00000000000E+00 -0.00000000000E+00 -0.87261438735E+02  0.87261438735E+02  0.00000000000E+00 0. -1.
          6    2    1    2  502    0 -0.14191900204E+03  0.27584995447E+03  0.50368479862E+03  0.61632043500E+03  0.17296907733E+03 0.  0.
         24    2    3    3    0    0 -0.16275387051E+03  0.19099260672E+03  0.32394822723E+03  0.41641499159E+03  0.74107982715E+02 0.  0.
         -6    2    1    2    0  501  0.14191900204E+03 -0.27584995447E+03  0.98106384694E+03  0.10429510880E+04  0.17037165178E+03 0.  0.
        -24    2    5    5    0    0  0.13913428974E+03 -0.21410039242E+03  0.59908609884E+03  0.65597582644E+03  0.78757872258E+02 0.  0.
          5    1    3    3  502    0  0.20834868468E+02  0.84857347753E+02  0.17973657139E+03  0.19990544341E+03  0.47000000000E+01 0. -1.
        -11    1    4    4    0    0 -0.88469503858E+02  0.11569444967E+03  0.24266809236E+03  0.28301918989E+03  0.00000000000E+00 0.  1.
         12    1    4    4    0    0 -0.74284366655E+02  0.75298157054E+02  0.81280134870E+02  0.13339580169E+03  0.00000000000E+00 0. -1.
         -5    1    5    5    0  501  0.27847123078E+01 -0.61749562052E+02  0.38197774810E+03  0.38697526159E+03  0.47000000000E+01 0.  1.
         11    1    6    6    0    0 -0.16760656384E+01  0.55188813812E+01  0.78573334916E+01  0.97470476208E+01  0.00000000000E+00 0. -1.
        -12    1    6    6    0    0  0.14081035537E+03 -0.21961927380E+03  0.59122876535E+03  0.64622877882E+03  0.00000000000E+00 0.  1.
</event>
<event>
12    1  0.1345781E-002  0.6584104E+03  0.7818608E-02  0.9791124E-01
          2   -1    0    0  502    0  0.00000000000E+00  0.00000000000E+00  0.88256868275E+03  0.88256868275E+03  0.00000000000E+00 0. -1.
         -2   -1    0    0    0  501 -0.00000000000E+00 -0.00000000000E+00 -0.68588638953E+03  0.68588638953E+03  0.00000000000E+00 0.  1.
          6    2    1    2  502    0 -0.44680318756E+03 -0.45235005685E+03  0.51616047018E+03  0.83652837931E+03  0.17060022295E+03 0.  0.
         24    2    3    3    0    0 -0.12554859338E+03 -0.16117133541E+03  0.12553379283E+03  0.25291818992E+03  0.80437733641E+02 0.  0.
         -6    2    1    2    0  501  0.44680318756E+03  0.45235005685E+03 -0.31947817696E+03  0.73192669297E+03  0.17145470533E+03 0.  0.
        -24    2    5    5    0    0  0.45637703007E+03  0.44559338344E+03 -0.32378209148E+03  0.71858784834E+03  0.68557975961E+02 0.  0.
          5    1    3    3  502    0 -0.32125459418E+03 -0.29117872144E+03  0.39062667735E+03  0.58361018939E+03  0.47000000000E+01 0. -1.
        -11    1    4    4    0    0 -0.28820481463E+01 -0.43216781824E+02  0.51614729508E+02  0.67380091532E+02  0.00000000000E+00 0.  1.
         12    1    4    4    0    0 -0.12266654523E+03 -0.11795455359E+03  0.73919063318E+02  0.18553809839E+03  0.00000000000E+00 0. -1.
         -5    1    5    5    0  501 -0.95738425099E+01  0.67566734061E+01  0.43039145201E+01  0.13338844632E+02  0.47000000000E+01 0.  1.
         13    1    6    6    0    0  0.17533984051E+03  0.12604058522E+03 -0.11129951925E+03  0.24293594172E+03  0.00000000000E+00 0. -1.
        -14    1    6    6    0    0  0.28103718956E+03  0.31955279822E+03 -0.21248257223E+03  0.47565190661E+03  0.00000000000E+00 0.  1.
</event>
<event>
12    1  0.1345781E-002  0.2023761E+03  0.7818608E-02  0.1147750E+00
          2   -1    0    0  502    0  0.00000000000E+00  0.00000000000E+00  0.20487069405E+04  0.20487069405E+04  0.00000000000E+00 0. -1.
         -2   -1    0    0    0  501 -0.00000000000E+00 -0.00000000000E+00 -0.37606098368E+02  0.37606098368E+02  0.00000000000E+00 0.  1.
          6    2    1    2  502    0  0.10050410911E+03  0.35643667051E+02  0.17197106715E+04  0.17315874030E+04  0.17210053310E+03 0.  0.
         24    2    3    3    0    0  0.64865179310E+02  0.28839825173E+02  0.47086607816E+03  0.48220702298E+03  0.75957372561E+02 0.  0.
         -6    2    1    2    0  501 -0.10050410911E+03 -0.35643667051E+02  0.29139017056E+03  0.35472563583E+03  0.17190258366E+03 0.  0.
        -24    2    5    5    0    0 -0.28485790008E+02 -0.65286705946E+02  0.21526634820E+03  0.24571979025E+03  0.94682735730E+02 0.  0.
          5    1    3    3  502    0  0.35638929798E+02  0.68038418780E+01  0.12488445934E+04  0.12493803800E+04  0.47000000000E+01 0. -1.
        -11    1    4    4    0    0 -0.12182798448E+02  0.22515935587E+02  0.89774350052E+02  0.93353210232E+02  0.00000000000E+00 0.  1.
         12    1    4    4    0    0  0.77047977758E+02  0.63238895857E+01  0.38109172811E+03  0.38885381275E+03  0.00000000000E+00 0. -1.
         -5    1    5    5    0  501 -0.72018319100E+02  0.29643038896E+02  0.76123822360E+02  0.10900584558E+03  0.47000000000E+01 0.  1.
         13    1    6    6    0    0 -0.18699169789E+02 -0.20075730941E+02  0.19198130297E+03  0.19393172668E+03  0.00000000000E+00 0. -1.
        -14    1    6    6    0    0 -0.97866202184E+01 -0.45210975005E+02  0.23285045228E+02  0.51788063562E+02  0.00000000000E+00 0.  1.
</event>
<event>
12    1  0.1345781E-002  0.2086663E+03  0.7818608E-02  0.1142626E+00
          1   -1    0    0  502    0  0.00000000000E+00  0.00000000000E+00  0.11660929728E+03  0.11660929728E+03  0.00000000000E+00 0. -1.
         -1   -1    0    0    0  501 -0.00000000000E+00 -0.00000000000E+00 -0.45235828162E+03  0.45235828162E+03  0.00000000000E+00 0.  1.
          6    2    1    2  502    0 -0.48350080360E+00 -0.11771904474E+03 -0.49281640081E+02  0.21479136965E+03  0.17276760449E+03 0.  0.
         24    2    3    3    0    0 -0.31709137083E+01 -0.37337023826E+02 -0.88897125354E+02  0.12501404430E+03  0.79509146223E+02 0.  0.
         -6    2    1    2    0  501  0.48350080360E+00  0.11771904474E+03 -0.28646734426E+03  0.35417620925E+03  0.17181164281E+03 0.  0.
        -24    2    5    5    0    0 -0.62226145182E+02  0.62055034675E+02 -0.20811487241E+03  0.23931898675E+03  0.78986434444E+02 0.  0.
          5    1    3    3  502    0  0.26874129047E+01 -0.80382020915E+02  0.39615485273E+02  0.89777325355E+02  0.47000000000E+01 0. -1.
        -13    1    4    4    0    0  0.18614144940E+02 -0.39669184251E+02 -0.92923990843E+02  0.10273752306E+03  0.00000000000E+00 0.  1.
         14    1    4    4    0    0 -0.21785058649E+02  0.23321604257E+01  0.40268654887E+01  0.22276521233E+02  0.00000000000E+00 0. -1.
         -5    1    5    5    0  501  0.62709645986E+02  0.55664010065E+02 -0.78352471849E+02  0.11485722250E+03  0.47000000000E+01 0.  1.
         13    1    6    6    0    0 -0.69138188528E+02  0.75888723833E+02 -0.17885762690E+03  0.20622618219E+03  0.00000000000E+00 0. -1.
        -14    1    6    6    0    0  0.69120433452E+01 -0.13833689158E+02 -0.29257245511E+02  0.33092804562E+02  0.00000000000E+00 0.  1.
</event>
<event>
12    1  0.1345781E-002  0.2276515E+03  0.7818608E-02  0.1128304E+00
         -1   -1    0    0    0  501 -0.00000000000E+00  0.00000000000E+00  0.72591215514E+03  0.72591215514E+03  0.00000000000E+00 0.  1.
          1   -1    0    0  502    0  0.00000000000E+00 -0.00000000000E+00 -0.73569469052E+02  0.73569469052E+02  0.00000000000E+00 0. -1.
          6    2    1    2  502    0 -0.73784329444E+02 -0.12985371478E+03  0.25732463852E+03  0.34352594376E+03  0.17172067416E+03 0.  0.
         24    2    3    3    0    0 -0.88170792821E+02 -0.13205382283E+03  0.27050075115E+03  0.32333904831E+03  0.78518679049E+02 0.  0.
         -6    2    1    2    0  501  0.73784329444E+02  0.12985371478E+03  0.39501804756E+03  0.45595568043E+03  0.17190174548E+03 0.  0.
        -24    2    5    5    0    0  0.93986665663E+02  0.33976809417E+02  0.25384916849E+03  0.28405088762E+03  0.79104927254E+02 0.  0.
          5    1    3    3  502    0  0.14386463377E+02  0.22001080532E+01 -0.13176112627E+02  0.20186895450E+02  0.47000000000E+01 0. -1.
        -13    1    4    4    0    0 -0.12338749000E+02 -0.46548727901E+02  0.14875255439E+03  0.15635328981E+03  0.00000000000E+00 0.  1.
         14    1    4    4    0    0 -0.75832043821E+02 -0.85505094931E+02  0.12174819676E+03  0.16698575851E+03  0.00000000000E+00 0. -1.
         -5    1    5    5    0  501 -0.20202336219E+02  0.95876905361E+02  0.14116887907E+03  0.17190479280E+03  0.47000000000E+01 0.  1.
         11    1    6    6    0    0  0.57858547575E+02 -0.10189801208E+02  0.69141641195E+02  0.90730425565E+02  0.00000000000E+00 0. -1.
        -12    1    6    6    0    0  0.36128118088E+02  0.44166610625E+02  0.18470752730E+03  0.19332046206E+03  0.00000000000E+00 0.  1.
</event>
<event>
12    1  0.1345781E-002  0.2203637E+03  0.7818608E-02  0.1133612E+00
         -2   -1    0    0    0  501 -0.00000000000E+00  0.00000000000E+00  0.88374678598E+02  0.88374678598E+02  0.00000000000E+00 0.  1.
          2   -1    0    0  502    0  0.00000000000E+00 -0.00000000000E+00 -0.64443154807E+03  0.64443154807E+03  0.00000000000E+00 0. -1.
          6    2    1    2  502    0 -0.66134772125E+02  0.12136453544E+03 -0.13666217608E+03  0.25872742565E+03  0.17076349688E+03 0.  0.
         24    2    3    3    0    0 -0.92134072272E+02  0.39158576207E+02 -0.57794801416E+02  0.14178326749E+03  0.82098565798E+02 0.  0.
         -6    2    1    2    0  501  0.66134772125E+02 -0.12136453544E+03 -0.41939469340E+03  0.47407880102E+03  0.17249823818E+03 0.  0.
        -24    2    5    5    0    0  0.10669818625E+03 -0.55790842095E+02 -0.26622506658E+03  0.30253194327E+03  0.78438954683E+02 0.  0.
          5    1    3    3  502    0  0.25999300147E+02  0.82205959237E+02 -0.78867374661E+02  0.11694415816E+03  0.47000000000E+01 0. -1.
        -11    1    4    4    0    0 -0.40436291799E+02  0.47918128583E+02  0.13863722878E+01  0.62714932588E+02  0.00000000000E+00 0.  1.
         12    1    4    4    0    0 -0.51697780472E+02 -0.87595523759E+01 -0.59181173704E+02  0.79068334904E+02  0.00000000000E+00 0. -1.
         -5    1    5    5    0  501 -0.40563414121E+02 -0.65573693348E+02 -0.15316962682E+03  0.17154685775E+03  0.47000000000E+01 0.  1.
         13    1    6    6    0    0  0.88784570442E+01  0.17907747780E+02 -0.25109830984E+02  0.32093894155E+02  0.00000000000E+00 0. -1.
        -14    1    6    6    0    0  0.97819729202E+02 -0.73698589875E+02 -0.24111523560E+03  0.27043804911E+03  0.00000000000E+00 0.  1.
</event>
<event>
12    1  0.1345781E-002  0.1783655E+03  0.7818608E-02  0.1169394E+00
          2   -1    0    0  502    0  0.00000000000E+00  0.00000000000E+00  0.74135683722E+03  0.74135683722E+03  0.00000000000E+00 0.  1.
         -2   -1    0    0    0  501 -0.00000000000E+00 -0.00000000000E+00 -0.11686601162E+03  0.11686601162E+03  0.00000000000E+00 0. -1.
          6    2    1    2  502    0  0.16889615729E+02  0.44323495808E+02  0.65336543824E+03  0.67717986439E+03  0.17157022311E+03 0.  0.
         24    2    3    3    0    0  0.40756117655E+02  0.62510667813E+01  0.60234900221E+03  0.60903379692E+03  0.79985676060E+02 0.  0.
         -6    2    1    2    0  501 -0.16889615729E+02 -0.44323495808E+02 -0.28874612631E+02  0.18104298444E+03  0.17231653305E+03 0.  0.
        -24    2    5    5    0    0  0.18875838387E+01  0.32316033046E+02 -0.48130732535E+02  0.99685202024E+02  0.81072085970E+02 0.  0.
          5    1    3    3  502    0 -0.23866501925E+02  0.38072429027E+02  0.51016436029E+02  0.68146067467E+02  0.47000000000E+01 0. -1.
        -13    1    4    4    0    0 -0.20535610308E+02  0.18164609708E+02  0.16890590621E+03  0.17111653774E+03  0.00000000000E+00 0.  1.
         14    1    4    4    0    0  0.61291727963E+02 -0.11913542926E+02  0.43344309600E+03  0.43791725918E+03  0.00000000000E+00 0. -1.
         -5    1    5    5    0  501 -0.18777199568E+02 -0.76639528854E+02  0.19256119904E+02  0.81357782420E+02  0.47000000000E+01 0.  1.
         11    1    6    6    0    0 -0.26539157621E+02 -0.12753455980E+02 -0.33140524650E+02  0.44331387309E+02  0.00000000000E+00 0. -1.
        -12    1    6    6    0    0  0.28426741459E+02  0.45069489026E+02 -0.14990207885E+02  0.55353814715E+02  0.00000000000E+00 0.  1.
</event>
<event>
12    1  0.1345781E-002  0.1952896E+03  0.7818608E-02  0.1153775E+00
         -2   -1    0    0    0  501 -0.00000000000E+00  0.00000000000E+00  0.13904484023E+02  0.13904484023E+02  0.00000000000E+00 0. -1.
          2   -1    0    0  502    0  0.00000000000E+00 -0.00000000000E+00 -0.38181844120E+04  0.38181844120E+04  0.00000000000E+00 0.  1.
          6    2    1    2  502    0 -0.27485106867E+02  0.90534560585E+02 -0.29171558559E+04  0.29236681531E+04  0.17054396486E+03 0.  0.
         24    2    3    3    0    0 -0.49512442613E+02  0.19403561060E+02 -0.23657540592E+04  0.23672412899E+04  0.64892804212E+02 0.  0.
         -6    2    1    2    0  501  0.27485106867E+02 -0.90534560585E+02 -0.88712407209E+03  0.90842074296E+03  0.17113500284E+03 0.  0.
        -24    2    5    5    0    0  0.19790850721E+02 -0.37351791425E+02 -0.80585791624E+03  0.81088158877E+03  0.79593565974E+02 0.  0.
          5    1    3    3  502    0  0.22027335747E+02  0.71130999525E+02 -0.55140179673E+03  0.55642686317E+03  0.47000000000E+01 0. -1.
        -13    1    4    4    0    0 -0.25980860006E+02  0.26797119059E+02 -0.52628052483E+03  0.52760238958E+03  0.00000000000E+00 0.  1.
         14    1    4    4    0    0 -0.23531582608E+02 -0.73935579985E+01 -0.18394735343E+04  0.18396389003E+04  0.00000000000E+00 0. -1.
         -5    1    5    5    0  501  0.76942561462E+01 -0.53182769161E+02 -0.81266155852E+02  0.97539154191E+02  0.47000000000E+01 0.  1.
         11    1    6    6    0    0 -0.15607192835E+02 -0.63094438318E+01 -0.37766233121E+02  0.41348300011E+02  0.00000000000E+00 0. -1.
        -12    1    6    6    0    0  0.35398043555E+02 -0.31042347593E+02 -0.76809168312E+03  0.76953328876E+03  0.00000000000E+00 0.  1.
</event>
<event>
12    1  0.1345781E-002  0.2985490E+03  0.7818608E-02  0.1085968E+00
          1   -1    0    0  502    0  0.00000000000E+00  0.00000000000E+00  0.67813959681E+03  0.67813959681E+03  0.00000000000E+00 0. -1.
         -1   -1    0    0    0  501 -0.00000000000E+00 -0.00000000000E+00 -0.14466408915E+03  0.14466408915E+03  0.00000000000E+00 0.  1.
          6    2    1    2  502    0  0.15205766497E+03  0.19077732093E+03  0.14196527500E+03  0.33017605788E+03  0.17130256927E+03 0.  0.
         24    2    3    3    0    0  0.69514743662E+02  0.19133797743E+02  0.54670283254E+02  0.12061141752E+03  0.79748807904E+02 0.  0.
         -6    2    1    2    0  501 -0.15205766497E+03 -0.19077732093E+03  0.39151023266E+03  0.49262762808E+03  0.17287046598E+03 0.  0.
        -24    2    5    5    0    0 -0.28059903560E+02 -0.13085598044E+03  0.14906825388E+03  0.21376168366E+03  0.74579268433E+02 0.  0.
          5    1    3    3  502    0  0.82542921303E+02  0.17164352318E+03  0.87294991743E+02  0.20956464037E+03  0.47000000000E+01 0. -1.
        -11    1    4    4    0    0  0.40988989646E+02  0.16925734371E+02 -0.13767257772E+02  0.46433986936E+02  0.00000000000E+00 0.  1.
         12    1    4    4    0    0  0.28525754016E+02  0.22080633719E+01  0.68437541026E+02  0.74177430582E+02  0.00000000000E+00 0. -1.
         -5    1    5    5    0  501 -0.12399776141E+03 -0.59921340483E+02  0.24244197878E+03  0.27886594441E+03  0.47000000000E+01 0.  1.
         13    1    6    6    0    0 -0.41751270471E+02 -0.13281670335E+03  0.13273589373E+03  0.19235972229E+03  0.00000000000E+00 0. -1.
        -14    1    6    6    0    0  0.13691366912E+02  0.19607229108E+01  0.16332360159E+02  0.21401961373E+02  0.00000000000E+00 0.  1.
</event>
<event>
12    1  0.1345781E-002  0.1841335E+03  0.7818608E-02  0.1163861E+00
         -2   -1    0    0    0  501 -0.00000000000E+00  0.00000000000E+00  0.76923783657E+02  0.76923783657E+02  0.00000000000E+00 0. -1.
          2   -1    0    0  502    0  0.00000000000E+00 -0.00000000000E+00 -0.45498049103E+03  0.45498049103E+03  0.00000000000E+00 0.  1.
          6    2    1    2  502    0  0.59053134242E+02 -0.26384138226E+02 -0.23557903541E+03  0.29871996582E+03  0.17190910575E+03 0.  0.
         24    2    3    3    0    0  0.97727673038E+02  0.11283908626E+02 -0.17829285034E+03  0.21986314173E+03  0.82906187575E+02 0.  0.
         -6    2    1    2    0  501 -0.59053134242E+02  0.26384138226E+02 -0.14247767196E+03  0.23318430887E+03  0.17289198791E+03 0.  0.
        -24    2    5    5    0    0  0.28405574863E+01  0.69543715028E+02 -0.10444680397E+03  0.14855561950E+03  0.79468485309E+02 0.  0.
          5    1    3    3  502    0 -0.38674538796E+02 -0.37668046852E+02 -0.57286185070E+02  0.78856824084E+02  0.47000000000E+01 0. -1.
        -13    1    4    4    0    0  0.44462150931E+02 -0.33149606707E+02 -0.10625660283E+03  0.11985927138E+03  0.00000000000E+00 0.  1.
         14    1    4    4    0    0  0.53265522107E+02  0.44433515333E+02 -0.72036247506E+02  0.10000387035E+03  0.00000000000E+00 0. -1.
         -5    1    5    5    0  501 -0.61893691728E+02 -0.43159576802E+02 -0.38030867991E+02  0.84628689376E+02  0.47000000000E+01 0.  1.
         11    1    6    6    0    0  0.25630560955E+01 -0.10568748239E+02  0.57607201479E+01  0.12306648306E+02  0.00000000000E+00 0. -1.
        -12    1    6    6    0    0  0.27750139080E+00  0.80112463267E+02 -0.11020752412E+03  0.13624897119E+03  0.00000000000E+00 0.  1.
</event>
<event>
12    1  0.1345781E-002  0.1949276E+03  0.7818608E-02  0.1154091E+00
          2   -1    0    0  502    0  0.00000000000E+00  0.00000000000E+00  0.46572064364E+03  0.46572064364E+03  0.00000000000E+00 0. -1.
         -2   -1    0    0    0  501 -0.00000000000E+00 -0.00000000000E+00 -0.96049529194E+02  0.96049529194E+02  0.00000000000E+00 0.  1.
          6    2    1    2  502    0 -0.77573666620E+02 -0.47724451283E+02  0.75171125226E+02  0.20813731606E+03  0.17139179462E+03 0.  0.
         24    2    3    3    0    0 -0.11274512764E+03 -0.48847033067E+02  0.30441151065E+02  0.15103081512E+03  0.82378073492E+02 0.  0.
         -6    2    1    2    0  501  0.77573666620E+02  0.47724451283E+02  0.29449998922E+03  0.35363285678E+03  0.17329355654E+03 0.  0.
        -24    2    5    5    0    0  0.81774607027E+02  0.92607995141E+02  0.19830998830E+03  0.24729948155E+03  0.81036133908E+02 0.  0.
          5    1    3    3  502    0  0.35171461022E+02  0.11225817838E+01  0.44729974162E+02  0.57106500932E+02  0.47000000000E+01 0. -1.
        -13    1    4    4    0    0 -0.41192590440E+02 -0.55490120972E+02 -0.79397651277E+01  0.69563085778E+02  0.00000000000E+00 0.  1.
         14    1    4    4    0    0 -0.71552537202E+02  0.66430879052E+01  0.38380916192E+02  0.81467729346E+02  0.00000000000E+00 0. -1.
         -5    1    5    5    0  501 -0.42009404062E+01 -0.44883543858E+02  0.96190000926E+02  0.10633337523E+03  0.47000000000E+01 0.  1.
         11    1    6    6    0    0  0.48746501654E+02  0.82733607735E+02  0.82929661721E+02  0.12687947062E+03  0.00000000000E+00 0. -1.
        -12    1    6    6    0    0  0.33028105373E+02  0.98743874061E+01  0.11538032658E+03  0.12042001093E+03  0.00000000000E+00 0.  1.
</event>
<event>
12    1  0.1345781E-002  0.1985043E+03  0.7818608E-02  0.1151007E+00
         -2   -1    0    0    0  501 -0.00000000000E+00  0.00000000000E+00  0.19776033058E+03  0.19776033058E+03  0.00000000000E+00 0. -1.
          2   -1    0    0  502    0  0.00000000000E+00 -0.00000000000E+00 -0.19930543706E+03  0.19930543706E+03  0.00000000000E+00 0.  1.
          6    2    1    2  502    0  0.93553455670E+02 -0.21743640729E+02  0.22967512677E+01  0.19965824704E+03  0.17502315723E+03 0.  0.
         24    2    3    3    0    0 -0.12553269065E+02 -0.90208010262E+01 -0.33157939635E+02  0.86965599585E+02  0.78896179470E+02 0.  0.
         -6    2    1    2    0  501 -0.93553455670E+02  0.21743640729E+02 -0.38418577419E+01  0.19740752060E+03  0.17242370585E+03 0.  0.
        -24    2    5    5    0    0 -0.17400683897E+02  0.61542605743E+02 -0.33975915987E+02  0.10622992614E+03  0.77718454813E+02 0.  0.
          5    1    3    3  502    0  0.10610672473E+03 -0.12722839702E+02  0.35454690902E+02  0.11269264746E+03  0.47000000000E+01 0. -1.
        -11    1    4    4    0    0  0.11704150477E+02  0.15621741857E+02 -0.46085910232E+02  0.50049346439E+02  0.00000000000E+00 0.  1.
         12    1    4    4    0    0 -0.24257419542E+02 -0.24642542883E+02  0.12927970597E+02  0.36916253146E+02  0.00000000000E+00 0. -1.
         -5    1    5    5    0  501 -0.76152771773E+02 -0.39798965014E+02  0.30134058246E+02  0.91177594458E+02  0.47000000000E+01 0.  1.
         13    1    6    6    0    0 -0.39534560888E+02  0.65693406525E+02 -0.33589257929E+02  0.83706889882E+02  0.00000000000E+00 0. -1.
        -14    1    6    6    0    0  0.22133876991E+02 -0.41508007815E+01 -0.38665805820E+00  0.22523036257E+02  0.00000000000E+00 0.  1.
</event>
<event>
12    1  0.1345781E-002  0.2066273E+03  0.7818608E-02  0.1144265E+00
         -2   -1    0    0    0  501 -0.00000000000E+00  0.00000000000E+00  0.99527409271E+02  0.99527409271E+02  0.00000000000E+00 0.  1.
          2   -1    0    0  502    0  0.00000000000E+00 -0.00000000000E+00 -0.47890658711E+03  0.47890658711E+03  0.00000000000E+00 0. -1.
          6    2    1    2  502    0  0.11306469683E+03  0.20487793946E+02 -0.28297175302E+03  0.35030801587E+03  0.17157889616E+03 0.  0.
         24    2    3    3    0    0 -0.26808803207E+01  0.64310663784E+01 -0.66037833002E+02  0.10398090434E+03  0.80015544401E+02 0.  0.
         -6    2    1    2    0  501 -0.11306469683E+03 -0.20487793946E+02 -0.96407424813E+02  0.22812598050E+03  0.17188279743E+03 0.  0.
        -24    2    5    5    0    0 -0.94505928583E+02 -0.73165696774E+02 -0.34936357927E+02  0.14493841299E+03  0.74175499541E+02 0.  0.
          5    1    3    3  502    0  0.11574557715E+03  0.14056727567E+02 -0.21693392002E+03  0.24632711153E+03  0.47000000000E+01 0. -1.
        -13    1    4    4    0    0  0.22451227849E+02  0.19039419466E+02  0.28507504081E+01  0.29575055425E+02  0.00000000000E+00 0.  1.
         14    1    4    4    0    0 -0.25132108169E+02 -0.12608353087E+02 -0.68888583410E+02  0.74405848915E+02  0.00000000000E+00 0. -1.
         -5    1    5    5    0  501 -0.18558768250E+02  0.52677902828E+02 -0.61471066886E+02  0.83187567517E+02  0.47000000000E+01 0.  1.
         11    1    6    6    0    0  0.12693575824E+01 -0.13928213479E+02 -0.28966225914E+02  0.32165954720E+02  0.00000000000E+00 0. -1.
        -12    1    6    6    0    0 -0.95775286165E+02 -0.59237483295E+02 -0.59701320134E+01  0.11277245827E+03  0.00000000000E+00 0.  1.
</event>
<event>
12    1  0.1345781E-002  0.1901384E+03  0.7818608E-02  0.1158337E+00
         -2   -1    0    0    0  501 -0.00000000000E+00  0.00000000000E+00  0.19481064882E+02  0.19481064882E+02  0.00000000000E+00 0.  1.
          2   -1    0    0  502    0  0.00000000000E+00 -0.00000000000E+00 -0.19261302965E+04  0.19261302965E+04  0.00000000000E+00 0. -1.
          6    2    1    2  502    0 -0.23537830035E+02 -0.75972869627E+02 -0.11397180133E+04  0.11554859058E+04  0.17281383681E+03 0.  0.
         24    2    3    3    0    0  0.11280783343E+01  0.17220237651E+02 -0.72370260159E+03  0.72842118577E+03  0.80957761685E+02 0.  0.
         -6    2    1    2    0  501  0.23537830035E+02  0.75972869627E+02 -0.76693121823E+03  0.79012545554E+03  0.17259442528E+03 0.  0.
        -24    2    5    5    0    0 -0.18084637715E+02  0.78859732414E+02 -0.71167993058E+03  0.72073122966E+03  0.80120348868E+02 0.  0.
          5    1    3    3  502    0 -0.24665908369E+02 -0.93193107278E+02 -0.41601541175E+03  0.42706472003E+03  0.47000000000E+01 0. -1.
        -13    1    4    4    0    0  0.33383085482E+02  0.61809560459E+01 -0.15392973798E+03  0.15762930834E+03  0.00000000000E+00 0.  1.
         14    1    4    4    0    0 -0.32255007148E+02  0.11039281605E+02 -0.56977286362E+03  0.57079187743E+03  0.00000000000E+00 0. -1.
         -5    1    5    5    0  501  0.41622467750E+02 -0.28868627868E+01 -0.55251287650E+02  0.69394225879E+02  0.47000000000E+01 0.  1.
         13    1    6    6    0    0 -0.22985557186E+02  0.91002914496E+02 -0.50579052944E+03  0.51442582163E+03  0.00000000000E+00 0. -1.
        -14    1    6    6    0    0  0.49009194705E+01 -0.12143182082E+02 -0.20588940114E+03  0.20630540804E+03  0.00000000000E+00 0.  1.
</event>
<event>
12    1  0.1345781E-002  0.1763592E+03  0.7818608E-02  0.1171374E+00
          2   -1    0    0  502    0  0.00000000000E+00  0.00000000000E+00  0.11501795038E+04  0.11501795038E+04  0.00000000000E+00 0.  1.
         -2   -1    0    0    0  501 -0.00000000000E+00 -0.00000000000E+00 -0.33519579962E+02  0.33519579962E+02  0.00000000000E+00 0. -1.
          6    2    1    2  502    0 -0.10221430075E+02  0.32957682635E+02  0.30023755906E+03  0.34861707339E+03  0.17378315657E+03 0.  0.
         24    2    3    3    0    0 -0.18613919208E+02  0.35436653857E+02  0.31663075376E+03  0.32944923562E+03  0.81728392842E+02 0.  0.
         -6    2    1    2    0  501  0.10221430075E+02 -0.32957682635E+02  0.81642236477E+03  0.83508201037E+03  0.17212146837E+03 0.  0.
        -24    2    5    5    0    0 -0.52941213750E+02 -0.25927260355E+02  0.46791509205E+03  0.48079631274E+03  0.93517731085E+02 0.  0.
          5    1    3    3  502    0  0.83924891327E+01 -0.24789712215E+01 -0.16393194700E+02  0.19167837766E+02  0.47000000000E+01 0. -1.
        -11    1    4    4    0    0 -0.27666227001E+02 -0.20130058893E+02  0.10353628632E+03  0.10904311979E+03  0.00000000000E+00 0.  1.
         12    1    4    4    0    0  0.90523077939E+01  0.55566712749E+02  0.21309446744E+03  0.22040611583E+03  0.00000000000E+00 0. -1.
         -5    1    5    5    0  501  0.63162643824E+02 -0.70304222798E+01  0.34850727272E+03  0.35428569763E+03  0.47000000000E+01 0.  1.
         13    1    6    6    0    0 -0.18258977958E+02  0.35502858709E+02  0.17794248688E+03  0.18236603820E+03  0.00000000000E+00 0. -1.
        -14    1    6    6    0    0 -0.34682235791E+02 -0.61430119065E+02  0.28997260518E+03  0.29843027454E+03  0.00000000000E+00 0.  1.
</event>
<event>
12    1  0.1345781E-002  0.2500629E+03  0.7818608E-02  0.1113265E+00
         -1   -1    0    0    0  501 -0.00000000000E+00  0.00000000000E+00  0.10586909727E+03  0.10586909727E+03  0.00000000000E+00 0.  1.
          1   -1    0    0  502    0  0.00000000000E+00 -0.00000000000E+00 -0.60898511898E+03  0.60898511898E+03  0.00000000000E+00 0. -1.
          6    2    1    2  502    0 -0.18152611522E+03 -0.69836924354E+01 -0.18880650898E+03  0.31273182938E+03  0.17074190114E+03 0.  0.
         24    2    3    3    0    0 -0.61294659025E+02 -0.19814586173E+02 -0.15691900868E+03  0.18759535361E+03  0.80117341190E+02 0.  0.
         -6    2    1    2    0  501  0.18152611522E+03  0.69836924354E+01 -0.31430951272E+03  0.40212238687E+03  0.17294924623E+03 0.  0.
        -24    2    5    5    0    0  0.19041238725E+03 -0.34888527198E+02 -0.24053151029E+03  0.31669679206E+03  0.70479529681E+02 0.  0.
          5    1    3    3  502    0 -0.12023145620E+03  0.12830893738E+02 -0.31887500299E+02  0.12513647577E+03  0.47000000000E+01 0. -1.
        -11    1    4    4    0    0 -0.44160249435E+02 -0.19449629918E+02 -0.24584061031E+02  0.54155256355E+02  0.00000000000E+00 0.  1.
         12    1    4    4    0    0 -0.17134409590E+02 -0.36495625552E+00 -0.13233494765E+03  0.13344009725E+03  0.00000000000E+00 0. -1.
         -5    1    5    5    0  501 -0.88862720335E+01  0.41872219634E+02 -0.73778002430E+02  0.85425594819E+02  0.47000000000E+01 0.  1.
         11    1    6    6    0    0  0.79744210657E+02  0.33285986163E+01 -0.14529298835E+03  0.16577174417E+03  0.00000000000E+00 0. -1.
        -12    1    6    6    0    0  0.11066817660E+03 -0.38217125815E+02 -0.95238521947E+02  0.15092504789E+03  0.00000000000E+00 0.  1.
</event>
<event>
12    1  0.1345781E-002  0.1731034E+03  0.7818608E-02  0.1174650E+00
         -1   -1    0    0    0  501 -0.00000000000E+00  0.00000000000E+00  0.32557408740E+02  0.32557408740E+02  0.00000000000E+00 0.  1.
          1   -1    0    0  502    0  0.00000000000E+00 -0.00000000000E+00 -0.11595564676E+04  0.11595564676E+04  0.00000000000E+00 0. -1.
          6    2    1    2  502    0 -0.36001590748E+01  0.13919585596E+02 -0.83465165551E+03  0.85244758158E+03  0.17267535232E+03 0.  0.
         24    2    3    3    0    0 -0.53667129356E+01  0.67714245550E+02 -0.42274474579E+03  0.43701241404E+03  0.87479764982E+02 0.  0.
         -6    2    1    2    0  501  0.36001590748E+01 -0.13919585596E+02 -0.29234740339E+03  0.33966629479E+03  0.17233534617E+03 0.  0.
        -24    2    5    5    0    0 -0.27619150191E+02 -0.70055810761E+02 -0.18840040139E+03  0.21738387467E+03  0.78041038200E+02 0.  0.
          5    1    3    3  502    0  0.17665538608E+01 -0.53794659954E+02 -0.41190690972E+03  0.41543516754E+03  0.47000000000E+01 0. -1.
        -13    1    4    4    0    0 -0.21571403295E+02  0.30484213330E+02 -0.36215631575E+03  0.36407665366E+03  0.00000000000E+00 0.  1.
         14    1    4    4    0    0  0.16204690359E+02  0.37230032220E+02 -0.60588430037E+02  0.72935760386E+02  0.00000000000E+00 0. -1.
         -5    1    5    5    0  501  0.31219309266E+02  0.56136225164E+02 -0.10394700199E+03  0.12228242012E+03  0.47000000000E+01 0.  1.
         11    1    6    6    0    0 -0.51402840377E+02 -0.51292754702E+02 -0.16065515242E+03  0.17630449989E+03  0.00000000000E+00 0. -1.
        -12    1    6    6    0    0  0.23783690185E+02 -0.18763056059E+02 -0.27745248972E+02  0.41079374776E+02  0.00000000000E+00 0.  1.
</event>
<event>
12    1  0.1345781E-002  0.1731654E+03  0.7818608E-02  0.1174586E+00
         -1   -1    0    0    0  501 -0.00000000000E+00  0.00000000000E+00  0.80117132228E+03  0.80117132228E+03  0.00000000000E+00 0. -1.
          1   -1    0    0  502    0  0.00000000000E+00 -0.00000000000E+00 -0.58916962591E+02  0.58916962591E+02  0.00000000000E+00 0.  1.
          6    2    1    2  502    0 -0.11692725925E+01  0.23322785074E+02  0.63092087821E+03  0.65426827599E+03  0.17164062135E+03 0.  0.
         24    2    3    3    0    0 -0.55394933707E+02  0.34665424531E+02  0.25985980047E+03  0.27906500947E+03  0.77973542117E+02 0.  0.
         -6    2    1    2    0  501  0.11692725925E+01 -0.23322785074E+02  0.11133348148E+03  0.20582000889E+03  0.17152671062E+03 0.  0.
        -24    2    5    5    0    0  0.30813827185E+02  0.42217260400E+02  0.38734799430E+02  0.10351186741E+03  0.80514178787E+02 0.  0.
          5    1    3    3  502    0  0.54225661114E+02 -0.11342639457E+02  0.37106107774E+03  0.37520326652E+03  0.47000000000E+01 0. -1.
        -11    1    4    4    0    0  0.79769369220E+01  0.31590167954E+02  0.48816042258E+02  0.58690512144E+02  0.00000000000E+00 0.  1.
         12    1    4    4    0    0 -0.63371870629E+02  0.30752565769E+01  0.21104375821E+03  0.22037449732E+03  0.00000000000E+00 0. -1.
         -5    1    5    5    0  501 -0.29644554592E+02 -0.65540045474E+02  0.72598682051E+02  0.10230814148E+03  0.47000000000E+01 0.  1.
         13    1    6    6    0    0  0.34521276348E+01 -0.23310237757E+02  0.22360922163E+01  0.23670329062E+02  0.00000000000E+00 0. -1.
        -14    1    6    6    0    0  0.27361699550E+02  0.65527498157E+02  0.36498707213E+02  0.79841538345E+02  0.00000000000E+00 0.  1.
</event>
<event>
12    1  0.1345781E-002  0.2599727E+03  0.7818608E-02  0.1107160E+00
          4   -1    0    0  502    0  0.00000000000E+00  0.00000000000E+00  0.29891630902E+03  0.29891630902E+03  0.00000000000E+00 0.  1.
         -4   -1    0    0    0  501 -0.00000000000E+00 -0.00000000000E+00 -0.23145480339E+03  0.23145480339E+03  0.00000000000E+00 0. -1.
          6    2    1    2  502    0 -0.39052972943E+02 -0.19080015505E+03  0.73997413560E+02  0.26987215670E+03  0.17153871250E+03 0.  0.
         24    2    3    3    0    0  0.21535925407E+02 -0.14796615849E+03  0.68118069481E+01  0.16966356625E+03  0.79884572089E+02 0.  0.
         -6    2    1    2    0  501  0.39052972943E+02  0.19080015505E+03 -0.65359079229E+01  0.26049895570E+03  0.17287901540E+03 0.  0.
        -24    2    5    5    0    0  0.23902450439E+02  0.20983235917E+03  0.17199439412E+02  0.22618831830E+03  0.79147890226E+02 0.  0.
          5    1    3    3  502    0 -0.60588898350E+02 -0.42833996566E+02  0.67185606612E+02  0.10020859045E+03  0.47000000000E+01 0. -1.
        -11    1    4    4    0    0  0.26580694213E+02 -0.12700606151E+03  0.34792046687E+02  0.13434120544E+03  0.00000000000E+00 0.  1.
         12    1    4    4    0    0 -0.50447688060E+01 -0.20960096977E+02 -0.27980239739E+02  0.35322360813E+02  0.00000000000E+00 0. -1.
         -5    1    5    5    0  501  0.15150522504E+02 -0.19032204121E+02 -0.23735347335E+02  0.34310637402E+02  0.47000000000E+01 0.  1.
         11    1    6    6    0    0 -0.18455696974E+02  0.13057643701E+03  0.30470525733E+02  0.13534870369E+03  0.00000000000E+00 0. -1.
        -12    1    6    6    0    0  0.42358147413E+02  0.79255922167E+02 -0.13271086322E+02  0.90839614613E+02  0.00000000000E+00 0.  1.
</event>
<event>
12    1  0.1345781E-002  0.1762608E+03  0.7818608E-02  0.1171472E+00
         -2   -1    0    0    0  501 -0.00000000000E+00  0.00000000000E+00  0.18958173201E+02  0.18958173201E+02  0.00000000000E+00 0. -1.
          2   -1    0    0  502    0  0.00000000000E+00 -0.00000000000E+00 -0.18622092340E+04  0.18622092340E+04  0.00000000000E+00 0.  1.
          6    2    1    2  502    0 -0.36317641395E+02  0.16228784254E+02 -0.59129493831E+03  0.61672566242E+03  0.17070001200E+03 0.  0.
         24    2    3    3    0    0 -0.66737995629E+01 -0.33292462257E+02 -0.50642611723E+03  0.51398366513E+03  0.80986839456E+02 0.  0.
         -6    2    1    2    0  501  0.36317641395E+02 -0.16228784254E+02 -0.12519561225E+04  0.12644417448E+04  0.17273230389E+03 0.  0.
        -24    2    5    5    0    0  0.67141728802E+02 -0.24789550827E+02 -0.46475186819E+03  0.47657371074E+03  0.77496252835E+02 0.  0.
          5    1    3    3  502    0 -0.29643841832E+02  0.49521246511E+02 -0.84868821081E+02  0.10274199729E+03  0.47000000000E+01 0. -1.
        -11    1    4    4    0    0  0.17261644289E+02  0.21256739280E+02 -0.19478979970E+03  0.19670505686E+03  0.00000000000E+00 0.  1.
         12    1    4    4    0    0 -0.23935443852E+02 -0.54549201537E+02 -0.31163631753E+03  0.31727860827E+03  0.00000000000E+00 0. -1.
         -5    1    5    5    0  501 -0.30824087406E+02  0.85607665726E+01 -0.78720425434E+03  0.78786803409E+03  0.47000000000E+01 0.  1.
         13    1    6    6    0    0  0.43950661614E+02 -0.52384082353E+02 -0.27073022597E+03  0.27923217579E+03  0.00000000000E+00 0. -1.
        -14    1    6    6    0    0  0.23191067187E+02  0.27594531526E+02 -0.19402164222E+03  0.19734153495E+03  0.00000000000E+00 0.  1.
</event>
<event>
12    1  0.1345781E-002  0.2007867E+03  0.7818608E-02  0.1149077E+00
         -2   -1    0    0    0  501 -0.00000000000E+00  0.00000000000E+00  0.34361400672E+03  0.34361400672E+03  0.00000000000E+00 0. -1.
          2   -1    0    0  502    0  0.00000000000E+00 -0.00000000000E+00 -0.12505354748E+03  0.12505354748E+03  0.00000000000E+00 0.  1.
          6    2    1    2  502    0 -0.10108857719E+03 -0.35299440433E+02  0.16699273441E+03  0.26037156120E+03  0.16864704444E+03 0.  0.
         24    2    3    3    0    0  0.11963853185E+02 -0.29537975330E+02  0.63570886043E+02  0.10696942557E+03  0.79909790919E+02 0.  0.
         -6    2    1    2    0  501  0.10108857719E+03  0.35299440433E+02  0.51567724830E+02  0.20829599300E+03  0.17106443091E+03 0.  0.
        -24    2    5    5    0    0  0.12560520609E+03  0.40967409472E+02  0.13661522539E+01  0.15194460566E+03  0.75035327566E+02 0.  0.
          5    1    3    3  502    0 -0.11305243038E+03 -0.57614651033E+01  0.10342184837E+03  0.15340213563E+03  0.47000000000E+01 0. -1.
        -13    1    4    4    0    0 -0.25865796983E+02 -0.96500738820E+01 -0.30948263534E+01  0.27780232714E+02  0.00000000000E+00 0.  1.
         14    1    4    4    0    0  0.37829650167E+02 -0.19887901448E+02  0.66665712397E+02  0.79189192856E+02  0.00000000000E+00 0. -1.
         -5    1    5    5    0  501 -0.24516628897E+02 -0.56679690386E+01  0.50201572576E+02  0.56351387335E+02  0.47000000000E+01 0.  1.
         13    1    6    6    0    0  0.66370116571E+02  0.84148430184E+01  0.36026967892E+02  0.75985158894E+02  0.00000000000E+00 0. -1.
        -14    1    6    6    0    0  0.59235089517E+02  0.32552566454E+02 -0.34660815638E+02  0.75959446770E+02  0.00000000000E+00 0.  1.
</event>
<event>
12    1  0.1345781E-002  0.2108323E+03  0.7818608E-02  0.1140909E+00
          2   -1    0    0  502    0  0.00000000000E+00  0.00000000000E+00  0.49759283888E+03  0.49759283888E+03  0.00000000000E+00 0.  1.
         -2   -1    0    0    0  501 -0.00000000000E+00 -0.00000000000E+00 -0.89664688514E+02  0.89664688514E+02  0.00000000000E+00 0. -1.
          6    2    1    2  502    0  0.54155368676E+02 -0.10981091913E+03  0.22186229872E+03  0.30604194496E+03  0.17160288623E+03 0.  0.
         24    2    3    3    0    0  0.55302303404E+02 -0.97701419894E+02  0.70712144031E+02  0.15433032809E+03  0.78827220188E+02 0.  0.
         -6    2    1    2    0  501 -0.54155368676E+02  0.10981091913E+03  0.18606585164E+03  0.28121558243E+03  0.17166962673E+03 0.  0.
        -24    2    5    5    0    0 -0.65088136555E+02  0.77792300589E+02  0.47617700526E+02  0.13861580020E+03  0.81601391592E+02 0.  0.
          5    1    3    3  502    0 -0.11469347274E+01 -0.12109499231E+02  0.15115015469E+03  0.15171161687E+03  0.47000000000E+01 0. -1.
        -13    1    4    4    0    0  0.25832888974E+02 -0.43437783994E+02  0.77167675360E+02  0.92244400109E+02  0.00000000000E+00 0.  1.
         14    1    4    4    0    0  0.29469414430E+02 -0.54263635901E+02 -0.64555313292E+01  0.62085927977E+02  0.00000000000E+00 0. -1.
         -5    1    5    5    0  501  0.10932767879E+02  0.32018618536E+02  0.13844815111E+03  0.14259978223E+03  0.47000000000E+01 0.  1.
         13    1    6    6    0    0 -0.48990048124E+02  0.70672581586E+02  0.69476017668E+02  0.11055114488E+03  0.00000000000E+00 0. -1.
        -14    1    6    6    0    0 -0.16098088431E+02  0.71197190031E+01 -0.21858317142E+02  0.28064655317E+02  0.00000000000E+00 0.  1.
</event>
<event>
12    1  0.1345781E-002  0.1766698E+03  0.7818608E-02  0.1171066E+00
         -2   -1    0    0    0  501 -0.00000000000E+00  0.00000000000E+00  0.48492357605E+02  0.48492357605E+02  0.00000000000E+00 0.  1.
          2   -1    0    0  502    0  0.00000000000E+00 -0.00000000000E+00 -0.67474430211E+03  0.67474430211E+03  0.00000000000E+00 0. -1.
          6    2    1    2  502    0 -0.37250870583E+02 -0.20134040420E+02 -0.23649249509E+03  0.29554541181E+03  0.17212025815E+03 0.  0.
         24    2    3    3    0    0 -0.70837113750E+02 -0.68981231966E+01 -0.71003386800E+02  0.12609937262E+03  0.76118920444E+02 0.  0.
         -6    2    1    2    0  501  0.37250870583E+02  0.20134040420E+02 -0.38975944942E+03  0.42769124791E+03  0.17092211146E+03 0.  0.
        -24    2    5    5    0    0  0.82239228386E+02  0.26468500333E+02 -0.33675576607E+03  0.35772298247E+03  0.84246151308E+02 0.  0.
          5    1    3    3  502    0  0.33586243167E+02 -0.13235917223E+02 -0.16548910829E+03  0.16944603919E+03  0.47000000000E+01 0. -1.
        -13    1    4    4    0    0 -0.41641463282E+02 -0.36060430690E+02 -0.63662854698E+02  0.84186253000E+02  0.00000000000E+00 0.  1.
         14    1    4    4    0    0 -0.29195650468E+02  0.29162307494E+02 -0.73405321024E+01  0.41913119619E+02  0.00000000000E+00 0. -1.
         -5    1    5    5    0  501 -0.44988357803E+02 -0.63344599135E+01 -0.53003683350E+02  0.69968265442E+02  0.47000000000E+01 0.  1.
         11    1    6    6    0    0  0.70414963221E+02 -0.15728830835E+02 -0.25440310661E+03  0.26443638899E+03  0.00000000000E+00 0. -1.
        -12    1    6    6    0    0  0.11824265165E+02  0.42197331168E+02 -0.82352659456E+02  0.93286593484E+02  0.00000000000E+00 0.  1.
</event>
<event>
12    1  0.1345781E-002  0.1758920E+03  0.7818608E-02  0.1171839E+00
         -2   -1    0    0    0  501 -0.00000000000E+00  0.00000000000E+00  0.45847353406E+02  0.45847353406E+02  0.00000000000E+00 0.  1.
          2   -1    0    0  502    0  0.00000000000E+00 -0.00000000000E+00 -0.73526544135E+03  0.73526544135E+03  0.00000000000E+00 0. -1.
          6    2    1    2  502    0  0.29886781834E+02  0.24311423612E+02 -0.46065770591E+03  0.49391173721E+03  0.17395119171E+03 0.  0.
         24    2    3    3    0    0  0.20823200901E+02 -0.28357556895E+02 -0.11663876196E+03  0.14573463602E+03  0.79976412854E+02 0.  0.
         -6    2    1    2    0  501 -0.29886781834E+02 -0.24311423612E+02 -0.22876038203E+03  0.28720105754E+03  0.16931884130E+03 0.  0.
        -24    2    5    5    0    0  0.24793901635E+02 -0.33857512307E+02 -0.20953630419E+03  0.22827092838E+03  0.80256372147E+02 0.  0.
          5    1    3    3  502    0  0.90635809328E+01  0.52668980507E+02 -0.34401894394E+03  0.34817710120E+03  0.47000000000E+01 0. -1.
        -11    1    4    4    0    0 -0.28510091862E+02 -0.48203036415E+01 -0.21576212700E+02  0.36077605514E+02  0.00000000000E+00 0.  1.
         12    1    4    4    0    0  0.49333292763E+02 -0.23537253253E+02 -0.95062549265E+02  0.10965703050E+03  0.00000000000E+00 0. -1.
         -5    1    5    5    0  501 -0.54680683468E+02  0.95460886945E+01 -0.19224077837E+02  0.58930129158E+02  0.47000000000E+01 0.  1.
         11    1    6    6    0    0  0.36602424541E+02  0.77242173375E+01 -0.46918825632E+02  0.60006476438E+02  0.00000000000E+00 0. -1.
        -12    1    6    6    0    0 -0.11808522907E+02 -0.41581729644E+02 -0.16261747856E+03  0.16826445194E+03  0.00000000000E+00 0.  1.
</event>
<event>
12    1  0.1345781E-002  0.2342228E+03  0.7818608E-02  0.1123702E+00
         -2   -1    0    0    0  501 -0.00000000000E+00  0.00000000000E+00  0.38166722140E+02  0.38166722140E+02  0.00000000000E+00 0.  1.
          2   -1    0    0  502    0  0.00000000000E+00 -0.00000000000E+00 -0.15644785059E+04  0.15644785059E+04  0.00000000000E+00 0. -1.
          6    2    1    2  502    0 -0.37660283475E+02  0.15426484134E+03 -0.53284219920E+03  0.58179002933E+03  0.17129766711E+03 0.  0.
         24    2    3    3    0    0 -0.41327139669E+02  0.53890744645E+02 -0.12787184041E+03  0.16452334409E+03  0.78131801125E+02 0.  0.
         -6    2    1    2    0  501  0.37660283475E+02 -0.15426484134E+03 -0.99346958458E+03  0.10208551987E+04  0.17305369992E+03 0.  0.
        -24    2    5    5    0    0 -0.23309586815E+02 -0.80123087666E+02 -0.28463751589E+03  0.30553756555E+03  0.73291489948E+02 0.  0.
          5    1    3    3  502    0  0.36668561941E+01  0.10037409670E+03 -0.40497035879E+03  0.41726668525E+03  0.47000000000E+01 0. -1.
        -13    1    4    4    0    0 -0.23913795602E+02  0.65942407091E+02 -0.12474887655E+03  0.14311726965E+03  0.00000000000E+00 0.  1.
         14    1    4    4    0    0 -0.17413344067E+02 -0.12051662446E+02 -0.31229638648E+01  0.21406074433E+02  0.00000000000E+00 0. -1.
         -5    1    5    5    0  501  0.60969870290E+02 -0.74141753674E+02 -0.70883206869E+03  0.71531763317E+03  0.47000000000E+01 0.  1.
         11    1    6    6    0    0 -0.44730706130E+02 -0.68265427447E+02 -0.17353386843E+03  0.19176811035E+03  0.00000000000E+00 0. -1.
        -12    1    6    6    0    0  0.21421119315E+02 -0.11857660220E+02 -0.11110364746E+03  0.11376945520E+03  0.00000000000E+00 0.  1.
</event>
<event>
12    1  0.1345781E-002  0.2040887E+03  0.7818608E-02  0.1146335E+00
          1   -1    0    0  502    0  0.00000000000E+00  0.00000000000E+00  0.36212502517E+03  0.36212502517E+03  0.00000000000E+00 0.  1.
         -1   -1    0    0    0  501 -0.00000000000E+00 -0.00000000000E+00 -0.14376821598E+03  0.14376821598E+03  0.00000000000E+00 0. -1.
          6    2    1    2  502    0  0.48207020656E+02  0.96739631361E+02 -0.41283822763E+01  0.20366182916E+03  0.17256483999E+03 0.  0.
         24    2    3    3    0    0  0.61309241520E+02  0.71917227535E+02  0.52431665108E+02  0.14034556835E+03  0.89537078003E+02 0.  0.
         -6    2    1    2    0  501 -0.48207020656E+02 -0.96739631361E+02  0.22248519146E+03  0.30223141199E+03  0.17367122058E+03 0.  0.
        -24    2    5    5    0    0 -0.24398253775E+02 -0.13382393406E+03  0.14976440446E+03  0.21706976717E+03  0.78649773432E+02 0.  0.
          5    1    3    3  502    0 -0.13102220864E+02  0.24822403826E+02 -0.56560047384E+02  0.63316260813E+02  0.47000000000E+01 0. -1.
        -11    1    4    4    0    0 -0.88623948616E+01  0.38542546140E+02  0.48446892910E+02  0.62539358314E+02  0.00000000000E+00 0.  1.
         12    1    4    4    0    0  0.70171636382E+02  0.33374681395E+02  0.39847721978E+01  0.77806210036E+02  0.00000000000E+00 0. -1.
         -5    1    5    5    0  501 -0.23808766882E+02  0.37084302697E+02  0.72720786998E+02  0.85161644821E+02  0.47000000000E+01 0.  1.
         13    1    6    6    0    0 -0.13925217446E+02 -0.11440574765E+03  0.15617404607E+03  0.19409512988E+03  0.00000000000E+00 0. -1.
        -14    1    6    6    0    0 -0.10473036329E+02 -0.19418186407E+02 -0.64096416039E+01  0.22974637294E+02  0.00000000000E+00 0.  1.
</event>
<event>
12    1  0.1345781E-002  0.1745208E+03  0.7818608E-02  0.1173214E+00
         -1   -1    0    0    0  501 -0.00000000000E+00  0.00000000000E+00  0.59863389329E+02  0.59863389329E+02  0.00000000000E+00 0.  1.
          1   -1    0    0  502    0  0.00000000000E+00 -0.00000000000E+00 -0.51310644061E+03  0.51310644061E+03  0.00000000000E+00 0. -1.
          6    2    1    2  502    0 -0.24173066150E+02  0.21185755462E+02 -0.19892858675E+03  0.26388630238E+03  0.17038258302E+03 0.  0.
         24    2    3    3    0    0  0.28378134927E+02  0.10645934585E+02 -0.46407497021E+02  0.10215353090E+03  0.85808121004E+02 0.  0.
         -6    2    1    2    0  501  0.24173066150E+02 -0.21185755462E+02 -0.25431446454E+03  0.30908352756E+03  0.17269512668E+03 0.  0.
        -24    2    5    5    0    0  0.42604609294E+02 -0.76382901524E+01 -0.26765372871E+03  0.28218963295E+03  0.78223872563E+02 0.  0.
          5    1    3    3  502    0 -0.52551201077E+02  0.10539820877E+02 -0.15252108973E+03  0.16173277148E+03  0.47000000000E+01 0. -1.
        -13    1    4    4    0    0 -0.10644499413E+01  0.42595455728E+02 -0.39613698509E+02  0.58178613011E+02  0.00000000000E+00 0.  1.
         14    1    4    4    0    0  0.29442584869E+02 -0.31949521143E+02 -0.67937985128E+01  0.43974917888E+02  0.00000000000E+00 0. -1.
         -5    1    5    5    0  501 -0.18431543145E+02 -0.13547465309E+02  0.13339264176E+02  0.26893894619E+02  0.47000000000E+01 0.  1.
         13    1    6    6    0    0  0.38318019099E+02 -0.15603119378E+02 -0.52486311166E+02  0.66832183727E+02  0.00000000000E+00 0. -1.
        -14    1    6    6    0    0  0.42865901957E+01  0.79648292259E+01 -0.21516741755E+03  0.21535744922E+03  0.00000000000E+00 0.  1.
</event>
<event>
12    1  0.1345781E-002  0.2226243E+03  0.7818608E-02  0.1131942E+00
          2   -1    0    0  502    0  0.00000000000E+00  0.00000000000E+00  0.88254942435E+03  0.88254942435E+03  0.00000000000E+00 0.  1.
         -2   -1    0    0    0  501 -0.00000000000E+00 -0.00000000000E+00 -0.57403762274E+02  0.57403762274E+02  0.00000000000E+00 0. -1.
          6    2    1    2  502    0  0.13976518394E+03  0.14907696104E+02  0.34190009718E+03  0.40755999519E+03  0.17161855141E+03 0.  0.
         24    2    3    3    0    0  0.76857685085E+02 -0.48119053234E+02  0.25908324168E+03  0.28586181896E+03  0.79814199096E+02 0.  0.
         -6    2    1    2    0  501 -0.13976518394E+03 -0.14907696104E+02  0.48324556490E+03  0.53239319143E+03  0.17366544919E+03 0.  0.
        -24    2    5    5    0    0  0.25597826180E+01 -0.15947823832E+02  0.11941168455E+03  0.14168273539E+03  0.74524905420E+02 0.  0.
          5    1    3    3  502    0  0.62907498857E+02  0.63026749337E+02  0.82816855492E+02  0.12169817623E+03  0.47000000000E+01 0. -1.
        -13    1    4    4    0    0  0.78330122486E+02 -0.84504902405E+01  0.19703339019E+03  0.21220079106E+03  0.00000000000E+00 0.  1.
         14    1    4    4    0    0 -0.14724374011E+01 -0.39668562993E+02  0.62049851490E+02  0.73661027903E+02  0.00000000000E+00 0. -1.
         -5    1    5    5    0  501 -0.14232496656E+03  0.10401277285E+01  0.36383388035E+03  0.39071045604E+03  0.47000000000E+01 0.  1.
         11    1    6    6    0    0  0.36849989018E+00 -0.30881836524E+02  0.12245115748E+03  0.12628582496E+03  0.00000000000E+00 0. -1.
        -12    1    6    6    0    0  0.21912827278E+01  0.14934012692E+02 -0.30394729231E+01  0.15396910428E+02  0.00000000000E+00 0.  1.
</event>
<event>
12    1  0.1345781E-002  0.1980947E+03  0.7818608E-02  0.1151357E+00
          2   -1    0    0  502    0  0.00000000000E+00  0.00000000000E+00  0.86745542394E+03  0.86745542394E+03  0.00000000000E+00 0. -1.
         -2   -1    0    0    0  501 -0.00000000000E+00 -0.00000000000E+00 -0.85446116419E+02  0.85446116419E+02  0.00000000000E+00 0.  1.
          6    2    1    2  502    0  0.92541209732E+02  0.20357902472E+02  0.65095719548E+02  0.20935717356E+03  0.17497043672E+03 0.  0.
         24    2    3    3    0    0  0.26246137515E+02  0.26431849737E+02 -0.30505922677E+02  0.92765177989E+02  0.79292272725E+02 0.  0.
         -6    2    1    2    0  501 -0.92541209732E+02 -0.20357902472E+02  0.71691358797E+03  0.74354436680E+03  0.17295899249E+03 0.  0.
        -24    2    5    5    0    0 -0.11870244980E+03  0.11857918480E+02  0.63839678342E+03  0.65461041266E+03  0.82057647169E+02 0.  0.
          5    1    3    3  502    0  0.66295072217E+02 -0.60739472653E+01  0.95601642225E+02  0.11659199557E+03  0.47000000000E+01 0. -1.
        -13    1    4    4    0    0  0.53835462450E+02  0.12469201315E+02 -0.11421322057E+02  0.56428579604E+02  0.00000000000E+00 0.  1.
         14    1    4    4    0    0 -0.27589324935E+02  0.13962648422E+02 -0.19084600621E+02  0.36336598385E+02  0.00000000000E+00 0. -1.
         -5    1    5    5    0  501  0.26161240069E+02 -0.32215820952E+02  0.78516804554E+02  0.88933954140E+02  0.47000000000E+01 0.  1.
         11    1    6    6    0    0 -0.12890235032E+03  0.96754479680E+01  0.52278728511E+03  0.53853131356E+03  0.00000000000E+00 0. -1.
        -12    1    6    6    0    0  0.10199900516E+02  0.21824705121E+01  0.11560949831E+03  0.11607909910E+03  0.00000000000E+00 0.  1.
</event>
<event>
12    1  0.1345781E-002  0.1736519E+03  0.7818608E-02  0.1174092E+00
         -2   -1    0    0    0  501 -0.00000000000E+00  0.00000000000E+00  0.52581508703E+02  0.52581508703E+02  0.00000000000E+00 0. -1.
          2   -1    0    0  502    0  0.00000000000E+00 -0.00000000000E+00 -0.81649668884E+03  0.81649668884E+03  0.00000000000E+00 0.  1.
          6    2    1    2  502    0  0.21995562498E+02  0.21308476053E+02 -0.61951468969E+03  0.64347912513E+03  0.17125734385E+03 0.  0.
         24    2    3    3    0    0 -0.32632067743E+02  0.45435444088E+02 -0.50443939143E+03  0.51374592645E+03  0.79665211289E+02 0.  0.
         -6    2    1    2    0  501 -0.21995562498E+02 -0.21308476053E+02 -0.14440049045E+03  0.22559907241E+03  0.17060358704E+03 0.  0.
        -24    2    5    5    0    0 -0.15252772489E+02 -0.21725182427E+01 -0.14622005746E+01  0.81151522031E+02  0.79662190488E+02 0.  0.
          5    1    3    3  502    0  0.54627630240E+02 -0.24126968034E+02 -0.11507529826E+03  0.12973319869E+03  0.47000000000E+01 0. -1.
        -13    1    4    4    0    0 -0.42088075048E+02 -0.76471164604E+01 -0.25294593800E+03  0.25653758400E+03  0.00000000000E+00 0.  1.
         14    1    4    4    0    0  0.94560073053E+01  0.53082560548E+02 -0.25149345342E+03  0.25720834245E+03  0.00000000000E+00 0. -1.
         -5    1    5    5    0  501 -0.67427900091E+01 -0.19135957811E+02 -0.14293828988E+03  0.14444755038E+03  0.47000000000E+01 0.  1.
         13    1    6    6    0    0  0.24130054261E+02  0.42502947457E+01 -0.24851514036E+02  0.34898743157E+02  0.00000000000E+00 0. -1.
        -14    1    6    6    0    0 -0.39382826749E+02 -0.64228129884E+01  0.23389313461E+02  0.46252778875E+02  0.00000000000E+00 0.  1.
</event>
<event>
12    1  0.1345781E-002  0.2395482E+03  0.7818608E-02  0.1120094E+00
          1   -1    0    0  502    0  0.00000000000E+00  0.00000000000E+00  0.13631585399E+04  0.13631585399E+04  0.00000000000E+00 0.  1.
         -1   -1    0    0    0  501 -0.00000000000E+00 -0.00000000000E+00 -0.51090524490E+02  0.51090524490E+02  0.00000000000E+00 0. -1.
          6    2    1    2  502    0  0.70333613378E+02 -0.15096177275E+03  0.35744704553E+03  0.42982601678E+03  0.17101386009E+03 0.  0.
         24    2    3    3    0    0 -0.16977456620E+01 -0.11782708429E+02  0.12996558167E+03  0.15354855656E+03  0.80897418023E+02 0.  0.
         -6    2    1    2    0  501 -0.70333613378E+02  0.15096177275E+03  0.95462096989E+03  0.98442304762E+03  0.17335301131E+03 0.  0.
        -24    2    5    5    0    0 -0.85623553263E+01  0.12886612450E+02  0.21019862226E+03  0.22477368122E+03  0.78104854283E+02 0.  0.
          5    1    3    3  502    0  0.72031359040E+02 -0.13917906432E+03  0.22748146386E+03  0.27627746023E+03  0.47000000000E+01 0. -1.
        -13    1    4    4    0    0  0.15875655707E+01 -0.14880272867E+02  0.14091358401E+03  0.14170596686E+03  0.00000000000E+00 0.  1.
         14    1    4    4    0    0 -0.32853112326E+01  0.30975644382E+01 -0.10948002342E+02  0.11842589692E+02  0.00000000000E+00 0. -1.
         -5    1    5    5    0  501 -0.61771258051E+02  0.13807516029E+03  0.74442234763E+03  0.75964936640E+03  0.47000000000E+01 0.  1.
         11    1    6    6    0    0 -0.50523480702E+01  0.17841977662E+02  0.46265909077E+01  0.19111978739E+02  0.00000000000E+00 0. -1.
        -12    1    6    6    0    0 -0.35100072561E+01 -0.49553652114E+01  0.20557203135E+03  0.20566170248E+03  0.00000000000E+00 0.  1.
</event>
<event>
12    1  0.1345781E-002  0.3063728E+03  0.7818608E-02  0.1082098E+00
         -1   -1    0    0    0  501 -0.00000000000E+00  0.00000000000E+00  0.25982893781E+03  0.25982893781E+03  0.00000000000E+00 0.  1.
          1   -1    0    0  502    0  0.00000000000E+00 -0.00000000000E+00 -0.37048360293E+03  0.37048360293E+03  0.00000000000E+00 0. -1.
          6    2    1    2  502    0 -0.42860746518E+02  0.24999865877E+03 -0.57552003108E+01  0.30734430358E+03  0.17346765010E+03 0.  0.
         24    2    3    3    0    0 -0.37707772386E+02  0.43162636410E+02 -0.13298322653E+02  0.10025330430E+03  0.81172596097E+02 0.  0.
         -6    2    1    2    0  501  0.42860746518E+02 -0.24999865877E+03 -0.10489946481E+03  0.32296823717E+03  0.17020050389E+03 0.  0.
        -24    2    5    5    0    0 -0.31828717686E+02 -0.11324700207E+03 -0.86290584080E+02  0.16597170180E+03  0.79136528558E+02 0.  0.
          5    1    3    3  502    0 -0.51529741322E+01  0.20683602236E+03  0.75431223418E+01  0.20709099928E+03  0.47000000000E+01 0. -1.
        -13    1    4    4    0    0 -0.33686791545E+02  0.65741988066E+02 -0.25807285554E+00  0.73870667528E+02  0.00000000000E+00 0.  1.
         14    1    4    4    0    0 -0.40209808409E+01 -0.22579351656E+02 -0.13040249797E+02  0.26382636769E+02  0.00000000000E+00 0. -1.
         -5    1    5    5    0  501  0.74689464204E+02 -0.13675165670E+03 -0.18608880729E+02  0.15699653536E+03  0.47000000000E+01 0.  1.
         11    1    6    6    0    0 -0.55956498542E+02 -0.98333715102E+02 -0.73010797884E+02  0.13465224047E+03  0.00000000000E+00 0. -1.
        -12    1    6    6    0    0  0.24127780856E+02 -0.14913286965E+02 -0.13279786196E+02  0.31319461338E+02  0.00000000000E+00 0.  1.
</event>
<event>
12    1  0.1345781E-002  0.2667613E+03  0.7818608E-02  0.1103148E+00
          3   -1    0    0  502    0  0.00000000000E+00  0.00000000000E+00  0.32207004270E+03  0.32207004270E+03  0.00000000000E+00 0.  1.
         -3   -1    0    0    0  501 -0.00000000000E+00 -0.00000000000E+00 -0.31649632493E+03  0.31649632493E+03  0.00000000000E+00 0. -1.
          6    2    1    2  502    0  0.30258638238E+02  0.20169992942E+03 -0.17264159452E+03  0.31761748320E+03  0.17168954180E+03 0.  0.
         24    2    3    3    0    0 -0.44741311245E+02  0.14040103598E+03 -0.12665394183E+03  0.21028854508E+03  0.80410293954E+02 0.  0.
         -6    2    1    2    0  501 -0.30258638238E+02 -0.20169992942E+03  0.17821531229E+03  0.32094888443E+03  0.17218897226E+03 0.  0.
        -24    2    5    5    0    0 -0.29952778706E+02 -0.20615272070E+02  0.30718636135E+02  0.87348571603E+02  0.73239196885E+02 0.  0.
          5    1    3    3  502    0  0.74999949484E+02  0.61298893436E+02 -0.45987652685E+02  0.10732893812E+03  0.47000000000E+01 0. -1.
        -13    1    4    4    0    0 -0.34208417190E+02  0.26058876238E+02 -0.70225456766E+02  0.82346193691E+02  0.00000000000E+00 0.  1.
         14    1    4    4    0    0 -0.10532894056E+02  0.11434215974E+03 -0.56428485064E+02  0.12794235139E+03  0.00000000000E+00 0. -1.
         -5    1    5    5    0  501 -0.30585953282E+00 -0.18108465735E+03  0.14749667615E+03  0.23360031283E+03  0.47000000000E+01 0.  1.
         13    1    6    6    0    0 -0.43553027119E+02 -0.28187702280E+02  0.43109721497E+02  0.67452656127E+02  0.00000000000E+00 0. -1.
        -14    1    6    6    0    0  0.13600248413E+02  0.75724302096E+01 -0.12391085362E+02  0.19895915476E+02  0.00000000000E+00 0.  1.
</event>
<event>
12    1  0.1345781E-002  0.2234012E+03  0.7818608E-02  0.1131372E+00
          2   -1    0    0  502    0  0.00000000000E+00  0.00000000000E+00  0.37196397286E+04  0.37196397286E+04  0.00000000000E+00 0. -1.
         -2   -1    0    0    0  501 -0.00000000000E+00 -0.00000000000E+00 -0.16561897353E+02  0.16561897353E+02  0.00000000000E+00 0.  1.
          6    2    1    2  502    0  0.13949998405E+03  0.15142830598E+02  0.10332366953E+04  0.10569761938E+04  0.17300593938E+03 0.  0.
         24    2    3    3    0    0  0.75302575263E+02 -0.10696439285E+02  0.90267617870E+03  0.90913467855E+03  0.76920013520E+02 0.  0.
         -6    2    1    2    0  501 -0.13949998405E+03 -0.15142830598E+02  0.26698411360E+04  0.26792254321E+04  0.17466446050E+03 0.  0.
        -24    2    5    5    0    0 -0.14418263102E+03  0.35879418007E+02  0.17887722343E+04  0.17966554935E+04  0.78669513432E+02 0.  0.
          5    1    3    3  502    0  0.64197408791E+02  0.25839269883E+02  0.13056051655E+03  0.14784151530E+03  0.47000000000E+01 0. -1.
        -13    1    4    4    0    0  0.36440127048E+02  0.28720714249E+02  0.26242209521E+03  0.26649224818E+03  0.00000000000E+00 0.  1.
         14    1    4    4    0    0  0.38862448216E+02 -0.39417153533E+02  0.64025408350E+03  0.64264243037E+03  0.00000000000E+00 0. -1.
         -5    1    5    5    0  501  0.46826469692E+01 -0.51022248605E+02  0.88106890168E+03  0.88256993861E+03  0.47000000000E+01 0.  1.
         11    1    6    6    0    0 -0.47200251993E+02  0.34302980730E+02  0.10387381698E+04  0.10403756743E+04  0.00000000000E+00 0. -1.
        -12    1    6    6    0    0 -0.96982379031E+02  0.15764372765E+01  0.75003406448E+03  0.75627981916E+03  0.00000000000E+00 0.  1.
</event>
<event>
12    1  0.1345781E-002  0.2114834E+03  0.7818608E-02  0.1140397E+00
          2   -1    0    0  502    0  0.00000000000E+00  0.00000000000E+00  0.40531848481E+03  0.40531848481E+03  0.00000000000E+00 0.  1.
         -2   -1    0    0    0  501 -0.00000000000E+00 -0.00000000000E+00 -0.11057757941E+03  0.11057757941E+03  0.00000000000E+00 0. -1.
          6    2    1    2  502    0 -0.47508715757E+01 -0.12413872608E+03  0.13707079238E+03  0.25358391396E+03  0.17344568373E+03 0.  0.
         24    2    3    3    0    0 -0.47650599798E+02 -0.49228193296E+02  0.43272322090E+02  0.12602131117E+03  0.96513638066E+02 0.  0.
         -6    2    1    2    0  501  0.47508715757E+01  0.12413872608E+03  0.15767011302E+03  0.26231215027E+03  0.16886327471E+03 0.  0.
        -24    2    5    5    0    0  0.61855747894E+02  0.10046274510E+03  0.78277257059E+02  0.16158065295E+03  0.77859371519E+02 0.  0.
          5    1    3    3  502    0  0.42899728223E+02 -0.74910532780E+02  0.93798470285E+02  0.12756260279E+03  0.47000000000E+01 0. -1.
        -13    1    4    4    0    0 -0.22741223842E+02  0.27490279763E+02  0.28300166200E+01  0.35789491996E+02  0.00000000000E+00 0.  1.
         14    1    4    4    0    0 -0.24909375957E+02 -0.76718473059E+02  0.40442305470E+02  0.90231819171E+02  0.00000000000E+00 0. -1.
         -5    1    5    5    0  501 -0.57104876318E+02  0.23675980973E+02  0.79392855962E+02  0.10073149732E+03  0.47000000000E+01 0.  1.
         13    1    6    6    0    0  0.15694158349E+02 -0.71229927854E+01 -0.49608189938E+01  0.17934697031E+02  0.00000000000E+00 0. -1.
        -14    1    6    6    0    0  0.46161589545E+02  0.10758573789E+03  0.83238076053E+02  0.14364595592E+03  0.00000000000E+00 0.  1.
</event>
<event>
12    1  0.1345781E-002  0.1815972E+03  0.7818608E-02  0.1166266E+00
         -2   -1    0    0    0  501 -0.00000000000E+00  0.00000000000E+00  0.94025858028E+02  0.94025858028E+02  0.00000000000E+00 0.  1.
          2   -1    0    0  502    0  0.00000000000E+00 -0.00000000000E+00 -0.35114505431E+03  0.35114505431E+03  0.00000000000E+00 0. -1.
          6    2    1    2  502    0 -0.40459809466E+02  0.42444457177E+02 -0.12096508602E+03  0.21828250542E+03  0.17197724271E+03 0.  0.
         24    2    3    3    0    0  0.20847264994E+02  0.67739823529E+02 -0.10389000344E+03  0.14963804910E+03  0.81087118427E+02 0.  0.
         -6    2    1    2    0  501  0.40459809466E+02 -0.42444457177E+02 -0.13615411027E+03  0.22688840693E+03  0.17176111122E+03 0.  0.
        -24    2    5    5    0    0 -0.22154846740E+02 -0.72421953582E+02 -0.78148275424E+02  0.13630136404E+03  0.82067851762E+02 0.  0.
          5    1    3    3  502    0 -0.61307074460E+02 -0.25295366351E+02 -0.17075082575E+02  0.68644456314E+02  0.47000000000E+01 0. -1.
        -13    1    4    4    0    0  0.19679049336E+02  0.60767640074E+02 -0.22169822043E+02  0.67612662071E+02  0.00000000000E+00 0.  1.
         14    1    4    4    0    0  0.11682156582E+01  0.69721834551E+01 -0.81720181398E+02  0.82025387032E+02  0.00000000000E+00 0. -1.
         -5    1    5    5    0  501  0.62614656206E+02  0.29977496404E+02 -0.58005834847E+02  0.90587042885E+02  0.47000000000E+01 0.  1.
         13    1    6    6    0    0 -0.27888028002E+02 -0.39376594818E+01 -0.58335274244E+02  0.64778480139E+02  0.00000000000E+00 0. -1.
        -14    1    6    6    0    0  0.57331812621E+01 -0.68484294100E+02 -0.19813001180E+02  0.71522883901E+02  0.00000000000E+00 0.  1.
</event>
<event>
12    1  0.1345781E-002  0.1958245E+03  0.7818608E-02  0.1153310E+00
          2   -1    0    0  502    0  0.00000000000E+00  0.00000000000E+00  0.11098308541E+04  0.11098308541E+04  0.00000000000E+00 0.  1.
         -2   -1    0    0    0  501 -0.00000000000E+00 -0.00000000000E+00 -0.34579107584E+02  0.34579107584E+02  0.00000000000E+00 0. -1.
          6    2    1    2  502    0  0.62296639160E+02 -0.65462927254E+02  0.51831028001E+03  0.55356269431E+03  0.17210416635E+03 0.  0.
         24    2    3    3    0    0  0.35670103837E+02 -0.13349568543E+02  0.46570587561E+03  0.47473320807E+03  0.83899278769E+02 0.  0.
         -6    2    1    2    0  501 -0.62296639160E+02  0.65462927254E+02  0.55694146649E+03  0.59084726736E+03  0.17535800566E+03 0.  0.
        -24    2    5    5    0    0 -0.45987382476E+02 -0.33725920508E+02  0.26506436456E+03  0.28210991619E+03  0.77939786960E+02 0.  0.
          5    1    3    3  502    0  0.26626535324E+02 -0.52113358711E+02  0.52604404403E+02  0.78829486248E+02  0.47000000000E+01 0. -1.
        -13    1    4    4    0    0  0.57573105415E+02 -0.22871626044E+02  0.40106507781E+03  0.40582135280E+03  0.00000000000E+00 0.  1.
         14    1    4    4    0    0 -0.21903001578E+02  0.95220575009E+01  0.64640797792E+02  0.68911855267E+02  0.00000000000E+00 0. -1.
         -5    1    5    5    0  501 -0.16309256684E+02  0.99188847762E+02  0.29187710193E+03  0.30873735117E+03  0.47000000000E+01 0.  1.
         13    1    6    6    0    0  0.81161682377E+01 -0.28484680717E+02  0.17035353775E+03  0.17290915836E+03  0.00000000000E+00 0. -1.
        -14    1    6    6    0    0 -0.54103550714E+02 -0.52412397910E+01  0.94710826811E+02  0.10920075783E+03  0.00000000000E+00 0.  1.
</event>
<event>
12    1  0.1345781E-002  0.1803003E+03  0.7818608E-02  0.1167513E+00
         -2   -1    0    0    0  501 -0.00000000000E+00  0.00000000000E+00  0.94873730662E+03  0.94873730662E+03  0.00000000000E+00 0. -1.
          2   -1    0    0  502    0  0.00000000000E+00 -0.00000000000E+00 -0.35511901574E+02  0.35511901574E+02  0.00000000000E+00 0.  1.
          6    2    1    2  502    0 -0.37739915220E+02  0.19692813673E+02  0.54471528972E+03  0.57326769164E+03  0.17351942635E+03 0.  0.
         24    2    3    3    0    0 -0.56463812883E+02 -0.27904640243E+02  0.19807976799E+03  0.22284740558E+03  0.80365045721E+02 0.  0.
         -6    2    1    2    0  501  0.37739915220E+02 -0.19692813673E+02  0.36851011533E+03  0.41098151655E+03  0.17690108461E+03 0.  0.
        -24    2    5    5    0    0 -0.47060747562E+02 -0.26229392318E+02  0.21284948666E+03  0.23353800276E+03  0.79576377020E+02 0.  0.
          5    1    3    3  502    0  0.18723897663E+02  0.47597453916E+02  0.34663552172E+03  0.35042028606E+03  0.47000000000E+01 0. -1.
        -11    1    4    4    0    0 -0.51830694739E+02  0.16827370111E+02  0.82976070207E+02  0.99270385962E+02  0.00000000000E+00 0.  1.
         12    1    4    4    0    0 -0.46331181443E+01 -0.44732010354E+02  0.11510369779E+03  0.12357701962E+03  0.00000000000E+00 0. -1.
         -5    1    5    5    0  501  0.84800662781E+02  0.65365786448E+01  0.15566062867E+03  0.17744351379E+03  0.47000000000E+01 0.  1.
         13    1    6    6    0    0 -0.59179478388E+02  0.42266907321E+01  0.16661187875E+03  0.17686037916E+03  0.00000000000E+00 0. -1.
        -14    1    6    6    0    0  0.12118730826E+02 -0.30456083050E+02  0.46237607914E+02  0.56677623602E+02  0.00000000000E+00 0.  1.
</event>
<event>
12    1  0.1345781E-002  0.1730874E+03  0.7818608E-02  0.1174666E+00
         -2   -1    0    0    0  501 -0.00000000000E+00  0.00000000000E+00  0.12986923296E+02  0.12986923296E+02  0.00000000000E+00 0. -1.
          2   -1    0    0  502    0  0.00000000000E+00 -0.00000000000E+00 -0.23091496965E+04  0.23091496965E+04  0.00000000000E+00 0.  1.
          6    2    1    2  502    0  0.11485272955E+02 -0.59009880376E+01 -0.11840729596E+04  0.11966477556E+04  0.17254084808E+03 0.  0.
         24    2    3    3    0    0 -0.44565003736E+02  0.33802030869E+02 -0.57961869795E+03  0.58828519297E+03  0.83624257274E+02 0.  0.
         -6    2    1    2    0  501 -0.11485272955E+02  0.59009880376E+01 -0.11120898137E+04  0.11254888642E+04  0.17266932755E+03 0.  0.
        -24    2    5    5    0    0 -0.61910439443E+01 -0.62212159049E+02 -0.56228807307E+03  0.57143880003E+03  0.80409845834E+02 0.  0.
          5    1    3    3  502    0  0.56050276691E+02 -0.39703018906E+02 -0.60445426161E+03  0.60836256262E+03  0.47000000000E+01 0. -1.
        -13    1    4    4    0    0 -0.31025608473E+01 -0.13793681526E+02 -0.34600618587E+03  0.34629492084E+03  0.00000000000E+00 0.  1.
         14    1    4    4    0    0 -0.41462442889E+02  0.47595712394E+02 -0.23361251208E+03  0.24199027214E+03  0.00000000000E+00 0. -1.
         -5    1    5    5    0  501 -0.52942290106E+01  0.68113147087E+02 -0.54980174059E+03  0.55405006418E+03  0.47000000000E+01 0.  1.
         13    1    6    6    0    0 -0.17142274164E+02 -0.18032305905E+02 -0.39564591912E+02  0.46737335749E+02  0.00000000000E+00 0. -1.
        -14    1    6    6    0    0  0.10951230219E+02 -0.44179853144E+02 -0.52272348116E+03  0.52470146428E+03  0.00000000000E+00 0.  1.
</event>
<event>
12    1  0.1345781E-002  0.1878749E+03  0.7818608E-02  0.1160392E+00
         -4   -1    0    0    0  501 -0.00000000000E+00  0.00000000000E+00  0.31630248215E+03  0.31630248215E+03  0.00000000000E+00 0. -1.
          4   -1    0    0  502    0  0.00000000000E+00 -0.00000000000E+00 -0.21932647255E+03  0.21932647255E+03  0.00000000000E+00 0.  1.
          6    2    1    2  502    0 -0.59460910570E+02  0.31367619816E+02  0.23655728835E+03  0.30404865133E+03  0.17879234950E+03 0.  0.
         24    2    3    3    0    0 -0.33335460425E+02  0.78017991339E+02  0.82936075969E+02  0.14132077048E+03  0.76779603925E+02 0.  0.
         -6    2    1    2    0  501  0.59460910570E+02 -0.31367619816E+02 -0.13958127875E+03  0.23158030337E+03  0.17212488510E+03 0.  0.
        -24    2    5    5    0    0 -0.93636591738E+01 -0.51597405925E+02 -0.28995666594E+02  0.99681352411E+02  0.79659606614E+02 0.  0.
          5    1    3    3  502    0 -0.26125450145E+02 -0.46650371523E+02  0.15362121239E+03  0.16272788084E+03  0.47000000000E+01 0. -1.
        -13    1    4    4    0    0  0.63659709620E+01  0.55185074553E+02  0.11917120534E+02  0.56814925869E+02  0.00000000000E+00 0.  1.
         14    1    4    4    0    0 -0.39701431387E+02  0.22832916787E+02  0.71018955435E+02  0.84505844616E+02  0.00000000000E+00 0. -1.
         -5    1    5    5    0  501  0.68824569744E+02  0.20229786109E+02 -0.11058561216E+03  0.13189895096E+03  0.47000000000E+01 0.  1.
         11    1    6    6    0    0 -0.12310303856E+02  0.18309032506E+02  0.38345388923E+01  0.22393479874E+02  0.00000000000E+00 0. -1.
        -12    1    6    6    0    0  0.29466446820E+01 -0.69906438432E+02 -0.32830205486E+02  0.77287872537E+02  0.00000000000E+00 0.  1.
</event>
<event>
12    1  0.1345781E-002  0.2232380E+03  0.7818608E-02  0.1131492E+00
         -1   -1    0    0    0  501 -0.00000000000E+00  0.00000000000E+00  0.18748243092E+03  0.18748243092E+03  0.00000000000E+00 0.  1.
          1   -1    0    0  502    0  0.00000000000E+00 -0.00000000000E+00 -0.40325507038E+03  0.40325507038E+03  0.00000000000E+00 0. -1.
          6    2    1    2  502    0  0.12155939523E+03 -0.75318326945E+02  0.64361451343E+02  0.23290312399E+03  0.17219736294E+03 0.  0.
         24    2    3    3    0    0  0.53346688554E+02  0.23605973450E+02  0.52493655801E+02  0.11206469826E+03  0.79998759586E+02 0.  0.
         -6    2    1    2    0  501 -0.12155939523E+03  0.75318326945E+02 -0.28013409081E+03  0.35783437731E+03  0.17064816381E+03 0.  0.
        -24    2    5    5    0    0 -0.20590381667E+02  0.77972991954E+02 -0.94333288550E+02  0.14630230630E+03  0.77471570327E+02 0.  0.
          5    1    3    3  502    0  0.68212706675E+02 -0.98924300395E+02  0.11867795543E+02  0.12083842572E+03  0.47000000000E+01 0. -1.
        -11    1    4    4    0    0  0.65475307253E+02  0.28019210627E+02  0.63260007750E+02  0.95257128891E+02  0.00000000000E+00 0.  1.
         12    1    4    4    0    0 -0.12128618698E+02 -0.44132371761E+01 -0.10766351949E+02  0.16807569372E+02  0.00000000000E+00 0. -1.
         -5    1    5    5    0  501 -0.10096901356E+03 -0.26546650094E+01 -0.18580080226E+03  0.21153207101E+03  0.47000000000E+01 0.  1.
         13    1    6    6    0    0 -0.45309037991E+02  0.46618547919E+02 -0.81734643846E+02  0.10443538643E+03  0.00000000000E+00 0. -1.
        -14    1    6    6    0    0  0.24718656325E+02  0.31354444035E+02 -0.12598644703E+02  0.41866919873E+02  0.00000000000E+00 0.  1.
</event>
<event>
12    1  0.1345781E-002  0.1882276E+03  0.7818608E-02  0.1160070E+00
         -2   -1    0    0    0  501 -0.00000000000E+00  0.00000000000E+00  0.18021693536E+03  0.18021693536E+03  0.00000000000E+00 0.  1.
          2   -1    0    0  502    0  0.00000000000E+00 -0.00000000000E+00 -0.28231965192E+03  0.28231965192E+03  0.00000000000E+00 0. -1.
          6    2    1    2  502    0 -0.15582066914E+02  0.73833730118E+02 -0.17848851330E+03  0.25939434341E+03  0.17243275645E+03 0.  0.
         24    2    3    3    0    0 -0.44767583133E+02  0.78816961763E+02 -0.19138834386E+03  0.22675812759E+03  0.81077125637E+02 0.  0.
         -6    2    1    2    0  501  0.15582066914E+02 -0.73833730118E+02  0.76385796745E+02  0.20314224387E+03  0.17244639975E+03 0.  0.
        -24    2    5    5    0    0 -0.30624772215E+02 -0.48551434132E+02  0.10636749361E+03  0.14235360497E+03  0.75202305291E+02 0.  0.
          5    1    3    3  502    0  0.29185516219E+02 -0.49832316447E+01  0.12899830557E+02  0.32636215819E+02  0.47000000000E+01 0. -1.
        -13    1    4    4    0    0 -0.18272638599E+02  0.34332696098E+02 -0.12999895767E+02  0.41007567993E+02  0.00000000000E+00 0.  1.
         14    1    4    4    0    0 -0.26494944533E+02  0.44484265665E+02 -0.17838844809E+03  0.18575055960E+03  0.00000000000E+00 0. -1.
         -5    1    5    5    0  501  0.46206839129E+02 -0.25282295986E+02 -0.29981696866E+02  0.60788638902E+02  0.47000000000E+01 0.  1.
         11    1    6    6    0    0 -0.30449223985E+02 -0.36865996445E+02  0.14813801100E+02  0.50057023864E+02  0.00000000000E+00 0. -1.
        -12    1    6    6    0    0 -0.17554822981E+00 -0.11685437688E+02  0.91553692512E+02  0.92296581105E+02  0.00000000000E+00 0.  1.
</event>
<event>
12    1  0.1345781E-002  0.1843962E+03  0.7818608E-02  0.1163615E+00
         -2   -1    0    0    0  501 -0.00000000000E+00  0.00000000000E+00  0.59909596948E+02  0.59909596948E+02  0.00000000000E+00 0.  1.
          2   -1    0    0  502    0  0.00000000000E+00 -0.00000000000E+00 -0.59978491049E+03  0.59978491049E+03  0.00000000000E+00 0. -1.
          6    2    1    2  502    0  0.21868777361E+02  0.67161450161E+02 -0.34396458847E+03  0.38947070584E+03  0.16848409056E+03 0.  0.
         24    2    3    3    0    0 -0.97130560053E+01  0.10343654741E+03 -0.28280240910E+03  0.31152074070E+03  0.79211782548E+02 0.  0.
         -6    2    1    2    0  501 -0.21868777361E+02 -0.67161450161E+02 -0.19591072507E+03  0.27022380160E+03  0.17219461938E+03 0.  0.
        -24    2    5    5    0    0  0.21270557113E+02 -0.44905284734E+02 -0.20061622358E+03  0.22122818144E+03  0.78905753304E+02 0.  0.
          5    1    3    3  502    0  0.31581833366E+02 -0.36275097253E+02 -0.61162179375E+02  0.77949965141E+02  0.47000000000E+01 0. -1.
        -11    1    4    4    0    0  0.20837194142E+02  0.61797155567E+01 -0.19602377833E+02  0.29268255172E+02  0.00000000000E+00 0.  1.
         12    1    4    4    0    0 -0.30550250147E+02  0.97256831857E+02 -0.26320003126E+03  0.28225248552E+03  0.00000000000E+00 0. -1.
         -5    1    5    5    0  501 -0.43139334474E+02 -0.22256165426E+02  0.47054985111E+01  0.48995620157E+02  0.47000000000E+01 0.  1.
         13    1    6    6    0    0  0.31196161002E+02 -0.74353880157E+01 -0.16659416492E+03  0.16965288456E+03  0.00000000000E+00 0. -1.
        -14    1    6    6    0    0 -0.99256038888E+01 -0.37469896718E+02 -0.34022058663E+02  0.51575296881E+02  0.00000000000E+00 0.  1.
</event>
<event>
12    1  0.1345781E-002  0.1835864E+03  0.7818608E-02  0.1164377E+00
         -4   -1    0    0    0  501 -0.00000000000E+00  0.00000000000E+00  0.48966847758E+03  0.48966847758E+03  0.00000000000E+00 0. -1.
          4   -1    0    0  502    0  0.00000000000E+00 -0.00000000000E+00 -0.69480494257E+02  0.69480494257E+02  0.00000000000E+00 0.  1.
          6    2    1    2  502    0 -0.36413042405E+02  0.50078452417E+01  0.22015047257E+03  0.28026839426E+03  0.16950856638E+03 0.  0.
         24    2    3    3    0    0 -0.89944366414E+02  0.18327176945E+02  0.14495932883E+03  0.18689385092E+03  0.74096086481E+02 0.  0.
         -6    2    1    2    0  501  0.36413042405E+02 -0.50078452417E+01  0.20003751075E+03  0.27888057758E+03  0.19080980759E+03 0.  0.
        -24    2    5    5    0    0  0.59123269869E+02  0.53037446824E+02  0.64748057118E+02  0.12984924991E+03  0.79749514076E+02 0.  0.
          5    1    3    3  502    0  0.53531324008E+02 -0.13319331703E+02  0.75191143739E+02  0.93374543340E+02  0.47000000000E+01 0. -1.
        -13    1    4    4    0    0 -0.39280423806E+02 -0.78334111015E+01  0.11357211611E+02  0.41632923023E+02  0.00000000000E+00 0.  1.
         14    1    4    4    0    0 -0.50663942608E+02  0.26160588046E+02  0.13360211722E+03  0.14526092790E+03  0.00000000000E+00 0. -1.
         -5    1    5    5    0  501 -0.22710227464E+02 -0.58045292065E+02  0.13528945364E+03  0.14903132767E+03  0.47000000000E+01 0.  1.
         11    1    6    6    0    0  0.44731355766E+00  0.30004051486E+02  0.59447718085E+02  0.66591849204E+02  0.00000000000E+00 0. -1.
        -12    1    6    6    0    0  0.58675956311E+02  0.23033395338E+02  0.53003390334E+01  0.63257400703E+02  0.00000000000E+00 0.  1.
</event>
<event>
12    1  0.1345781E-002  0.1887467E+03  0.7818608E-02  0.1159597E+00
         -2   -1    0    0    0  501 -0.00000000000E+00  0.00000000000E+00  0.10120764598E+03  0.10120764598E+03  0.00000000000E+00 0. -1.
          2   -1    0    0  502    0  0.00000000000E+00 -0.00000000000E+00 -0.36396845040E+03  0.36396845040E+03  0.00000000000E+00 0.  1.
          6    2    1    2  502    0 -0.44653002443E+02  0.77013766617E+02 -0.85240814864E+02  0.20056363626E+03  0.15822378075E+03 0.  0.
         24    2    3    3    0    0 -0.66010787831E+01  0.84614354911E+02 -0.10491200974E+03  0.15680562277E+03  0.79864324002E+02 0.  0.
         -6    2    1    2    0  501  0.44653002443E+02 -0.77013766617E+02 -0.17751998957E+03  0.26461246012E+03  0.17487537414E+03 0.  0.
        -24    2    5    5    0    0  0.63200274553E+02 -0.22300409731E+02 -0.35453935519E+02  0.11117711075E+03  0.81312886018E+02 0.  0.
          5    1    3    3  502    0 -0.38051923660E+02 -0.76005882940E+01  0.19671194872E+02  0.43758013487E+02  0.47000000000E+01 0. -1.
        -11    1    4    4    0    0  0.30343410515E+02  0.56534269102E+02 -0.84526977168E+02  0.10612094993E+03  0.00000000000E+00 0.  1.
         12    1    4    4    0    0 -0.36944489299E+02  0.28080085810E+02 -0.20385032569E+02  0.50684672845E+02  0.00000000000E+00 0. -1.
         -5    1    5    5    0  501 -0.18547272110E+02 -0.54713356886E+02 -0.14206605405E+03  0.15343534937E+03  0.47000000000E+01 0.  1.
         11    1    6    6    0    0  0.69047778812E+02 -0.44531366414E+02 -0.30652539075E+02  0.87693879520E+02  0.00000000000E+00 0. -1.
        -12    1    6    6    0    0 -0.58475042585E+01  0.22230956683E+02 -0.48013964442E+01  0.23483231228E+02  0.00000000000E+00 0.  1.
</event>
<event>
12    1  0.1345781E-002  0.2334406E+03  0.7818608E-02  0.1124241E+00
         -2   -1    0    0    0  501 -0.00000000000E+00  0.00000000000E+00  0.10584679366E+03  0.10584679366E+03  0.00000000000E+00 0.  1.
          2   -1    0    0  502    0  0.00000000000E+00 -0.00000000000E+00 -0.65591858546E+03  0.65591858546E+03  0.00000000000E+00 0. -1.
          6    2    1    2  502    0  0.68356369847E+02  0.14229443280E+03 -0.98000576663E+02  0.25278312471E+03  0.17139106221E+03 0.  0.
         24    2    3    3    0    0  0.60555702740E+02  0.10256701109E+03  0.30840461869E+01  0.14379087994E+03  0.80494229072E+02 0.  0.
         -6    2    1    2    0  501 -0.68356369847E+02 -0.14229443280E+03 -0.45207121514E+03  0.50898225441E+03  0.17255217426E+03 0.  0.
        -24    2    5    5    0    0 -0.38970791674E+02 -0.11177947698E+02 -0.25302952436E+03  0.26878498228E+03  0.81103374670E+02 0.  0.
          5    1    3    3  502    0  0.78006671072E+01  0.39727421707E+02 -0.10108462285E+03  0.10899224477E+03  0.47000000000E+01 0. -1.
        -11    1    4    4    0    0  0.32539942950E+02  0.22600711229E+02 -0.33129260353E+02  0.51644824782E+02  0.00000000000E+00 0.  1.
         12    1    4    4    0    0  0.28015759791E+02  0.79966299862E+02  0.36213306540E+02  0.92146055156E+02  0.00000000000E+00 0. -1.
         -5    1    5    5    0  501 -0.29385578173E+02 -0.13111648510E+03 -0.19904169078E+03  0.24019727213E+03  0.47000000000E+01 0.  1.
         11    1    6    6    0    0 -0.86843117679E+01 -0.44240113871E+02 -0.14411141676E+03  0.15099902445E+03  0.00000000000E+00 0. -1.
        -12    1    6    6    0    0 -0.30286479907E+02  0.33062166173E+02 -0.10891810760E+03  0.11778595783E+03  0.00000000000E+00 0.  1.
</event>
<event>
12    1  0.1345781E-002  0.1980026E+03  0.7818608E-02  0.1151435E+00
         -1   -1    0    0    0  501 -0.00000000000E+00  0.00000000000E+00  0.46859584096E+02  0.46859584096E+02  0.00000000000E+00 0.  1.
          1   -1    0    0  502    0  0.00000000000E+00 -0.00000000000E+00 -0.89526787991E+03  0.89526787991E+03  0.00000000000E+00 0. -1.
          6    2    1    2  502    0  0.97632816735E+02  0.70024310353E+01 -0.54435118963E+03  0.57917729143E+03  0.17189216478E+03 0.  0.
         24    2    3    3    0    0  0.97353125399E+01 -0.34214073279E+02 -0.35998115095E+03  0.37075662874E+03  0.81293724223E+02 0.  0.
         -6    2    1    2    0  501 -0.97632816735E+02 -0.70024310353E+01 -0.30405710619E+03  0.36295017258E+03  0.17233949927E+03 0.  0.
        -24    2    5    5    0    0 -0.13442799701E+03  0.62910793895E+01 -0.21776338490E+03  0.26808553720E+03  0.79614693335E+02 0.  0.
          5    1    3    3  502    0  0.87897504195E+02  0.41216504315E+02 -0.18437003868E+03  0.20842066269E+03  0.47000000000E+01 0. -1.
        -13    1    4    4    0    0  0.27986082111E+02 -0.52774433477E+02 -0.20207689246E+03  0.21072121889E+03  0.00000000000E+00 0.  1.
         14    1    4    4    0    0 -0.18250769571E+02  0.18560360198E+02 -0.15790425849E+03  0.16003540986E+03  0.00000000000E+00 0. -1.
         -5    1    5    5    0  501  0.36795180276E+02 -0.13293510425E+02 -0.86293721289E+02  0.94864635375E+02  0.47000000000E+01 0.  1.
         13    1    6    6    0    0 -0.54054329724E+02 -0.19620209837E+02 -0.14721385679E+03  0.15804664763E+03  0.00000000000E+00 0. -1.
        -14    1    6    6    0    0 -0.80373667287E+02  0.25911289226E+02 -0.70549528111E+02  0.11003888958E+03  0.00000000000E+00 0.  1.
</event>
<event>
12    1  0.1345781E-002  0.2492098E+03  0.7818608E-02  0.1113805E+00
         -2   -1    0    0    0  501 -0.00000000000E+00  0.00000000000E+00  0.33513584403E+02  0.33513584403E+02  0.00000000000E+00 0.  1.
          2   -1    0    0  502    0  0.00000000000E+00 -0.00000000000E+00 -0.18586646225E+04  0.18586646225E+04  0.00000000000E+00 0. -1.
          6    2    1    2  502    0  0.79537609587E+02  0.16122845948E+03 -0.85713242060E+03  0.89231697364E+03  0.17097586823E+03 0.  0.
         24    2    3    3    0    0  0.12112556383E+03  0.10968533195E+03 -0.63320449608E+03  0.65875315514E+03  0.79407249606E+02 0.  0.
         -6    2    1    2    0  501 -0.79537609587E+02 -0.16122845948E+03 -0.96801861755E+03  0.99986123331E+03  0.17418838790E+03 0.  0.
        -24    2    5    5    0    0 -0.11818674672E+03 -0.13841721930E+03 -0.86927803642E+03  0.89129834443E+03  0.75106594180E+02 0.  0.
          5    1    3    3  502    0 -0.41587954239E+02  0.51543127536E+02 -0.22392792451E+03  0.23356381850E+03  0.47000000000E+01 0. -1.
        -13    1    4    4    0    0  0.10860419726E+03  0.12251198083E+03 -0.57452750886E+03  0.59739929323E+03  0.00000000000E+00 0.  1.
         14    1    4    4    0    0  0.12521366568E+02 -0.12826648882E+02 -0.58676987219E+02  0.61353861911E+02  0.00000000000E+00 0. -1.
         -5    1    5    5    0  501  0.38649137138E+02 -0.22811240188E+02 -0.98740581126E+02  0.10856288888E+03  0.47000000000E+01 0.  1.
         13    1    6    6    0    0  0.95666873541E+01 -0.19484329369E+02 -0.75626980769E+02  0.78680371238E+02  0.00000000000E+00 0. -1.
        -14    1    6    6    0    0 -0.12775343408E+03 -0.11893288993E+03 -0.79365105565E+03  0.81261797320E+03  0.00000000000E+00 0.  1.
</event>
<event>
12    1  0.1345781E-002  0.1953959E+03  0.7818608E-02  0.1153683E+00
          2   -1    0    0  502    0  0.00000000000E+00  0.00000000000E+00  0.58523117651E+03  0.58523117651E+03  0.00000000000E+00 0.  1.
         -2   -1    0    0    0  501 -0.00000000000E+00 -0.00000000000E+00 -0.66127437503E+02  0.66127437503E+02  0.00000000000E+00 0. -1.
          6    2    1    2  502    0  0.75334191524E+01 -0.93282608951E+02  0.29710860051E+03  0.35551710144E+03  0.17134903378E+03 0.  0.
         24    2    3    3    0    0  0.24287795872E+02 -0.12353237404E+03  0.27881147790E+03  0.31611364825E+03  0.79635757904E+02 0.  0.
         -6    2    1    2    0  501 -0.75334191524E+01  0.93282608951E+02  0.22199513849E+03  0.29584151258E+03  0.17170312028E+03 0.  0.
        -24    2    5    5    0    0 -0.16451909783E+02  0.96907663914E+02  0.73690457117E+02  0.14715039308E+03  0.81001197851E+02 0.  0.
          5    1    3    3  502    0 -0.16754376720E+02  0.30249765085E+02  0.18297122609E+02  0.39403453183E+02  0.47000000000E+01 0. -1.
        -13    1    4    4    0    0 -0.49829913660E+01 -0.44498834628E+02  0.31261195822E+02  0.54609878688E+02  0.00000000000E+00 0.  1.
         14    1    4    4    0    0  0.29270787238E+02 -0.79033539409E+02  0.24755028208E+03  0.26150376956E+03  0.00000000000E+00 0. -1.
         -5    1    5    5    0  501  0.89184906306E+01 -0.36250549630E+01  0.14830468138E+03  0.14869111949E+03  0.47000000000E+01 0.  1.
         11    1    6    6    0    0 -0.11403412238E+02  0.15385321563E+01 -0.13565932715E+02  0.17788744259E+02  0.00000000000E+00 0. -1.
        -12    1    6    6    0    0 -0.50484975446E+01  0.95369131758E+02  0.87256389832E+02  0.12936164882E+03  0.00000000000E+00 0.  1.
</event>
<event>
12    1  0.1345781E-002  0.3607206E+03  0.7818608E-02  0.1058299E+00
          4   -1    0    0  502    0  0.00000000000E+00  0.00000000000E+00  0.53285720704E+03  0.53285720704E+03  0.00000000000E+00 0.  1.
         -4   -1    0    0    0  501 -0.00000000000E+00 -0.00000000000E+00 -0.25538552944E+03  0.25538552944E+03  0.00000000000E+00 0. -1.
          6    2    1    2  502    0  0.18814718886E+03  0.25837617262E+03  0.22190264619E+03  0.42508632477E+03  0.17117239225E+03 0.  0.
         24    2    3    3    0    0  0.56574090423E+02  0.63759490393E+02  0.12499053097E+03  0.17091870034E+03  0.79527787423E+02 0.  0.
         -6    2    1    2    0  501 -0.18814718886E+03 -0.25837617262E+03  0.55569031407E+02  0.36315641171E+03  0.16320861148E+03 0.  0.
        -24    2    5    5    0    0 -0.96592067835E+02 -0.76023730377E+02  0.62453265589E+02  0.15894026137E+03  0.79069343957E+02 0.  0.
          5    1    3    3  502    0  0.13157309843E+03  0.19461668223E+03  0.96912115225E+02  0.25416762443E+03  0.47000000000E+01 0. -1.
        -13    1    4    4    0    0 -0.13560624434E+02 -0.76795862519E+01  0.10297260476E+02  0.18678869167E+02  0.00000000000E+00 0.  1.
         14    1    4    4    0    0  0.70134714857E+02  0.71439076645E+02  0.11469327049E+03  0.15223983117E+03  0.00000000000E+00 0. -1.
         -5    1    5    5    0  501 -0.91555121021E+02 -0.18235244224E+03 -0.68842341816E+01  0.20421615034E+03  0.47000000000E+01 0.  1.
         13    1    6    6    0    0 -0.62772616715E+02 -0.77718205451E+02  0.15572162020E+02  0.10110891700E+03  0.00000000000E+00 0. -1.
        -14    1    6    6    0    0 -0.33819451119E+02  0.16944750734E+01  0.46881103569E+02  0.57831344370E+02  0.00000000000E+00 0.  1.
</event>
<event>
12    1  0.1345781E-002  0.3064494E+03  0.7818608E-02  0.1082060E+00
         -2   -1    0    0    0  501 -0.00000000000E+00  0.00000000000E+00  0.57278190729E+02  0.57278190729E+02  0.00000000000E+00 0. -1.
          2   -1    0    0  502    0  0.00000000000E+00 -0.00000000000E+00 -0.18885210899E+04  0.18885210899E+04  0.00000000000E+00 0.  1.
          6    2    1    2  502    0 -0.67642934806E+02 -0.24312528140E+03 -0.56279712263E+03  0.64089781177E+03  0.17413768922E+03 0.  0.
         24    2    3    3    0    0 -0.71439384030E+02 -0.15922275488E+03 -0.24432119482E+03  0.31149979481E+03  0.82968696907E+02 0.  0.
         -6    2    1    2    0  501  0.67642934806E+02  0.24312528140E+03 -0.12684457766E+04  0.13049014689E+04  0.17357328805E+03 0.  0.
        -24    2    5    5    0    0  0.53277993186E+02  0.73689181607E+02 -0.32259635881E+03  0.34387693510E+03  0.76904458479E+02 0.  0.
          5    1    3    3  502    0  0.37964492234E+01 -0.83902526518E+02 -0.31847592780E+03  0.32939801696E+03  0.47000000000E+01 0. -1.
        -13    1    4    4    0    0 -0.23703683060E+02  0.26760722234E+00 -0.51889061077E+02  0.57047443971E+02  0.00000000000E+00 0.  1.
         14    1    4    4    0    0 -0.47735700970E+02 -0.15949036210E+03 -0.19243213375E+03  0.25445235084E+03  0.00000000000E+00 0. -1.
         -5    1    5    5    0  501  0.14364941620E+02  0.16943609979E+03 -0.94584941777E+03  0.96102453380E+03  0.47000000000E+01 0.  1.
         13    1    6    6    0    0  0.29583204497E+00 -0.15168293276E+02 -0.52404189647E+02  0.54556060434E+02  0.00000000000E+00 0. -1.
        -14    1    6    6    0    0  0.52982161141E+02  0.88857474883E+02 -0.27019216916E+03  0.28932087467E+03  0.00000000000E+00 0.  1.
</event>
<event>
12    1  0.1345781E-002  0.3112863E+03  0.7818608E-02  0.1079731E+00
         -2   -1    0    0    0  501 -0.00000000000E+00  0.00000000000E+00  0.10739560762E+03  0.10739560762E+03  0.00000000000E+00 0. -1.
          2   -1    0    0  502    0  0.00000000000E+00 -0.00000000000E+00 -0.96500148870E+03  0.96500148870E+03  0.00000000000E+00 0.  1.
          6    2    1    2  502    0 -0.12907484621E+03  0.22417056146E+03 -0.56559402767E+03  0.64562451663E+03  0.17326758435E+03 0.  0.
         24    2    3    3    0    0 -0.14157015877E+02  0.15583467556E+03 -0.35843147866E+03  0.39901893530E+03  0.79108271556E+02 0.  0.
         -6    2    1    2    0  501  0.12907484621E+03 -0.22417056146E+03 -0.29201185340E+03  0.42677257970E+03  0.17306402198E+03 0.  0.
        -24    2    5    5    0    0  0.88982370189E+02 -0.15185139229E+03 -0.95167060741E+02  0.21321361533E+03  0.73665248031E+02 0.  0.
          5    1    3    3  502    0 -0.11491783033E+03  0.68335885906E+02 -0.20716254902E+03  0.24660558134E+03  0.47000000000E+01 0. -1.
        -13    1    4    4    0    0  0.29024689818E+02  0.30210727611E+02 -0.10072870256E+03  0.10909350210E+03  0.00000000000E+00 0.  1.
         14    1    4    4    0    0 -0.43181705695E+02  0.12562394794E+03 -0.25770277610E+03  0.28992543320E+03  0.00000000000E+00 0. -1.
         -5    1    5    5    0  501  0.40092476018E+02 -0.72319169174E+02 -0.19684479266E+03  0.21355896437E+03  0.47000000000E+01 0.  1.
         13    1    6    6    0    0  0.89049061238E+02 -0.12424618331E+03 -0.10323107261E+03  0.18445461156E+03  0.00000000000E+00 0. -1.
        -14    1    6    6    0    0 -0.66691048538E-01 -0.27605208979E+02  0.80640118651E+01  0.28759003770E+02  0.00000000000E+00 0.  1.
</event>
<event>
12    1  0.1345781E-002  0.1760231E+03  0.7818608E-02  0.1171708E+00
          2   -1    0    0  502    0  0.00000000000E+00  0.00000000000E+00  0.38197387070E+04  0.38197387070E+04  0.00000000000E+00 0. -1.
         -2   -1    0    0    0  501 -0.00000000000E+00 -0.00000000000E+00 -0.22720750956E+02  0.22720750956E+02  0.00000000000E+00 0.  1.
          6    2    1    2  502    0 -0.30878823319E+02  0.82354784083E+01  0.34413825274E+04  0.34459120898E+04  0.17370983139E+03 0.  0.
         24    2    3    3    0    0 -0.87006154742E+02  0.11806903475E+02  0.24196265053E+04  0.24225986035E+04  0.81744080225E+02 0.  0.
         -6    2    1    2    0  501  0.30878823319E+02 -0.82354784083E+01  0.35563542861E+03  0.39654736818E+03  0.17248748445E+03 0.  0.
        -24    2    5    5    0    0  0.66042620912E+02 -0.52460462056E+02  0.21882473820E+03  0.24845416492E+03  0.82045585886E+02 0.  0.
          5    1    3    3  502    0  0.56127331424E+02 -0.35714250664E+01  0.10217560222E+04  0.10233134863E+04  0.47000000000E+01 0. -1.
        -11    1    4    4    0    0 -0.60758016222E+02  0.33934646701E+02  0.93948005274E+03  0.94205406760E+03  0.00000000000E+00 0.  1.
         12    1    4    4    0    0 -0.26248138520E+02 -0.22127743227E+02  0.14801464526E+04  0.14805445359E+04  0.00000000000E+00 0. -1.
         -5    1    5    5    0  501 -0.35163797593E+02  0.44224983647E+02  0.13681069042E+03  0.14809320326E+03  0.47000000000E+01 0.  1.
         13    1    6    6    0    0  0.57145181302E+02 -0.79795331702E+00  0.15874176515E+03  0.16871620099E+03  0.00000000000E+00 0. -1.
        -14    1    6    6    0    0  0.88974396097E+01 -0.51662508739E+02  0.60082973050E+02  0.79737963927E+02  0.00000000000E+00 0.  1.
</event>
<event>
12    1  0.1345781E-002  0.2506766E+03  0.7818608E-02  0.1112878E+00
          1   -1    0    0  502    0  0.00000000000E+00  0.00000000000E+00  0.31420555733E+03  0.31420555733E+03  0.00000000000E+00 0. -1.
         -1   -1    0    0    0  501 -0.00000000000E+00 -0.00000000000E+00 -0.20301602526E+03  0.20301602526E+03  0.00000000000E+00 0.  1.
          6    2    1    2  502    0  0.13969450042E+03  0.11544670980E+03  0.24079239751E+02  0.25202894177E+03  0.17348279872E+03 0.  0.
         24    2    3    3    0    0  0.86557954324E+02  0.45914502547E+02 -0.50443386272E+02  0.13699011282E+03  0.81371584667E+02 0.  0.
         -6    2    1    2    0  501 -0.13969450042E+03 -0.11544670980E+03  0.87110292320E+02  0.26519264082E+03  0.17290586302E+03 0.  0.
        -24    2    5    5    0    0  0.39882476734E+01 -0.48022797340E+02  0.22685596045E+02  0.93835272841E+02  0.77254947915E+02 0.  0.
          5    1    3    3  502    0  0.53136546095E+02  0.69532207254E+02  0.74522626022E+02  0.11503882895E+03  0.47000000000E+01 0. -1.
        -11    1    4    4    0    0  0.59393318432E+02 -0.14042616234E+02 -0.30395675598E+02  0.68181070980E+02  0.00000000000E+00 0.  1.
         12    1    4    4    0    0  0.27164635892E+02  0.59957118782E+02 -0.20047710674E+02  0.68809041841E+02  0.00000000000E+00 0. -1.
         -5    1    5    5    0  501 -0.14368274809E+03 -0.67423912462E+02  0.64424696275E+02  0.17135736798E+03  0.47000000000E+01 0.  1.
         13    1    6    6    0    0 -0.22089163495E+02 -0.58787496988E+02  0.16926307190E+02  0.65041531510E+02  0.00000000000E+00 0. -1.
        -14    1    6    6    0    0  0.26077411168E+02  0.10764699649E+02  0.57592888547E+01  0.28793741331E+02  0.00000000000E+00 0.  1.
</event>
<event>
12    1  0.1345781E-002  0.2020956E+03  0.7818608E-02  0.1147983E+00
          1   -1    0    0  502    0  0.00000000000E+00  0.00000000000E+00  0.12526929535E+04  0.12526929535E+04  0.00000000000E+00 0. -1.
         -1   -1    0    0    0  501 -0.00000000000E+00 -0.00000000000E+00 -0.40656445269E+02  0.40656445269E+02  0.00000000000E+00 0.  1.
          6    2    1    2  502    0 -0.72162277418E+02 -0.73348659736E+02  0.32085386054E+03  0.37977827551E+03  0.17520536109E+03 0.  0.
         24    2    3    3    0    0 -0.20593012637E+02  0.25711766382E+02  0.10827549180E+03  0.13960331855E+03  0.81733330566E+02 0.  0.
         -6    2    1    2    0  501  0.72162277418E+02  0.73348659736E+02  0.89118264772E+03  0.91357112329E+03  0.17267966165E+03 0.  0.
        -24    2    5    5    0    0  0.10851944356E+03  0.70688749667E+02  0.81402460656E+03  0.82810550466E+03  0.79682481218E+02 0.  0.
          5    1    3    3  502    0 -0.51569264781E+02 -0.99060426118E+02  0.21257836874E+03  0.24017495696E+03  0.47000000000E+01 0. -1.
        -11    1    4    4    0    0 -0.96244509934E+01 -0.67428096422E+01 -0.10639345574E+02  0.15852167455E+02  0.00000000000E+00 0.  1.
         12    1    4    4    0    0 -0.10968561643E+02  0.32454576024E+02  0.11891483737E+03  0.12375115109E+03  0.00000000000E+00 0. -1.
         -5    1    5    5    0  501 -0.36357166143E+02  0.26599100697E+01  0.77158041162E+02  0.85465618628E+02  0.47000000000E+01 0.  1.
         13    1    6    6    0    0  0.48880476998E+02  0.36656436769E+02  0.60530947103E+03  0.60838519961E+03  0.00000000000E+00 0. -1.
        -14    1    6    6    0    0  0.59638966564E+02  0.34032312897E+02  0.20871513553E+03  0.21972030506E+03  0.00000000000E+00 0.  1.
</event>
<event>
12    1  0.1345781E-002  0.1970175E+03  0.7818608E-02  0.1152280E+00
          2   -1    0    0  502    0  0.00000000000E+00  0.00000000000E+00  0.96393338243E+03  0.96393338243E+03  0.00000000000E+00 0. -1.
         -2   -1    0    0    0  501 -0.00000000000E+00 -0.00000000000E+00 -0.48619516554E+02  0.48619516554E+02  0.00000000000E+00 0.  1.
          6    2    1    2  502    0  0.96135848909E+02  0.10878293328E+02  0.24928771901E+03  0.31821050957E+03  0.17249093554E+03 0.  0.
         24    2    3    3    0    0 -0.44895588577E+01 -0.32048580163E+02  0.13657179152E+03  0.16106357366E+03  0.79008562150E+02 0.  0.
         -6    2    1    2    0  501 -0.96135848909E+02 -0.10878293328E+02  0.66602614687E+03  0.69434238941E+03  0.17076324755E+03 0.  0.
        -24    2    5    5    0    0 -0.43757623951E+01 -0.40832162414E+02  0.43811817828E+03  0.44679182913E+03  0.77388549893E+02 0.  0.
          5    1    3    3  502    0  0.10062540777E+03  0.42926873492E+02  0.11271592750E+03  0.15714693591E+03  0.47000000000E+01 0. -1.
        -13    1    4    4    0    0 -0.17360375093E+02  0.16526986726E+02  0.12141040288E+02  0.26868732253E+02  0.00000000000E+00 0.  1.
         14    1    4    4    0    0  0.12870816235E+02 -0.48575566890E+02  0.12443075123E+03  0.13419484141E+03  0.00000000000E+00 0. -1.
         -5    1    5    5    0  501 -0.91760086514E+02  0.29953869086E+02  0.22790796859E+03  0.24755056028E+03  0.47000000000E+01 0.  1.
         11    1    6    6    0    0  0.66783552779E+00 -0.44511541094E+02  0.11072037417E+03  0.11933450695E+03  0.00000000000E+00 0. -1.
        -12    1    6    6    0    0 -0.50435979229E+01  0.36793786794E+01  0.32739780411E+03  0.32745732217E+03  0.00000000000E+00 0.  1.
</event>
<event>
12    1  0.1345781E-002  0.1867228E+03  0.7818608E-02  0.1161451E+00
         -3   -1    0    0    0  501 -0.00000000000E+00  0.00000000000E+00  0.16695956668E+03  0.16695956668E+03  0.00000000000E+00 0. -1.
          3   -1    0    0  502    0  0.00000000000E+00 -0.00000000000E+00 -0.22396142887E+03  0.22396142887E+03  0.00000000000E+00 0.  1.
          6    2    1    2  502    0 -0.50755661350E+02  0.18142183099E+02  0.20889396019E+02  0.19461409332E+03  0.18583057469E+03 0.  0.
         24    2    3    3    0    0 -0.78712149645E+02 -0.23232974720E+02  0.60970348959E+02  0.13041096481E+03  0.80958400892E+02 0.  0.
         -6    2    1    2    0  501  0.50755661350E+02 -0.18142183099E+02 -0.77891258211E+02  0.19630690222E+03  0.17194207102E+03 0.  0.
        -24    2    5    5    0    0 -0.26725672786E+01 -0.59570458255E+02 -0.93956293539E+01  0.99950175580E+02  0.79661644692E+02 0.  0.
          5    1    3    3  502    0  0.27956488295E+02  0.41375157818E+02 -0.40080952940E+02  0.64203128513E+02  0.47000000000E+01 0. -1.
        -11    1    4    4    0    0 -0.53415991379E+01 -0.39372793913E+02  0.15852811977E+02  0.42779214923E+02  0.00000000000E+00 0.  1.
         12    1    4    4    0    0 -0.73370550507E+02  0.16139819193E+02  0.45117536982E+02  0.87631749889E+02  0.00000000000E+00 0. -1.
         -5    1    5    5    0  501  0.53428228629E+02  0.41428275156E+02 -0.68495628857E+02  0.96356726643E+02  0.47000000000E+01 0.  1.
         13    1    6    6    0    0  0.33775963960E+02 -0.51965279232E+02 -0.21278390723E+01  0.62013979764E+02  0.00000000000E+00 0. -1.
        -14    1    6    6    0    0 -0.36448531238E+02 -0.76051790226E+01 -0.72677902817E+01  0.37936195816E+02  0.00000000000E+00 0.  1.
</event>
<event>
12    1  0.1345781E-002  0.3027256E+03  0.7818608E-02  0.1083886E+00
         -2   -1    0    0    0  501 -0.00000000000E+00  0.00000000000E+00  0.10781176960E+03  0.10781176960E+03  0.00000000000E+00 0.  1.
          2   -1    0    0  502    0  0.00000000000E+00 -0.00000000000E+00 -0.86496369243E+03  0.86496369243E+03  0.00000000000E+00 0. -1.
          6    2    1    2  502    0  0.64216339688E+02 -0.24077649319E+03 -0.31461010787E+03  0.43657662096E+03  0.17182132590E+03 0.  0.
         24    2    3    3    0    0  0.43243446538E+02 -0.48589397439E+02 -0.71562670649E+02  0.12598059915E+03  0.80740140701E+02 0.  0.
         -6    2    1    2    0  501 -0.64216339688E+02  0.24077649319E+03 -0.44254181496E+03  0.53619884108E+03  0.17195604449E+03 0.  0.
        -24    2    5    5    0    0 -0.74176177155E+02  0.25433254126E+03 -0.37269762742E+03  0.46420394311E+03  0.79966446166E+02 0.  0.
          5    1    3    3  502    0  0.20972893149E+02 -0.19218709575E+03 -0.24304743722E+03  0.31059602180E+03  0.47000000000E+01 0. -1.
        -13    1    4    4    0    0  0.41692035898E+02 -0.68809740185E+02 -0.68100892920E+02  0.10540748464E+03  0.00000000000E+00 0.  1.
         14    1    4    4    0    0  0.15514106405E+01  0.20220342745E+02 -0.34617777297E+01  0.20573114513E+02  0.00000000000E+00 0. -1.
         -5    1    5    5    0  501  0.99598374679E+01 -0.13556048066E+02 -0.69844187538E+02  0.71994897974E+02  0.47000000000E+01 0.  1.
         13    1    6    6    0    0 -0.32165018417E+02  0.18156079858E+03 -0.30453345157E+03  0.35600496502E+03  0.00000000000E+00 0. -1.
        -14    1    6    6    0    0 -0.42011158738E+02  0.72771742676E+02 -0.68164175850E+02  0.10819897809E+03  0.00000000000E+00 0.  1.
</event>
<event>
12    1  0.1345781E-002  0.2973215E+03  0.7818608E-02  0.1086587E+00
         -2   -1    0    0    0  501 -0.00000000000E+00  0.00000000000E+00  0.36929260565E+02  0.36929260565E+02  0.00000000000E+00 0. -1.
          2   -1    0    0  502    0  0.00000000000E+00 -0.00000000000E+00 -0.29556280363E+04  0.29556280363E+04  0.00000000000E+00 0.  1.
          6    2    1    2  502    0  0.13604314274E+03 -0.20106030946E+03 -0.80678061196E+03  0.85980640146E+03  0.17157828368E+03 0.  0.
         24    2    3    3    0    0  0.77961766205E+02 -0.58091735339E+02 -0.50591783667E+03  0.52164377928E+03  0.81894372794E+02 0.  0.
         -6    2    1    2    0  501 -0.13604314274E+03  0.20106030946E+03 -0.21119181638E+04  0.21327508954E+04  0.17174127821E+03 0.  0.
        -24    2    5    5    0    0 -0.82954004915E+02  0.10826921650E+03 -0.74248670348E+03  0.75914496285E+03  0.80068593167E+02 0.  0.
          5    1    3    3  502    0  0.58081376539E+02 -0.14296857412E+03 -0.30086277530E+03  0.33816262219E+03  0.47000000000E+01 0. -1.
        -11    1    4    4    0    0  0.84908530701E+02 -0.72152483947E+02 -0.44579351615E+03  0.45950766976E+03  0.00000000000E+00 0.  1.
         12    1    4    4    0    0 -0.69467644955E+01  0.14060748608E+02 -0.60124320517E+02  0.62136109518E+02  0.00000000000E+00 0. -1.
         -5    1    5    5    0  501 -0.53089137829E+02  0.92791092955E+02 -0.13694314603E+04  0.13736059326E+04  0.47000000000E+01 0.  1.
         11    1    6    6    0    0 -0.11498331413E+02  0.62709930955E+02 -0.45445598230E+03  0.45890629426E+03  0.00000000000E+00 0. -1.
        -12    1    6    6    0    0 -0.71455673502E+02  0.45559285547E+02 -0.28803072118E+03  0.30023866859E+03  0.00000000000E+00 0.  1.
</event>
<event>
12    1  0.1345781E-002  0.2059053E+03  0.7818608E-02  0.1144850E+00
         -1   -1    0    0    0  501 -0.00000000000E+00  0.00000000000E+00  0.11771335428E+03  0.11771335428E+03  0.00000000000E+00 0.  1.
          1   -1    0    0  502    0  0.00000000000E+00 -0.00000000000E+00 -0.36184411007E+03  0.36184411007E+03  0.00000000000E+00 0. -1.
          6    2    1    2  502    0  0.30446147404E+02  0.11074476181E+03 -0.13784055038E+03  0.24708507372E+03  0.16988127080E+03 0.  0.
         24    2    3    3    0    0 -0.45381655839E+02  0.32031011215E+02 -0.64265999289E+02  0.11524799682E+03  0.77887750904E+02 0.  0.
         -6    2    1    2    0  501 -0.30446147404E+02 -0.11074476181E+03 -0.10629020542E+03  0.23247239063E+03  0.17191403223E+03 0.  0.
        -24    2    5    5    0    0 -0.46348707942E+02 -0.12061710993E+03 -0.13148135397E+03  0.20073851827E+03  0.79447569762E+02 0.  0.
          5    1    3    3  502    0  0.75827803243E+02  0.78713750593E+02 -0.73574551086E+02  0.13183707690E+03  0.47000000000E+01 0. -1.
        -13    1    4    4    0    0 -0.35077906175E+02  0.23858514215E+02  0.68097216213E+01  0.42965806296E+02  0.00000000000E+00 0.  1.
         14    1    4    4    0    0 -0.10303749664E+02  0.81724970004E+01 -0.71075720910E+02  0.72282190526E+02  0.00000000000E+00 0. -1.
         -5    1    5    5    0  501  0.15902560538E+02  0.98723481217E+01  0.25191148555E+02  0.31733872355E+02  0.47000000000E+01 0.  1.
         13    1    6    6    0    0  0.14683480419E+02 -0.53818338957E+02 -0.25358565306E+02  0.61278667085E+02  0.00000000000E+00 0. -1.
        -14    1    6    6    0    0 -0.61032188361E+02 -0.66798770972E+02 -0.10612278867E+03  0.13945985119E+03  0.00000000000E+00 0.  1.
</event>
<event>
12    1  0.1345781E-002  0.1747960E+03  0.7818608E-02  0.1172937E+00
         -2   -1    0    0    0  501 -0.00000000000E+00  0.00000000000E+00  0.60112847159E+02  0.60112847159E+02  0.00000000000E+00 0.  1.
          2   -1    0    0  502    0  0.00000000000E+00 -0.00000000000E+00 -0.71082328236E+03  0.71082328236E+03  0.00000000000E+00 0. -1.
          6    2    1    2  502    0  0.19057372082E+02  0.21719328938E+02 -0.12012471605E+03  0.21242496260E+03  0.17279902966E+03 0.  0.
         24    2    3    3    0    0 -0.41234741935E+02  0.55461933566E+02 -0.76114273016E+02  0.13037186104E+03  0.80169255811E+02 0.  0.
         -6    2    1    2    0  501 -0.19057372082E+02 -0.21719328938E+02 -0.53058571915E+03  0.55851116692E+03  0.17198431767E+03 0.  0.
        -24    2    5    5    0    0 -0.25717691704E+02 -0.72510331915E+02 -0.44593187827E+03  0.45945336249E+03  0.79517321066E+02 0.  0.
          5    1    3    3  502    0  0.60292114017E+02 -0.33742604628E+02 -0.44010443034E+02  0.82053101561E+02  0.47000000000E+01 0. -1.
        -11    1    4    4    0    0 -0.10902120757E+00 -0.85557894154E+00  0.15339720024E+02  0.15363948430E+02  0.00000000000E+00 0.  1.
         12    1    4    4    0    0 -0.41125720727E+02  0.56317512507E+02 -0.91453993040E+02  0.11500791261E+03  0.00000000000E+00 0. -1.
         -5    1    5    5    0  501  0.66603196214E+01  0.50791002978E+02 -0.84653840885E+02  0.99057804425E+02  0.47000000000E+01 0.  1.
         11    1    6    6    0    0  0.21772291450E+02 -0.40832320478E+02 -0.12103043965E+03  0.12957499138E+03  0.00000000000E+00 0. -1.
        -12    1    6    6    0    0 -0.47489983154E+02 -0.31678011437E+02 -0.32490143862E+03  0.32987837111E+03  0.00000000000E+00 0.  1.
</event>
<event>
12    1  0.1345781E-002  0.1943923E+03  0.7818608E-02  0.1154558E+00
         -2   -1    0    0    0  501 -0.00000000000E+00  0.00000000000E+00  0.81039082960E+02  0.81039082960E+02  0.00000000000E+00 0.  1.
          2   -1    0    0  502    0  0.00000000000E+00 -0.00000000000E+00 -0.11805608178E+04  0.11805608178E+04  0.00000000000E+00 0. -1.
          6    2    1    2  502    0 -0.67295030040E+02  0.57887713285E+02 -0.10399326956E+04  0.10578662278E+04  0.17245676584E+03 0.  0.
         24    2    3    3    0    0 -0.58483137459E+02 -0.12171365804E+01 -0.30197809947E+03  0.31748111943E+03  0.78623977528E+02 0.  0.
         -6    2    1    2    0  501  0.67295030040E+02 -0.57887713285E+02 -0.59589039277E+02  0.20373367302E+03  0.17342706681E+03 0.  0.
        -24    2    5    5    0    0  0.58122906751E+02 -0.21649470154E+02 -0.10477811878E+03  0.14489932066E+03  0.78551811588E+02 0.  0.
          5    1    3    3  502    0 -0.88118925803E+01  0.59104849865E+02 -0.73795459613E+03  0.74038510836E+03  0.47000000000E+01 0. -1.
        -11    1    4    4    0    0 -0.67689881881E+02  0.22133094350E+02 -0.19499195810E+03  0.20759011946E+03  0.00000000000E+00 0.  1.
         12    1    4    4    0    0  0.92067444214E+01 -0.23350230930E+02 -0.10698614137E+03  0.10989099996E+03  0.00000000000E+00 0. -1.
         -5    1    5    5    0  501  0.91721232887E+01 -0.36238243131E+02  0.45189079507E+02  0.58834352359E+02  0.47000000000E+01 0.  1.
         13    1    6    6    0    0  0.34547820448E+02 -0.50790304244E+02 -0.75532689241E+02  0.97357044156E+02  0.00000000000E+00 0. -1.
        -14    1    6    6    0    0  0.23575086303E+02  0.29140834090E+02 -0.29245429543E+02  0.47542276500E+02  0.00000000000E+00 0.  1.
</event>
<event>
12    1  0.1345781E-002  0.1745002E+03  0.7818608E-02  0.1173235E+00
          2   -1    0    0  502    0  0.00000000000E+00  0.00000000000E+00  0.23273083334E+04  0.23273083334E+04  0.00000000000E+00 0. -1.
         -2   -1    0    0    0  501 -0.00000000000E+00 -0.00000000000E+00 -0.19594811104E+02  0.19594811104E+02  0.00000000000E+00 0.  1.
          6    2    1    2  502    0  0.59486314663E+00  0.27033168928E+02  0.18255843516E+04  0.18338055089E+04  0.17132797119E+03 0.  0.
         24    2    3    3    0    0 -0.34392747717E+02  0.21586585970E+02  0.17177814057E+04  0.17202389499E+04  0.82463599802E+02 0.  0.
         -6    2    1    2    0  501 -0.59486314663E+00 -0.27033168928E+02  0.48212917079E+03  0.51309763566E+03  0.17346325349E+03 0.  0.
        -24    2    5    5    0    0  0.60239923475E+02 -0.39155246848E+02  0.36644794415E+03  0.38175056781E+03  0.79293243821E+02 0.  0.
          5    1    3    3  502    0  0.34987610863E+02  0.54465829582E+01  0.10780294587E+03  0.11356655898E+03  0.47000000000E+01 0. -1.
        -11    1    4    4    0    0 -0.35663877957E+01 -0.28614416345E+02  0.83274848034E+03  0.83324758353E+03  0.00000000000E+00 0.  1.
         12    1    4    4    0    0 -0.30826359921E+02  0.50201002315E+02  0.88503292534E+03  0.88699136638E+03  0.00000000000E+00 0. -1.
         -5    1    5    5    0  501 -0.60834786622E+02  0.12122077919E+02  0.11568122664E+03  0.13134706786E+03  0.47000000000E+01 0.  1.
         13    1    6    6    0    0  0.59219386441E+02  0.48257445738E+01  0.16020816957E+03  0.17087094879E+03  0.00000000000E+00 0. -1.
        -14    1    6    6    0    0  0.10205370348E+01 -0.43980991421E+02  0.20623977457E+03  0.21087961902E+03  0.00000000000E+00 0.  1.
</event>
<event>
12    1  0.1345781E-002  0.1815984E+03  0.7818608E-02  0.1166265E+00
         -2   -1    0    0    0  501 -0.00000000000E+00  0.00000000000E+00  0.29157257334E+02  0.29157257334E+02  0.00000000000E+00 0.  1.
          2   -1    0    0  502    0  0.00000000000E+00 -0.00000000000E+00 -0.12700504206E+04  0.12700504206E+04  0.00000000000E+00 0. -1.
          6    2    1    2  502    0 -0.51173199776E+02  0.15846789926E+02 -0.40200012751E+03  0.44063400348E+03  0.17229162887E+03 0.  0.
         24    2    3    3    0    0 -0.53859665358E+02  0.70462458570E+02 -0.21692573512E+03  0.24759331068E+03  0.79873971451E+02 0.  0.
         -6    2    1    2    0  501  0.51173199776E+02 -0.15846789926E+02 -0.83889303571E+03  0.85857367441E+03  0.17474956909E+03 0.  0.
        -24    2    5    5    0    0  0.17569871800E+02 -0.73647690320E+02 -0.61754226295E+03  0.62729811941E+03  0.80073724801E+02 0.  0.
          5    1    3    3  502    0  0.26864655820E+01 -0.54615668644E+02 -0.18507439239E+03  0.19304069281E+03  0.47000000000E+01 0. -1.
        -13    1    4    4    0    0 -0.26634452609E+02  0.26896855602E+02 -0.17582894223E+02  0.41737190566E+02  0.00000000000E+00 0.  1.
         14    1    4    4    0    0 -0.27225212749E+02  0.43565602968E+02 -0.19934284089E+03  0.20585612011E+03  0.00000000000E+00 0. -1.
         -5    1    5    5    0  501  0.33603327976E+02  0.57800900395E+02 -0.22135077276E+03  0.23127555499E+03  0.47000000000E+01 0.  1.
         13    1    6    6    0    0  0.31750437512E+02 -0.39153829811E+00 -0.26839783682E+03  0.27026957357E+03  0.00000000000E+00 0. -1.
        -14    1    6    6    0    0 -0.14180565711E+02 -0.73256152022E+02 -0.34914442613E+03  0.35702854585E+03  0.00000000000E+00 0.  1.
</event>
<event>
12    1  0.1345781E-002  0.1830847E+03  0.7818608E-02  0.1164851E+00
          2   -1    0    0  502    0  0.00000000000E+00  0.00000000000E+00  0.65177683951E+03  0.65177683951E+03  0.00000000000E+00 0. -1.
         -2   -1    0    0    0  501 -0.00000000000E+00 -0.00000000000E+00 -0.55008656167E+02  0.55008656167E+02  0.00000000000E+00 0.  1.
          6    2    1    2  502    0  0.37207569398E+02  0.42708826923E+02  0.38869312449E+03  0.42969727872E+03  0.17420952670E+03 0.  0.
         24    2    3    3    0    0  0.64139278237E+02 -0.21358853476E+02  0.16267377077E+03  0.19318761112E+03  0.79301007290E+02 0.  0.
         -6    2    1    2    0  501 -0.37207569398E+02 -0.42708826923E+02  0.20807505885E+03  0.27708821696E+03  0.17399483539E+03 0.  0.
        -24    2    5    5    0    0 -0.61895509121E+02  0.25898303647E+02  0.15217773928E+03  0.18509347218E+03  0.81238863406E+02 0.  0.
          5    1    3    3  502    0 -0.26931708839E+02  0.64067680399E+02  0.22601935372E+03  0.23650966760E+03  0.47000000000E+01 0. -1.
        -13    1    4    4    0    0  0.12506741102E+02  0.13692752012E+02 -0.43296857912E+00  0.18549865025E+02  0.00000000000E+00 0.  1.
         14    1    4    4    0    0  0.51632537135E+02 -0.35051605487E+02  0.16310673935E+03  0.17463774609E+03  0.00000000000E+00 0. -1.
         -5    1    5    5    0  501  0.24687939723E+02 -0.68607130570E+02  0.55897319568E+02  0.91994744783E+02  0.47000000000E+01 0.  1.
         11    1    6    6    0    0 -0.21454453582E+02 -0.27312084057E+02  0.77195739083E+02  0.84648837243E+02  0.00000000000E+00 0. -1.
        -12    1    6    6    0    0 -0.40441055539E+02  0.53210387704E+02  0.74982000200E+02  0.10044463493E+03  0.00000000000E+00 0.  1.
</event>
<event>
12    1  0.1345781E-002  0.2297476E+03  0.7818608E-02  0.1126818E+00
         -2   -1    0    0    0  501 -0.00000000000E+00  0.00000000000E+00  0.78259333871E+02  0.78259333871E+02  0.00000000000E+00 0. -1.
          2   -1    0    0  502    0  0.00000000000E+00 -0.00000000000E+00 -0.67647222874E+03  0.67647222874E+03  0.00000000000E+00 0.  1.
          6    2    1    2  502    0  0.15260723429E+03  0.30902499699E+01 -0.27922434736E+03  0.36189192589E+03  0.17233981625E+03 0.  0.
         24    2    3    3    0    0  0.68797300674E+02 -0.57437364247E+02 -0.20448618849E+03  0.23423778594E+03  0.70856331308E+02 0.  0.
         -6    2    1    2    0  501 -0.15260723429E+03 -0.30902499699E+01 -0.31898854751E+03  0.39283963672E+03  0.17108702209E+03 0.  0.
        -24    2    5    5    0    0 -0.13727665291E+02 -0.61987632744E+01 -0.17261026363E+03  0.19098352575E+03  0.80333869186E+02 0.  0.
          5    1    3    3  502    0  0.83809933620E+02  0.60527614217E+02 -0.74738158863E+02  0.12765413995E+03  0.47000000000E+01 0. -1.
        -13    1    4    4    0    0  0.43237665589E+02 -0.68118334762E+01 -0.14743314807E+03  0.15379346524E+03  0.00000000000E+00 0.  1.
         14    1    4    4    0    0  0.25559635085E+02 -0.50625530771E+02 -0.57053040427E+02  0.80444320704E+02  0.00000000000E+00 0. -1.
         -5    1    5    5    0  501 -0.13887956900E+03  0.31085133045E+01 -0.14637828388E+03  0.20185611096E+03  0.47000000000E+01 0.  1.
         13    1    6    6    0    0 -0.23178622189E+02  0.44575285839E+01 -0.68010241631E+01  0.24563632006E+02  0.00000000000E+00 0. -1.
        -14    1    6    6    0    0  0.94509568980E+01 -0.10656291858E+02 -0.16580923947E+03  0.16641989375E+03  0.00000000000E+00 0.  1.
</event>
<event>
12    1  0.1345781E-002  0.2502048E+03  0.7818608E-02  0.1113175E+00
         -2   -1    0    0    0  501 -0.00000000000E+00  0.00000000000E+00  0.72643353509E+02  0.72643353509E+02  0.00000000000E+00 0. -1.
          2   -1    0    0  502    0  0.00000000000E+00 -0.00000000000E+00 -0.87198014455E+03  0.87198014455E+03  0.00000000000E+00 0.  1.
          6    2    1    2  502    0  0.17661206988E+03 -0.48442094446E+02 -0.34697565185E+03  0.42717244193E+03  0.16895482363E+03 0.  0.
         24    2    3    3    0    0  0.11770902596E+03 -0.89803218099E+02 -0.29020217962E+03  0.33538122078E+03  0.79644368411E+02 0.  0.
         -6    2    1    2    0  501 -0.17661206988E+03  0.48442094446E+02 -0.45236113920E+03  0.51745105613E+03  0.17200737046E+03 0.  0.
        -24    2    5    5    0    0 -0.24840218627E+02  0.25444751814E+02 -0.97301068942E+02  0.13060054742E+03  0.79526933251E+02 0.  0.
          5    1    3    3  502    0  0.58903043916E+02  0.41361123652E+02 -0.56773472230E+02  0.91791221157E+02  0.47000000000E+01 0. -1.
        -11    1    4    4    0    0  0.12414933560E+03 -0.61302233709E+02 -0.24833273719E+03  0.28432405763E+03  0.00000000000E+00 0.  1.
         12    1    4    4    0    0 -0.64403096311E+01 -0.28500984390E+02 -0.41869442429E+02  0.51057163147E+02  0.00000000000E+00 0. -1.
         -5    1    5    5    0  501 -0.15177185125E+03  0.22997342633E+02 -0.35506007026E+03  0.38685050871E+03  0.47000000000E+01 0.  1.
         11    1    6    6    0    0 -0.13442407862E+02 -0.93702335393E+01  0.86260433959E+01  0.18517781465E+02  0.00000000000E+00 0. -1.
        -12    1    6    6    0    0 -0.11397810765E+02  0.34814985353E+02 -0.10592711234E+03  0.11208276595E+03  0.00000000000E+00 0.  1.
</event>
<event>
12    1  0.1345781E-002  0.1926922E+03  0.7818608E-02  0.1156055E+00
         -1   -1    0    0    0  501 -0.00000000000E+00  0.00000000000E+00  0.93221576055E+02  0.93221576055E+02  0.00000000000E+00 0. -1.
          1   -1    0    0  502    0  0.00000000000E+00 -0.00000000000E+00 -0.42873296924E+03  0.42873296924E+03  0.00000000000E+00 0.  1.
          6    2    1    2  502    0  0.62121704196E+02 -0.58585952164E+02 -0.23663460840E+03  0.30466591800E+03  0.17185448431E+03 0.  0.
         24    2    3    3    0    0  0.20049868260E+02 -0.10073087511E+03 -0.13787798033E+03  0.18924843451E+03  0.79094412487E+02 0.  0.
         -6    2    1    2    0  501 -0.62121704196E+02  0.58585952164E+02 -0.98876784783E+02  0.21728862729E+03  0.17362692492E+03 0.  0.
        -24    2    5    5    0    0  0.21815064187E+02  0.15317631080E+02 -0.42948326168E+01  0.83552452781E+02  0.79069842108E+02 0.  0.
          5    1    3    3  502    0  0.42071835935E+02  0.42144922945E+02 -0.98756628064E+02  0.11541748349E+03  0.47000000000E+01 0. -1.
        -13    1    4    4    0    0  0.46732883061E+02 -0.75562924531E+02 -0.11743251863E+03  0.14725526936E+03  0.00000000000E+00 0.  1.
         14    1    4    4    0    0 -0.26683014801E+02 -0.25167950579E+02 -0.20445461708E+02  0.41993165154E+02  0.00000000000E+00 0. -1.
         -5    1    5    5    0  501 -0.83936768383E+02  0.43268321084E+02 -0.94581952166E+02  0.13373617451E+03  0.47000000000E+01 0.  1.
         13    1    6    6    0    0  0.15592487857E+02 -0.14300878469E+02  0.30700769400E+02  0.37285091448E+02  0.00000000000E+00 0. -1.
        -14    1    6    6    0    0  0.62225763303E+01  0.29618509549E+02 -0.34995602017E+02  0.46267361332E+02  0.00000000000E+00 0.  1.
</event>
<event>
12    1  0.1345781E-002  0.2034284E+03  0.7818608E-02  0.1146878E+00
          2   -1    0    0  502    0  0.00000000000E+00  0.00000000000E+00  0.12022480293E+03  0.12022480293E+03  0.00000000000E+00 0.  1.
         -2   -1    0    0    0  501 -0.00000000000E+00 -0.00000000000E+00 -0.38121099790E+03  0.38121099790E+03  0.00000000000E+00 0. -1.
          6    2    1    2  502    0  0.55394937930E+02  0.94319174615E+02 -0.53059132167E+02  0.21133872822E+03  0.17287012665E+03 0.  0.
         24    2    3    3    0    0  0.74823770939E+02  0.87511903722E+02 -0.91814623154E+02  0.16720374696E+03  0.79184834288E+02 0.  0.
         -6    2    1    2    0  501 -0.55394937930E+02 -0.94319174615E+02 -0.20792706280E+03  0.29009707261E+03  0.17017033303E+03 0.  0.
        -24    2    5    5    0    0 -0.22564360557E+02 -0.10055695420E+02 -0.17597275072E+03  0.19406921833E+03  0.78014005987E+02 0.  0.
          5    1    3    3  502    0 -0.19428833008E+02  0.68072708926E+01  0.38755490987E+02  0.44134981259E+02  0.47000000000E+01 0. -1.
        -13    1    4    4    0    0  0.35175050565E+02  0.26384422604E+02  0.69037662761E+01  0.44509368982E+02  0.00000000000E+00 0.  1.
         14    1    4    4    0    0  0.39648720374E+02  0.61127481118E+02 -0.98718389430E+02  0.12269437798E+03  0.00000000000E+00 0. -1.
         -5    1    5    5    0  501 -0.32830577373E+02 -0.84263479194E+02 -0.31954312085E+02  0.96027854279E+02  0.47000000000E+01 0.  1.
         13    1    6    6    0    0 -0.15088932657E+02 -0.44290458909E+02 -0.10037698984E+03  0.11074683169E+03  0.00000000000E+00 0. -1.
        -14    1    6    6    0    0 -0.74754279001E+01  0.34234763488E+02 -0.75595760876E+02  0.83322386643E+02  0.00000000000E+00 0.  1.
</event>
<event>
12    1  0.1345781E-002  0.2351570E+03  0.7818608E-02  0.1123062E+00
         -1   -1    0    0    0  501 -0.00000000000E+00  0.00000000000E+00  0.88703306336E+02  0.88703306336E+02  0.00000000000E+00 0. -1.
          1   -1    0    0  502    0  0.00000000000E+00 -0.00000000000E+00 -0.10729475350E+04  0.10729475350E+04  0.00000000000E+00 0.  1.
          6    2    1    2  502    0 -0.15667823851E+03 -0.17647604863E+02 -0.86643861904E+03  0.89743439587E+03  0.17266472120E+03 0.  0.
         24    2    3    3    0    0 -0.97622954801E+02  0.55037918219E+02 -0.44762294136E+03  0.46824985086E+03  0.79575193736E+02 0.  0.
         -6    2    1    2    0  501  0.15667823851E+03  0.17647604863E+02 -0.11780560961E+03  0.26421644546E+03  0.17627438842E+03 0.  0.
        -24    2    5    5    0    0  0.18268717456E+02 -0.25720974446E+02 -0.12963484198E+02  0.85185748502E+02  0.78059241998E+02 0.  0.
          5    1    3    3  502    0 -0.59055283711E+02 -0.72685523083E+02 -0.41881567768E+03  0.42918454500E+03  0.47000000000E+01 0. -1.
        -11    1    4    4    0    0  0.14122755975E+01  0.23613964678E+02 -0.17334393355E+03  0.17495065918E+03  0.00000000000E+00 0.  1.
         12    1    4    4    0    0 -0.99035230398E+02  0.31423953542E+02 -0.27427900781E+03  0.29329919168E+03  0.00000000000E+00 0. -1.
         -5    1    5    5    0  501  0.13840952106E+03  0.43368579309E+02 -0.10484212542E+03  0.17903069695E+03  0.47000000000E+01 0.  1.
         11    1    6    6    0    0  0.18349409800E+01  0.10729005404E+02  0.26720240023E+02  0.28852206021E+02  0.00000000000E+00 0. -1.
        -12    1    6    6    0    0  0.16433776476E+02 -0.36449979850E+02 -0.39683724221E+02  0.56333542481E+02  0.00000000000E+00 0.  1.
</event>
<event>
12    1  0.1345781E-002  0.2006660E+03  0.7818608E-02  0.1149178E+00
          2   -1    0    0  502    0  0.00000000000E+00  0.00000000000E+00  0.11315312278E+03  0.11315312278E+03  0.00000000000E+00 0.  1.
         -2   -1    0    0    0  501 -0.00000000000E+00 -0.00000000000E+00 -0.35588046225E+03  0.35588046225E+03  0.00000000000E+00 0. -1.
          6    2    1    2  502    0  0.10226086596E+03 -0.82511756506E+01 -0.11990119037E+03  0.23260345165E+03  0.17088798571E+03 0.  0.
         24    2    3    3    0    0  0.34951893433E+02  0.45075301478E+02 -0.94198128122E+02  0.14284294611E+03  0.90980230014E+02 0.  0.
         -6    2    1    2    0  501 -0.10226086596E+03  0.82511756506E+01 -0.12282614909E+03  0.23643013338E+03  0.17403326827E+03 0.  0.
        -24    2    5    5    0    0 -0.65777077872E+02  0.45267241701E+02 -0.10887107787E+02  0.11292428369E+03  0.79105104684E+02 0.  0.
          5    1    3    3  502    0  0.67308972530E+02 -0.53326477129E+02 -0.25703062251E+02  0.89760505542E+02  0.47000000000E+01 0. -1.
        -13    1    4    4    0    0 -0.28318643834E+02  0.46378702542E+01 -0.43963349204E+02  0.52499823831E+02  0.00000000000E+00 0.  1.
         14    1    4    4    0    0  0.63270537266E+02  0.40437431224E+02 -0.50234778918E+02  0.90343122278E+02  0.00000000000E+00 0. -1.
         -5    1    5    5    0  501 -0.36483788091E+02 -0.37016066050E+02 -0.11193904130E+03  0.12350584969E+03  0.47000000000E+01 0.  1.
         11    1    6    6    0    0 -0.29468106255E+02 -0.59709357933E+01 -0.34562932190E+02  0.45810671705E+02  0.00000000000E+00 0. -1.
        -12    1    6    6    0    0 -0.36308971617E+02  0.51238177494E+02  0.23675824404E+02  0.67113611988E+02  0.00000000000E+00 0.  1.
</event>
<event>
12    1  0.1345781E-002  0.2391851E+03  0.7818608E-02  0.1120337E+00
          2   -1    0    0  502    0  0.00000000000E+00  0.00000000000E+00  0.62008198292E+03  0.62008198292E+03  0.00000000000E+00 0.  1.
         -2   -1    0    0    0  501 -0.00000000000E+00 -0.00000000000E+00 -0.92610674755E+02  0.92610674755E+02  0.00000000000E+00 0. -1.
          6    2    1    2  502    0  0.16052646958E+03  0.40022246606E+02  0.24180809459E+03  0.34009492361E+03  0.17269300737E+03 0.  0.
         24    2    3    3    0    0  0.67635809800E+02 -0.45191941791E+02  0.11952872331E+03  0.16441206383E+03  0.78277050699E+02 0.  0.
         -6    2    1    2    0  501 -0.16052646958E+03 -0.40022246606E+02  0.28566321357E+03  0.37259773406E+03  0.17278620368E+03 0.  0.
        -24    2    5    5    0    0 -0.66518603846E+02 -0.87146483484E+02  0.14459039722E+03  0.19658125179E+03  0.75621236059E+02 0.  0.
          5    1    3    3  502    0  0.92890659784E+02  0.85214188397E+02  0.12227937128E+03  0.17568285978E+03  0.47000000000E+01 0. -1.
        -13    1    4    4    0    0 -0.12487777221E+01 -0.39267148862E+02  0.66660202341E+02  0.77376036353E+02  0.00000000000E+00 0.  1.
         14    1    4    4    0    0  0.68884587522E+02 -0.59247929287E+01  0.52868520970E+02  0.87036027476E+02  0.00000000000E+00 0. -1.
         -5    1    5    5    0  501 -0.94007865738E+02  0.47124236877E+02  0.14107281634E+03  0.17601648228E+03  0.47000000000E+01 0.  1.
         11    1    6    6    0    0 -0.28874856579E+02 -0.77507726070E+02  0.13192819575E+03  0.15571208616E+03  0.00000000000E+00 0. -1.
        -12    1    6    6    0    0 -0.37643747267E+02 -0.96387574137E+01  0.12662201478E+02  0.40869165627E+02  0.00000000000E+00 0.  1.
</event>
<event>
12    1  0.1345781E-002  0.2204367E+03  0.7818608E-02  0.1133558E+00
          4   -1    0    0  502    0  0.00000000000E+00  0.00000000000E+00  0.25414520885E+03  0.25414520885E+03  0.00000000000E+00 0. -1.
         -4   -1    0    0    0  501 -0.00000000000E+00 -0.00000000000E+00 -0.19147290864E+03  0.19147290864E+03  0.00000000000E+00 0.  1.
          6    2    1    2  502    0  0.28719909309E+01 -0.13704543086E+03  0.22904171408E+02  0.22157713359E+03  0.17257498838E+03 0.  0.
         24    2    3    3    0    0  0.41569020238E+02 -0.75496616321E+02 -0.41366438412E+02  0.12442509844E+03  0.79641072163E+02 0.  0.
         -6    2    1    2    0  501 -0.28719909309E+01  0.13704543086E+03  0.39768128794E+02  0.22404098390E+03  0.17269383298E+03 0.  0.
        -24    2    5    5    0    0  0.52174151732E+01  0.16223327768E+03  0.52504234911E+01  0.18029823480E+03  0.78313656012E+02 0.  0.
          5    1    3    3  502    0 -0.38697029307E+02 -0.61548814535E+02  0.64270609820E+02  0.97152035153E+02  0.47000000000E+01 0. -1.
        -11    1    4    4    0    0  0.36445581270E+02 -0.87538408909E+02 -0.16390430580E+02  0.96228372339E+02  0.00000000000E+00 0.  1.
         12    1    4    4    0    0  0.51234389681E+01  0.12041792588E+02 -0.24976007832E+02  0.28196726101E+02  0.00000000000E+00 0. -1.
         -5    1    5    5    0  501 -0.80894061041E+01 -0.25187846827E+02  0.34517705303E+02  0.43742749093E+02  0.47000000000E+01 0.  1.
         11    1    6    6    0    0 -0.12516702926E+02  0.11138190805E+03  0.36693129190E+02  0.11793635157E+03  0.00000000000E+00 0. -1.
        -12    1    6    6    0    0  0.17734118099E+02  0.50851369632E+02 -0.31442705699E+02  0.62361883229E+02  0.00000000000E+00 0.  1.
</event>
<event>
12    1  0.1345781E-002  0.2705322E+03  0.7818608E-02  0.1100975E+00
         -2   -1    0    0    0  501 -0.00000000000E+00  0.00000000000E+00  0.48812569108E+02  0.48812569108E+02  0.00000000000E+00 0. -1.
          2   -1    0    0  502    0  0.00000000000E+00 -0.00000000000E+00 -0.16575668370E+04  0.16575668370E+04  0.00000000000E+00 0.  1.
          6    2    1    2  502    0 -0.17076767221E+03  0.11133205017E+03 -0.10610534130E+04  0.10943805891E+04  0.17400604934E+03 0.  0.
         24    2    3    3    0    0 -0.15534005428E+03  0.21736773729E+02 -0.75270833409E+03  0.77287770782E+03  0.78530855381E+02 0.  0.
         -6    2    1    2    0  501  0.17076767221E+03 -0.11133205017E+03 -0.54770085484E+03  0.61199881699E+03  0.18168627451E+03 0.  0.
        -24    2    5    5    0    0  0.13647809255E+03 -0.12777835321E+03 -0.30270455378E+03  0.36402395196E+03  0.77005281807E+02 0.  0.
          5    1    3    3  502    0 -0.15427617925E+02  0.89595276439E+02 -0.30834507892E+03  0.32150288124E+03  0.47000000000E+01 0. -1.
        -11    1    4    4    0    0 -0.91356195501E+00  0.20403443621E+02 -0.10962483656E+03  0.11151116490E+03  0.00000000000E+00 0.  1.
         12    1    4    4    0    0 -0.15442649233E+03  0.13333301086E+01 -0.64308349753E+03  0.66136654292E+03  0.00000000000E+00 0. -1.
         -5    1    5    5    0  501  0.34289579657E+02  0.16446303041E+02 -0.24499630105E+03  0.24797486503E+03  0.47000000000E+01 0.  1.
         11    1    6    6    0    0  0.71975846738E+02 -0.11541858021E+03 -0.19190174067E+03  0.23521957666E+03  0.00000000000E+00 0. -1.
        -12    1    6    6    0    0  0.64502245811E+02 -0.12359772997E+02 -0.11080281311E+03  0.12880437530E+03  0.00000000000E+00 0.  1.
</event>
<event>
12    1  0.1345781E-002  0.1866336E+03  0.7818608E-02  0.1161533E+00
          1   -1    0    0  502    0  0.00000000000E+00  0.00000000000E+00  0.57073387668E+02  0.57073387668E+02  0.00000000000E+00 0. -1.
         -1   -1    0    0    0  501 -0.00000000000E+00 -0.00000000000E+00 -0.65494555983E+03  0.65494555983E+03  0.00000000000E+00 0.  1.
          6    2    1    2  502    0 -0.63376077209E+02  0.35828325700E+02 -0.20582427119E+03  0.27776634856E+03  0.17172745178E+03 0.  0.
         24    2    3    3    0    0 -0.31913253015E+02 -0.33748732774E+02 -0.52787772734E+02  0.10667240877E+03  0.80218583639E+02 0.  0.
         -6    2    1    2    0  501  0.63376077209E+02 -0.35828325700E+02 -0.39204790097E+03  0.43425259894E+03  0.17196966868E+03 0.  0.
        -24    2    5    5    0    0  0.97573002426E+02 -0.34416888753E+02 -0.37043189294E+03  0.39350013089E+03  0.83171826198E+02 0.  0.
          5    1    3    3  502    0 -0.31462824193E+02  0.69577058474E+02 -0.15303649846E+03  0.17109393979E+03  0.47000000000E+01 0. -1.
        -11    1    4    4    0    0 -0.37141037389E+02  0.93723922289E+01 -0.50217877790E+02  0.63159588695E+02  0.00000000000E+00 0.  1.
         12    1    4    4    0    0  0.52277843740E+01 -0.43121125003E+02 -0.25698949438E+01  0.43512820076E+02  0.00000000000E+00 0. -1.
         -5    1    5    5    0  501 -0.34196925217E+02 -0.14114369468E+01 -0.21616008032E+02  0.40752468046E+02  0.47000000000E+01 0.  1.
         13    1    6    6    0    0  0.26336767886E+02 -0.40384203689E+02 -0.72182481698E+02  0.86803340456E+02  0.00000000000E+00 0. -1.
        -14    1    6    6    0    0  0.71236234540E+02  0.59673149361E+01 -0.29824941124E+03  0.30669679044E+03  0.00000000000E+00 0.  1.
</event>
<event>
12    1  0.1345781E-002  0.2069611E+03  0.7818608E-02  0.1143995E+00
          2   -1    0    0  502    0  0.00000000000E+00  0.00000000000E+00  0.14051555770E+04  0.14051555770E+04  0.00000000000E+00 0.  1.
         -2   -1    0    0    0  501 -0.00000000000E+00 -0.00000000000E+00 -0.78514593918E+02  0.78514593918E+02  0.00000000000E+00 0. -1.
          6    2    1    2  502    0  0.33142956704E+01  0.11908103518E+03  0.80630779334E+02  0.22025769370E+03  0.16679583797E+03 0.  0.
         24    2    3    3    0    0  0.58332774748E+02  0.88819253284E+02  0.16484988034E+02  0.13037120403E+03  0.73711082248E+02 0.  0.
         -6    2    1    2    0  501 -0.33142956704E+01 -0.11908103518E+03  0.12460102037E+04  0.12634124772E+04  0.17169269714E+03 0.  0.
        -24    2    5    5    0    0  0.41408543178E+02 -0.19909039755E+02  0.73898715776E+03  0.74482817727E+03  0.80968864427E+02 0.  0.
          5    1    3    3  502    0 -0.55018479078E+02  0.30261781896E+02  0.64145791300E+02  0.89886489669E+02  0.47000000000E+01 0. -1.
        -11    1    4    4    0    0  0.55304616974E+02  0.20929725532E+02  0.19728736236E+02  0.62336803759E+02  0.00000000000E+00 0.  1.
         12    1    4    4    0    0  0.30281577745E+01  0.67889527752E+02 -0.32437482023E+01  0.68034400271E+02  0.00000000000E+00 0. -1.
         -5    1    5    5    0  501 -0.44722838849E+02 -0.99171995426E+02  0.50702304596E+03  0.51858429992E+03  0.47000000000E+01 0.  1.
         11    1    6    6    0    0  0.88654087861E+01 -0.14771490430E+02  0.64506770545E+03  0.64529771192E+03  0.00000000000E+00 0. -1.
        -12    1    6    6    0    0  0.32543134392E+02 -0.51375493243E+01  0.93919452317E+02  0.99530465350E+02  0.00000000000E+00 0.  1.
</event>
<event>
12    1  0.1345781E-002  0.2291521E+03  0.7818608E-02  0.1127238E+00
         -2   -1    0    0    0  501 -0.00000000000E+00  0.00000000000E+00  0.45189990877E+02  0.45189990877E+02  0.00000000000E+00 0.  1.
          2   -1    0    0  502    0  0.00000000000E+00 -0.00000000000E+00 -0.19294561025E+04  0.19294561025E+04  0.00000000000E+00 0. -1.
          6    2    1    2  502    0  0.11097282602E+03 -0.10328190126E+03 -0.15644223330E+04  0.15810928432E+04  0.17162524209E+03 0.  0.
         24    2    3    3    0    0  0.11878371024E+02  0.28820783214E+01 -0.56471233156E+03  0.57087866865E+03  0.82783058830E+02 0.  0.
         -6    2    1    2    0  501 -0.11097282602E+03  0.10328190126E+03 -0.31984377865E+03  0.39355325016E+03  0.17205231393E+03 0.  0.
        -24    2    5    5    0    0 -0.19155589728E+02  0.61994697843E+02 -0.25239466011E+03  0.27228284306E+03  0.78896153244E+02 0.  0.
          5    1    3    3  502    0  0.99094454994E+02 -0.10616397958E+03 -0.99971000142E+03  0.10102141746E+04  0.47000000000E+01 0. -1.
        -13    1    4    4    0    0 -0.29690715532E+02 -0.12015671205E+02 -0.36190682100E+03  0.36332143073E+03  0.00000000000E+00 0.  1.
         14    1    4    4    0    0  0.41569086556E+02  0.14897749527E+02 -0.20280551056E+03  0.20755723792E+03  0.00000000000E+00 0. -1.
         -5    1    5    5    0  501 -0.91817236290E+02  0.41287203414E+02 -0.67449118539E+02  0.12127040710E+03  0.47000000000E+01 0.  1.
         13    1    6    6    0    0 -0.17386306067E+02  0.80017405173E+02 -0.18157927869E+03  0.19918861217E+03  0.00000000000E+00 0. -1.
        -14    1    6    6    0    0 -0.17692836612E+01 -0.18022707330E+02 -0.70815381420E+02  0.73094230893E+02  0.00000000000E+00 0.  1.
</event>
<event>
12    1  0.1345781E-002  0.1888183E+03  0.7818608E-02  0.1159531E+00
         -4   -1    0    0    0  501 -0.00000000000E+00  0.00000000000E+00  0.27541305453E+04  0.27541305453E+04  0.00000000000E+00 0. -1.
          4   -1    0    0  502    0  0.00000000000E+00 -0.00000000000E+00 -0.19537039427E+02  0.19537039427E+02  0.00000000000E+00 0.  1.
          6    2    1    2  502    0 -0.58093577827E+02 -0.56187615398E+02  0.56430712314E+03  0.59522927499E+03  0.17124090825E+03 0.  0.
         24    2    3    3    0    0 -0.36231005408E+02 -0.91160295301E+02  0.27409685414E+03  0.30206524130E+03  0.80569469150E+02 0.  0.
         -6    2    1    2    0  501  0.58093577827E+02  0.56187615398E+02  0.21702863828E+04  0.21784383098E+04  0.17005462175E+03 0.  0.
        -24    2    5    5    0    0  0.97433659847E+02  0.67553617583E+02  0.18362629415E+04  0.18418813645E+04  0.81293059167E+02 0.  0.
          5    1    3    3  502    0 -0.21862572419E+02  0.34972679903E+02  0.29021026900E+03  0.29316403369E+03  0.47000000000E+01 0. -1.
        -11    1    4    4    0    0 -0.39965636390E+02 -0.45415500643E+01  0.84376460238E+02  0.93473337435E+02  0.00000000000E+00 0.  1.
         12    1    4    4    0    0  0.37346309817E+01 -0.86618745236E+02  0.18972039390E+03  0.20859190386E+03  0.00000000000E+00 0. -1.
         -5    1    5    5    0  501 -0.39340082020E+02 -0.11366002185E+02  0.33402344130E+03  0.33655694525E+03  0.47000000000E+01 0.  1.
         11    1    6    6    0    0  0.63616426886E+02 -0.16355320101E+01  0.10241330618E+04  0.10261083048E+04  0.00000000000E+00 0. -1.
        -12    1    6    6    0    0  0.33817232961E+02  0.69189149593E+02  0.81212987963E+03  0.81577305977E+03  0.00000000000E+00 0.  1.
</event>
<event>
12    1  0.1345781E-002  0.1777611E+03  0.7818608E-02  0.1169988E+00
         -2   -1    0    0    0  501 -0.00000000000E+00  0.00000000000E+00  0.23751538478E+03  0.23751538478E+03  0.00000000000E+00 0.  1.
          2   -1    0    0  502    0  0.00000000000E+00 -0.00000000000E+00 -0.28802541424E+03  0.28802541424E+03  0.00000000000E+00 0. -1.
          6    2    1    2  502    0 -0.12248934591E+02 -0.44715886483E+02  0.16750264016E+03  0.24422207377E+03  0.17157429863E+03 0.  0.
         24    2    3    3    0    0 -0.56164681170E+02  0.12688419130E+02  0.65917196292E+02  0.11946014245E+03  0.81303022551E+02 0.  0.
         -6    2    1    2    0  501  0.12248934591E+02  0.44715886483E+02 -0.21801266961E+03  0.28131872525E+03  0.17164251852E+03 0.  0.
        -24    2    5    5    0    0 -0.12799979148E+02  0.69401668974E+02 -0.67351188152E+02  0.12653562562E+03  0.80589396841E+02 0.  0.
          5    1    3    3  502    0  0.43915746579E+02 -0.57404305614E+02  0.10158544387E+03  0.12476193132E+03  0.47000000000E+01 0. -1.
        -11    1    4    4    0    0  0.34480890876E+01  0.35328248457E+02  0.28533906949E+02  0.45542928135E+02  0.00000000000E+00 0.  1.
         12    1    4    4    0    0 -0.59612770258E+02 -0.22639829326E+02  0.37383289343E+02  0.73917214313E+02  0.00000000000E+00 0. -1.
         -5    1    5    5    0  501  0.25048913739E+02 -0.24685782491E+02 -0.15066148146E+03  0.15478309963E+03  0.47000000000E+01 0.  1.
         11    1    6    6    0    0  0.30443068153E+02  0.18797800833E+02 -0.42328334321E+02  0.55424052551E+02  0.00000000000E+00 0. -1.
        -12    1    6    6    0    0 -0.43243047301E+02  0.50603868141E+02 -0.25022853830E+02  0.71111573070E+02  0.00000000000E+00 0.  1.
</event>
<event>
12    1  0.1345781E-002  0.2050344E+03  0.7818608E-02  0.1145560E+00
          2   -1    0    0  502    0  0.00000000000E+00  0.00000000000E+00  0.41208762594E+03  0.41208762594E+03  0.00000000000E+00 0.  1.
         -2   -1    0    0    0  501 -0.00000000000E+00 -0.00000000000E+00 -0.10201846560E+03  0.10201846560E+03  0.00000000000E+00 0. -1.
          6    2    1    2  502    0 -0.94588746468E+02 -0.60918937048E+02  0.15354207377E+03  0.25617132791E+03  0.17143638172E+03 0.  0.
         24    2    3    3    0    0 -0.60899035485E+02 -0.10012959121E+03  0.65204812003E+02  0.15371141457E+03  0.75105951178E+02 0.  0.
         -6    2    1    2    0  501  0.94588746468E+02  0.60918937048E+02  0.15652708657E+03  0.25793476363E+03  0.17138105382E+03 0.  0.
        -24    2    5    5    0    0  0.33800240722E+01 -0.24577449294E+02  0.25703856927E+02  0.76922414511E+02  0.68124107457E+02 0.  0.
          5    1    3    3  502    0 -0.33689710983E+02  0.39210654162E+02  0.88337261766E+02  0.10245991334E+03  0.47000000000E+01 0. -1.
        -13    1    4    4    0    0 -0.13283991517E+02 -0.62779465794E+02 -0.78510167568E+00  0.64174310598E+02  0.00000000000E+00 0.  1.
         14    1    4    4    0    0 -0.47615043968E+02 -0.37350125415E+02  0.65989913679E+02  0.89537103973E+02  0.00000000000E+00 0. -1.
         -5    1    5    5    0  501  0.91208722395E+02  0.85496386342E+02  0.13082322964E+03  0.18101234912E+03  0.47000000000E+01 0.  1.
         13    1    6    6    0    0 -0.61080810681E+01 -0.19524172775E+02  0.47995873103E+02  0.52173803885E+02  0.00000000000E+00 0. -1.
        -14    1    6    6    0    0  0.94881051403E+01 -0.50532765187E+01 -0.22292016176E+02  0.24748610626E+02  0.00000000000E+00 0.  1.
</event>
<event>
12    1  0.1345781E-002  0.1906875E+03  0.7818608E-02  0.1157843E+00
         -2   -1    0    0    0  501 -0.00000000000E+00  0.00000000000E+00  0.26861608383E+02  0.26861608383E+02  0.00000000000E+00 0. -1.
          2   -1    0    0  502    0  0.00000000000E+00 -0.00000000000E+00 -0.17354600656E+04  0.17354600656E+04  0.00000000000E+00 0.  1.
          6    2    1    2  502    0  0.75163691796E+01 -0.70156534468E+02 -0.42556894252E+03  0.46451260275E+03  0.17229218828E+03 0.  0.
         24    2    3    3    0    0 -0.39863724265E+02 -0.15018552355E+02 -0.33884269064E+03  0.35124917930E+03  0.82139780440E+02 0.  0.
         -6    2    1    2    0  501 -0.75163691796E+01  0.70156534468E+02 -0.12830295147E+04  0.12978090713E+04  0.18211319189E+03 0.  0.
        -24    2    5    5    0    0 -0.14735977263E+02  0.82827636033E+02 -0.44332765529E+03  0.45796743006E+03  0.78212471738E+02 0.  0.
          5    1    3    3  502    0  0.47380093445E+02 -0.55137982113E+02 -0.86726251875E+02  0.11326342345E+03  0.47000000000E+01 0. -1.
        -11    1    4    4    0    0 -0.36646718797E+01  0.29619423833E+02 -0.66223608425E+02  0.72638188310E+02  0.00000000000E+00 0.  1.
         12    1    4    4    0    0 -0.36199052385E+02 -0.44637976188E+02 -0.27261908222E+03  0.27861099099E+03  0.00000000000E+00 0. -1.
         -5    1    5    5    0  501  0.72196080831E+01 -0.12671101564E+02 -0.83970185944E+03  0.83984164120E+03  0.47000000000E+01 0.  1.
         13    1    6    6    0    0 -0.38530428563E+02  0.55159025552E+02 -0.18076797134E+03  0.19288382899E+03  0.00000000000E+00 0. -1.
        -14    1    6    6    0    0  0.23794451300E+02  0.27668610480E+02 -0.26255968395E+03  0.26508360107E+03  0.00000000000E+00 0.  1.
</event>
<event>
12    1  0.1345781E-002  0.1922928E+03  0.7818608E-02  0.1156410E+00
          2   -1    0    0  502    0  0.00000000000E+00  0.00000000000E+00  0.25474953674E+04  0.25474953674E+04  0.00000000000E+00 0. -1.
         -2   -1    0    0    0  501 -0.00000000000E+00 -0.00000000000E+00 -0.55488870647E+02  0.55488870647E+02  0.00000000000E+00 0.  1.
          6    2    1    2  502    0 -0.82635311861E+02 -0.18535424769E+02  0.23662856511E+04  0.23741775617E+04  0.17389409100E+03 0.  0.
         24    2    3    3    0    0 -0.56764396099E+00 -0.28793348976E+02  0.59837409095E+03  0.60432623975E+03  0.79556722902E+02 0.  0.
         -6    2    1    2    0  501  0.82635311861E+02  0.18535424769E+02  0.12572084562E+03  0.22880667637E+03  0.17139021964E+03 0.  0.
        -24    2    5    5    0    0  0.94884732999E+02  0.61580386901E+02  0.63535081673E+02  0.15204681498E+03  0.79286005915E+02 0.  0.
          5    1    3    3  502    0 -0.82067667900E+02  0.10257924207E+02  0.17679115602E+04  0.17698513219E+04  0.47000000000E+01 0. -1.
        -11    1    4    4    0    0 -0.30887984087E+02  0.12324798178E+02  0.25965596364E+03  0.26177698078E+03  0.00000000000E+00 0.  1.
         12    1    4    4    0    0  0.30320340126E+02 -0.41118147154E+02  0.33871812731E+03  0.34254925897E+03  0.00000000000E+00 0. -1.
         -5    1    5    5    0  501 -0.12249421138E+02 -0.43044962132E+02  0.62185763945E+02  0.76759861389E+02  0.47000000000E+01 0.  1.
         11    1    6    6    0    0  0.57653246193E+02  0.70154155296E+02  0.17938803562E+02  0.92559726529E+02  0.00000000000E+00 0. -1.
        -12    1    6    6    0    0  0.37231486806E+02 -0.85737683955E+01  0.45596278111E+02  0.59487088447E+02  0.00000000000E+00 0.  1.
</event>
<event>
12    1  0.1345781E-002  0.1822080E+03  0.7818608E-02  0.1165683E+00
          3   -1    0    0  502    0  0.00000000000E+00  0.00000000000E+00  0.52397825132E+03  0.52397825132E+03  0.00000000000E+00 0.  1.
         -3   -1    0    0    0  501 -0.00000000000E+00 -0.00000000000E+00 -0.65045600513E+02  0.65045600513E+02  0.00000000000E+00 0. -1.
          6    2    1    2  502    0  0.50437113164E+02 -0.36701868158E+02  0.18211172097E+03  0.25763743094E+03  0.17123503555E+03 0.  0.
         24    2    3    3    0    0 -0.27673732511E+02 -0.39942641790E+02  0.14138621054E+03  0.16936249664E+03  0.79576030535E+02 0.  0.
         -6    2    1    2    0  501 -0.50437113164E+02  0.36701868158E+02  0.27682092984E+03  0.33138642089E+03  0.17116133688E+03 0.  0.
        -24    2    5    5    0    0 -0.20014993887E+02  0.39040818354E+02  0.51564287368E+02  0.10402410869E+03  0.78976920549E+02 0.  0.
          5    1    3    3  502    0  0.78110845675E+02  0.32407736319E+01  0.40725510431E+02  0.88274934300E+02  0.47000000000E+01 0. -1.
        -13    1    4    4    0    0  0.19826685621E+02  0.15067138829E+01  0.75905403516E+02  0.78466540209E+02  0.00000000000E+00 0.  1.
         14    1    4    4    0    0 -0.47500418131E+02 -0.41449355673E+02  0.65480807019E+02  0.90895956435E+02  0.00000000000E+00 0. -1.
         -5    1    5    5    0  501 -0.30422119277E+02 -0.23389501966E+01  0.22525664247E+03  0.22736231219E+03  0.47000000000E+01 0.  1.
         11    1    6    6    0    0 -0.46236681339E+02  0.13275001909E+02  0.46517160884E+02  0.66917132587E+02  0.00000000000E+00 0. -1.
        -12    1    6    6    0    0  0.26221687453E+02  0.25765816445E+02  0.50471264839E+01  0.37106976105E+02  0.00000000000E+00 0.  1.
</event>
<event>
12    1  0.1345781E-002  0.2073366E+03  0.7818608E-02  0.1143693E+00
          2   -1    0    0  502    0  0.00000000000E+00  0.00000000000E+00  0.74107417705E+03  0.74107417705E+03  0.00000000000E+00 0. -1.
         -2   -1    0    0    0  501 -0.00000000000E+00 -0.00000000000E+00 -0.10586748765E+03  0.10586748765E+03  0.00000000000E+00 0.  1.
          6    2    1    2  502    0  0.39948054582E+02  0.10968893324E+03  0.60251070586E+03  0.63725836792E+03  0.17161459048E+03 0.  0.
         24    2    3    3    0    0  0.28287329113E+02 -0.11058450931E+02  0.23980191179E+03  0.25477220791E+03  0.80507507102E+02 0.  0.
         -6    2    1    2    0  501 -0.39948054582E+02 -0.10968893324E+03  0.32695983536E+02  0.20968329677E+03  0.17108637721E+03 0.  0.
        -24    2    5    5    0    0 -0.71763216265E+02 -0.83148840341E+02 -0.26106918961E+02  0.13759687374E+03  0.78661550875E+02 0.  0.
          5    1    3    3  502    0  0.11660725469E+02  0.12074738417E+03  0.36270879408E+03  0.38248616002E+03  0.47000000000E+01 0. -1.
        -13    1    4    4    0    0  0.12583005631E+02  0.20231923379E+01 -0.12952178777E+01  0.12810266480E+02  0.00000000000E+00 0.  1.
         14    1    4    4    0    0  0.15704323483E+02 -0.13081643269E+02  0.24109712966E+03  0.24196194143E+03  0.00000000000E+00 0. -1.
         -5    1    5    5    0  501  0.31815161683E+02 -0.26540092900E+02  0.58802902497E+02  0.72086423036E+02  0.47000000000E+01 0.  1.
         11    1    6    6    0    0 -0.50291611936E+01 -0.34404898049E+02  0.22790653913E+02  0.41574070980E+02  0.00000000000E+00 0. -1.
        -12    1    6    6    0    0 -0.66734055071E+02 -0.48743942292E+02 -0.48897572874E+02  0.96022802758E+02  0.00000000000E+00 0.  1.
</event>
<event>
12    1  0.1345781E-002  0.3254416E+03  0.7818608E-02  0.1073172E+00
          1   -1    0    0  502    0  0.00000000000E+00  0.00000000000E+00  0.57426166160E+03  0.57426166160E+03  0.00000000000E+00 0. -1.
         -1   -1    0    0    0  501 -0.00000000000E+00 -0.00000000000E+00 -0.24403698012E+03  0.24403698012E+03  0.00000000000E+00 0.  1.
          6    2    1    2  502    0 -0.15341366397E+03 -0.23140445355E+03 -0.34762825418E+02  0.33307298420E+03  0.18068034027E+03 0.  0.
         24    2    3    3    0    0 -0.11856457482E+03 -0.57465969323E+02 -0.20986685782E+02  0.15508161550E+03  0.79056754638E+02 0.  0.
         -6    2    1    2    0  501  0.15341366397E+03  0.23140445355E+03  0.36498750690E+03  0.48522565752E+03  0.15856949617E+03 0.  0.
        -24    2    5    5    0    0  0.27235366461E+02  0.11316010136E+03  0.21403106619E+03  0.25563335239E+03  0.77408913140E+02 0.  0.
          5    1    3    3  502    0 -0.34849089148E+02 -0.17393848422E+03 -0.13776139637E+02  0.17799136870E+03  0.47000000000E+01 0. -1.
        -11    1    4    4    0    0 -0.56690684400E+02  0.49014846865E+01 -0.33976123272E+02  0.66273940598E+02  0.00000000000E+00 0.  1.
         12    1    4    4    0    0 -0.61873890420E+02 -0.62367454010E+02  0.12989437490E+02  0.88807674903E+02  0.00000000000E+00 0. -1.
         -5    1    5    5    0  501  0.12617829751E+03  0.11824435219E+03  0.15095644071E+03  0.22959230514E+03  0.47000000000E+01 0.  1.
         13    1    6    6    0    0 -0.15083126959E+02 -0.58311538940E+00  0.45606477432E+02  0.48039478829E+02  0.00000000000E+00 0. -1.
        -14    1    6    6    0    0  0.42318493420E+02  0.11374321674E+03  0.16842458876E+03  0.20759387356E+03  0.00000000000E+00 0.  1.
</event>
<event>
12    1  0.1345781E-002  0.2058812E+03  0.7818608E-02  0.1144870E+00
         -3   -1    0    0    0  501 -0.00000000000E+00  0.00000000000E+00  0.97234155706E+02  0.97234155706E+02  0.00000000000E+00 0. -1.
          3   -1    0    0  502    0  0.00000000000E+00 -0.00000000000E+00 -0.43593064437E+03  0.43593064437E+03  0.00000000000E+00 0.  1.
          6    2    1    2  502    0 -0.22304468248E+02 -0.11432388417E+03 -0.16888672757E+03  0.26646266395E+03  0.17003583368E+03 0.  0.
         24    2    3    3    0    0 -0.25148557784E+02 -0.76865137963E+02 -0.19130484270E+03  0.22246370488E+03  0.79698542996E+02 0.  0.
         -6    2    1    2    0  501  0.22304468248E+02  0.11432388417E+03 -0.16980976110E+03  0.26670213612E+03  0.16949110494E+03 0.  0.
        -24    2    5    5    0    0  0.20201661773E+02 -0.16641770580E+01 -0.34976485886E+02  0.88770255206E+02  0.79031177524E+02 0.  0.
          5    1    3    3  502    0  0.28440895357E+01 -0.37458746209E+02  0.22418115137E+02  0.43998959069E+02  0.47000000000E+01 0. -1.
        -13    1    4    4    0    0  0.23220496115E+02 -0.21885782009E+02 -0.24294584307E+02  0.40104933869E+02  0.00000000000E+00 0.  1.
         14    1    4    4    0    0 -0.48369053899E+02 -0.54979355954E+02 -0.16701025839E+03  0.18235877101E+03  0.00000000000E+00 0. -1.
         -5    1    5    5    0  501  0.21028064757E+01  0.11598806123E+03 -0.13483327521E+03  0.17793188092E+03  0.47000000000E+01 0.  1.
         11    1    6    6    0    0 -0.23423354028E+02 -0.29004844758E+01  0.10418129226E+02  0.25799297290E+02  0.00000000000E+00 0. -1.
        -12    1    6    6    0    0  0.43625015801E+02  0.12363074178E+01 -0.45394615112E+02  0.62970957916E+02  0.00000000000E+00 0.  1.
</event>
<event>
12    1  0.1345781E-002  0.2132415E+03  0.7818608E-02  0.1139024E+00
          3   -1    0    0  502    0  0.00000000000E+00  0.00000000000E+00  0.56486298908E+03  0.56486298908E+03  0.00000000000E+00 0. -1.
         -3   -1    0    0    0  501 -0.00000000000E+00 -0.00000000000E+00 -0.12612308847E+03  0.12612308847E+03  0.00000000000E+00 0.  1.
          6    2    1    2  502    0 -0.62543075331E+02  0.10310769099E+03  0.42862683019E+03  0.47976316190E+03  0.17863062375E+03 0.  0.
         24    2    3    3    0    0 -0.28959658019E+02  0.79437685912E+02  0.11537184058E+03  0.16379023019E+03  0.79797056150E+02 0.  0.
         -6    2    1    2    0  501  0.62543075331E+02 -0.10310769099E+03  0.10113070414E+02  0.21122291565E+03  0.17311849610E+03 0.  0.
        -24    2    5    5    0    0  0.10366151664E+03 -0.97652596806E+02 -0.12261383333E+02  0.16386058412E+03  0.80113730472E+02 0.  0.
          5    1    3    3  502    0 -0.33583417311E+02  0.23670005083E+02  0.31325498961E+03  0.31597293171E+03  0.47000000000E+01 0. -1.
        -13    1    4    4    0    0  0.13308809145E+02 -0.24567935907E+01  0.47350566463E+02  0.49246689025E+02  0.00000000000E+00 0.  1.
         14    1    4    4    0    0 -0.42268467164E+02  0.81894479502E+02  0.68021274121E+02  0.11454354116E+03  0.00000000000E+00 0. -1.
         -5    1    5    5    0  501 -0.41118441310E+02 -0.54550941885E+01  0.22374453747E+02  0.47362331539E+02  0.47000000000E+01 0.  1.
         13    1    6    6    0    0 -0.88795876458E+01 -0.21586379201E+02  0.11403494988E+02  0.25978039605E+02  0.00000000000E+00 0. -1.
        -14    1    6    6    0    0  0.11254110429E+03 -0.76066217605E+02 -0.23664878320E+02  0.13788254451E+03  0.00000000000E+00 0.  1.
</event>
<event>
12    1  0.1345781E-002  0.2056915E+03  0.7818608E-02  0.1145024E+00
          2   -1    0    0  502    0  0.00000000000E+00  0.00000000000E+00  0.12083485348E+04  0.12083485348E+04  0.00000000000E+00 0.  1.
         -2   -1    0    0    0  501 -0.00000000000E+00 -0.00000000000E+00 -0.37227022169E+02  0.37227022169E+02  0.00000000000E+00 0. -1.
          6    2    1    2  502    0  0.10890001693E+03  0.13735032895E+02  0.73273240781E+03  0.76059619720E+03  0.17193582794E+03 0.  0.
         24    2    3    3    0    0 -0.10762926011E+02  0.32598748454E+01  0.34392062171E+03  0.35362489126E+03  0.81502774933E+02 0.  0.
         -6    2    1    2    0  501 -0.10890001693E+03 -0.13735032895E+02  0.43838910480E+03  0.48497935974E+03  0.17598894100E+03 0.  0.
        -24    2    5    5    0    0 -0.22149279911E+02  0.93902722332E+01  0.70754645208E+02  0.10651184992E+03  0.75893257555E+02 0.  0.
          5    1    3    3  502    0  0.11966294294E+03  0.10475158050E+02  0.38881178610E+03  0.40697130594E+03  0.47000000000E+01 0. -1.
        -11    1    4    4    0    0  0.92021803611E+01 -0.21578235344E+02  0.29032244219E+03  0.29126864026E+03  0.00000000000E+00 0.  1.
         12    1    4    4    0    0 -0.19965106372E+02  0.24838110189E+02  0.53598179522E+02  0.62356250996E+02  0.00000000000E+00 0. -1.
         -5    1    5    5    0  501 -0.86750737020E+02 -0.23125305129E+02  0.36763445959E+03  0.37846750982E+03  0.47000000000E+01 0.  1.
         13    1    6    6    0    0  0.83773215796E+01  0.37198445821E+02  0.30288545496E+02  0.48695994462E+02  0.00000000000E+00 0. -1.
        -14    1    6    6    0    0 -0.30526601491E+02 -0.27808173588E+02  0.40466099712E+02  0.57815855462E+02  0.00000000000E+00 0.  1.
</event>
<event>
12    1  0.1345781E-002  0.3869934E+03  0.7818608E-02  0.1048379E+00
          1   -1    0    0  502    0  0.00000000000E+00  0.00000000000E+00  0.84014630591E+03  0.84014630591E+03  0.00000000000E+00 0.  1.
         -1   -1    0    0    0  501 -0.00000000000E+00 -0.00000000000E+00 -0.18669210929E+03  0.18669210929E+03  0.00000000000E+00 0. -1.
          6    2    1    2  502    0  0.30365742937E+03  0.16722211074E+03  0.43597715748E+03  0.58306707755E+03  0.17239508792E+03 0.  0.
         24    2    3    3    0    0  0.29198861671E+03  0.18022783312E+03  0.44088008928E+03  0.56432037801E+03  0.79641771655E+02 0.  0.
         -6    2    1    2    0  501 -0.30365742937E+03 -0.16722211074E+03  0.21747703913E+03  0.44377133766E+03  0.17165566941E+03 0.  0.
        -24    2    5    5    0    0 -0.15436317718E+03 -0.10493704442E+03  0.64613408751E+02  0.22115601312E+03  0.99475201870E+02 0.  0.
          5    1    3    3  502    0  0.11668812662E+02 -0.13005722373E+02 -0.49029317988E+01  0.18746699539E+02  0.47000000000E+01 0. -1.
        -13    1    4    4    0    0  0.20524463206E+03  0.96420743857E+02  0.33054368558E+03  0.40085090360E+03  0.00000000000E+00 0.  1.
         14    1    4    4    0    0  0.86743984653E+02  0.83807089260E+02  0.11033640370E+03  0.16346947441E+03  0.00000000000E+00 0. -1.
         -5    1    5    5    0  501 -0.14929425219E+03 -0.62285066319E+02  0.15286363038E+03  0.22261532453E+03  0.47000000000E+01 0.  1.
         13    1    6    6    0    0 -0.12795717319E+03 -0.35828781798E+02  0.18965663748E+02  0.13422531869E+03  0.00000000000E+00 0. -1.
        -14    1    6    6    0    0 -0.26406003989E+02 -0.69108262627E+02  0.45647745003E+02  0.86930694429E+02  0.00000000000E+00 0.  1.
</event>
<event>
12    1  0.1345781E-002  0.9679417E+03  0.7818608E-02  0.9344422E-01
         -2   -1    0    0    0  501 -0.00000000000E+00  0.00000000000E+00  0.82925512407E+03  0.82925512407E+03  0.00000000000E+00 0. -1.
          2   -1    0    0  502    0  0.00000000000E+00 -0.00000000000E+00 -0.11628185186E+04  0.11628185186E+04  0.00000000000E+00 0.  1.
          6    2    1    2  502    0 -0.55076753906E+03  0.77676574659E+03  0.10130866117E+01  0.96787589970E+03  0.17341517730E+03 0.  0.
         24    2    3    3    0    0 -0.36899896631E+03  0.49412881441E+03  0.59919048683E+02  0.62667881320E+03  0.93875024069E+02 0.  0.
         -6    2    1    2    0  501  0.55076753906E+03 -0.77676574659E+03 -0.33457648111E+03  0.10241977429E+04  0.17415420680E+03 0.  0.
        -24    2    5    5    0    0  0.41766261482E+03 -0.47879045662E+03 -0.20533329959E+03  0.67315346615E+03  0.85390069092E+02 0.  0.
          5    1    3    3  502    0 -0.18176857274E+03  0.28263693218E+03 -0.58905962072E+02  0.34119708650E+03  0.47000000000E+01 0. -1.
        -11    1    4    4    0    0 -0.63507608624E+02  0.82216342173E+02 -0.25023965392E+02  0.10685945030E+03  0.00000000000E+00 0.  1.
         12    1    4    4    0    0 -0.30549135769E+03  0.41191247224E+03  0.84943014075E+02  0.51981936290E+03  0.00000000000E+00 0. -1.
         -5    1    5    5    0  501  0.13310492424E+03 -0.29797528997E+03 -0.12924318152E+03  0.35104427678E+03  0.47000000000E+01 0.  1.
         13    1    6    6    0    0  0.23943129912E+03 -0.25761345098E+03 -0.15644535367E+03  0.38492490931E+03  0.00000000000E+00 0. -1.
        -14    1    6    6    0    0  0.17823131569E+03 -0.22117700565E+03 -0.48887945922E+02  0.28822855684E+03  0.00000000000E+00 0.  1.
</event>
<event>
12    1  0.1345781E-002  0.1787334E+03  0.7818608E-02  0.1169034E+00
          2   -1    0    0  502    0  0.00000000000E+00  0.00000000000E+00  0.80845532236E+03  0.80845532236E+03  0.00000000000E+00 0.  1.
         -2   -1    0    0    0  501 -0.00000000000E+00 -0.00000000000E+00 -0.51352248779E+02  0.51352248779E+02  0.00000000000E+00 0. -1.
          6    2    1    2  502    0 -0.15465970665E+01  0.55066637858E+02  0.58874351908E+03  0.61597236234E+03  0.17253490470E+03 0.  0.
         24    2    3    3    0    0 -0.16386286564E+02 -0.20256027009E+02  0.44529323640E+03  0.45320321960E+03  0.80176523097E+02 0.  0.
         -6    2    1    2    0  501  0.15465970665E+01 -0.55066637858E+02  0.16835955450E+03  0.24383520880E+03  0.16755877444E+03 0.  0.
        -24    2    5    5    0    0 -0.13318932035E+02 -0.45464508660E+02  0.20324329317E+02  0.94671866332E+02  0.79405720287E+02 0.  0.
          5    1    3    3  502    0  0.14839689498E+02  0.75322664866E+02  0.14345028268E+03  0.16276914274E+03  0.47000000000E+01 0. -1.
        -11    1    4    4    0    0  0.20384386330E+02  0.16648991208E+02  0.23853428827E+03  0.23998191348E+03  0.00000000000E+00 0.  1.
         12    1    4    4    0    0 -0.36770672894E+02 -0.36905018217E+02  0.20675894813E+03  0.21322130612E+03  0.00000000000E+00 0. -1.
         -5    1    5    5    0  501  0.14865529102E+02 -0.96021291976E+01  0.14803522519E+03  0.14916334247E+03  0.47000000000E+01 0.  1.
         11    1    6    6    0    0 -0.21457710308E+02 -0.66040575117E+02  0.20966237462E+02  0.72535329370E+02  0.00000000000E+00 0. -1.
        -12    1    6    6    0    0  0.81387782729E+01  0.20576066457E+02 -0.64190814593E+00  0.22136536962E+02  0.00000000000E+00 0.  1.
</event>
<event>
12    1  0.1345781E-002  0.2861389E+03  0.7818608E-02  0.1092382E+00
         -1   -1    0    0    0  501 -0.00000000000E+00  0.00000000000E+00  0.90813313385E+02  0.90813313385E+02  0.00000000000E+00 0.  1.
          1   -1    0    0  502    0  0.00000000000E+00 -0.00000000000E+00 -0.10323862638E+04  0.10323862638E+04  0.00000000000E+00 0. -1.
          6    2    1    2  502    0 -0.21905883176E+03 -0.65443987686E+02 -0.66968591912E+03  0.72798190187E+03  0.17090562274E+03 0.  0.
         24    2    3    3    0    0 -0.10178139717E+03  0.12217788338E+02 -0.20747477543E+03  0.24481880366E+03  0.79885774855E+02 0.  0.
         -6    2    1    2    0  501  0.21905883176E+03  0.65443987686E+02 -0.27188703131E+03  0.39521767533E+03  0.17321883790E+03 0.  0.
        -24    2    5    5    0    0  0.65686526933E+02  0.76465087256E+02 -0.15726081782E+03  0.20336933069E+03  0.80414491564E+02 0.  0.
          5    1    3    3  502    0 -0.11727743459E+03 -0.77661776025E+02 -0.46221114369E+03  0.48316309821E+03  0.47000000000E+01 0. -1.
        -13    1    4    4    0    0 -0.17580720271E+02  0.27546685015E+02 -0.18946907798E+02  0.37774156452E+02  0.00000000000E+00 0.  1.
         14    1    4    4    0    0 -0.84200676897E+02 -0.15328896677E+02 -0.18852786763E+03  0.20704464721E+03  0.00000000000E+00 0. -1.
         -5    1    5    5    0  501  0.15337230483E+03 -0.11021099569E+02 -0.11462621350E+03  0.19184834465E+03  0.47000000000E+01 0.  1.
         13    1    6    6    0    0  0.80836682165E+02  0.58649830213E+02 -0.14726538434E+03  0.17793668872E+03  0.00000000000E+00 0. -1.
        -14    1    6    6    0    0 -0.15150155232E+02  0.17815257042E+02 -0.99954334779E+01  0.25432641967E+02  0.00000000000E+00 0.  1.
</event>
<event>
12    1  0.1345781E-002  0.1952055E+03  0.7818608E-02  0.1153848E+00
         -2   -1    0    0    0  501 -0.00000000000E+00  0.00000000000E+00  0.17778719439E+03  0.17778719439E+03  0.00000000000E+00 0. -1.
          2   -1    0    0  502    0  0.00000000000E+00 -0.00000000000E+00 -0.23586850169E+03  0.23586850169E+03  0.00000000000E+00 0.  1.
          6    2    1    2  502    0 -0.39367668614E+02  0.84898402155E+02 -0.91417993180E+02  0.21477793055E+03  0.17033718900E+03 0.  0.
         24    2    3    3    0    0 -0.80494618617E+02  0.62363803148E+02 -0.10360498509E+03  0.16609685681E+03  0.80532883576E+02 0.  0.
         -6    2    1    2    0  501  0.39367668614E+02 -0.84898402155E+02  0.33336685875E+02  0.19887776553E+03  0.17228894038E+03 0.  0.
        -24    2    5    5    0    0  0.86295923589E+02 -0.36605814790E+02  0.39431418625E+02  0.13110114067E+03  0.82738746709E+02 0.  0.
          5    1    3    3  502    0  0.41126950002E+02  0.22534599008E+02  0.12186991911E+02  0.48681073743E+02  0.47000000000E+01 0. -1.
        -11    1    4    4    0    0 -0.34909443596E+02 -0.13696811333E+01 -0.74899022681E+02  0.82646287739E+02  0.00000000000E+00 0.  1.
         12    1    4    4    0    0 -0.45585175021E+02  0.63733484281E+02 -0.28705962410E+02  0.83450569070E+02  0.00000000000E+00 0. -1.
         -5    1    5    5    0  501 -0.46928254974E+02 -0.48292587366E+02 -0.60947327502E+01  0.67776624855E+02  0.47000000000E+01 0.  1.
         13    1    6    6    0    0 -0.49884808773E+01 -0.19985594522E+02  0.31950383372E+02  0.38014943476E+02  0.00000000000E+00 0. -1.
        -14    1    6    6    0    0  0.91284404466E+02 -0.16620220268E+02  0.74810352536E+01  0.93086197199E+02  0.00000000000E+00 0.  1.
</event>
<event>
12    1  0.1345781E-002  0.1746045E+03  0.7818608E-02  0.1173129E+00
          2   -1    0    0  502    0  0.00000000000E+00  0.00000000000E+00  0.10963871090E+03  0.10963871090E+03  0.00000000000E+00 0.  1.
         -2   -1    0    0    0  501 -0.00000000000E+00 -0.00000000000E+00 -0.29948338536E+03  0.29948338536E+03  0.00000000000E+00 0. -1.
          6    2    1    2  502    0  0.19922514123E+02  0.25335630878E+02 -0.39983533229E+02  0.17866725871E+03  0.17112716221E+03 0.  0.
         24    2    3    3    0    0  0.66283597371E+02  0.51482544989E+02 -0.77343803353E+01  0.11625645020E+03  0.80073552774E+02 0.  0.
         -6    2    1    2    0  501 -0.19922514123E+02 -0.25335630878E+02 -0.14986114123E+03  0.23045483754E+03  0.17208215985E+03 0.  0.
        -24    2    5    5    0    0  0.80287446020E+01  0.12323616449E+02 -0.16239070912E+03  0.18168423323E+03  0.80137918208E+02 0.  0.
          5    1    3    3  502    0 -0.46361083249E+02 -0.26146914111E+02 -0.32249152894E+02  0.62410808518E+02  0.47000000000E+01 0. -1.
        -13    1    4    4    0    0  0.76563745513E+02  0.19893710924E+02 -0.18677182576E+02  0.81281018757E+02  0.00000000000E+00 0.  1.
         14    1    4    4    0    0 -0.10280148141E+02  0.31588834065E+02  0.10942802240E+02  0.34975431438E+02  0.00000000000E+00 0. -1.
         -5    1    5    5    0  501 -0.27951258725E+02 -0.37659247327E+02  0.12529567893E+02  0.48770604314E+02  0.47000000000E+01 0.  1.
         11    1    6    6    0    0 -0.21109698371E+02  0.46592976095E+01 -0.14559173324E+03  0.14718791121E+03  0.00000000000E+00 0. -1.
        -12    1    6    6    0    0  0.29138442973E+02  0.76643188396E+01 -0.16798975877E+02  0.34496322017E+02  0.00000000000E+00 0.  1.
</event>
<event>
12    1  0.1345781E-002  0.1936604E+03  0.7818608E-02  0.1155201E+00
         -1   -1    0    0    0  501 -0.00000000000E+00  0.00000000000E+00  0.23982384410E+03  0.23982384410E+03  0.00000000000E+00 0.  1.
          1   -1    0    0  502    0  0.00000000000E+00 -0.00000000000E+00 -0.22172120147E+03  0.22172120147E+03  0.00000000000E+00 0. -1.
          6    2    1    2  502    0 -0.29167496294E+01  0.89076910886E+02 -0.11622879091E+03  0.22572368279E+03  0.17175227991E+03 0.  0.
         24    2    3    3    0    0  0.54290972303E+02  0.53223364706E+02 -0.25999968455E+02  0.11293391985E+03  0.79358904153E+02 0.  0.
         -6    2    1    2    0  501  0.29167496294E+01 -0.89076910886E+02  0.13433143354E+03  0.23582136278E+03  0.17211501278E+03 0.  0.
        -24    2    5    5    0    0 -0.50668082781E+01 -0.17164687087E+02  0.14106332382E+03  0.16300300331E+03  0.79692024278E+02 0.  0.
          5    1    3    3  502    0 -0.57207721932E+02  0.35853546180E+02 -0.90228822456E+02  0.11278976294E+03  0.47000000000E+01 0. -1.
        -11    1    4    4    0    0  0.50764490064E+02  0.63061176044E+02 -0.43985228676E+02  0.92132761368E+02  0.00000000000E+00 0.  1.
         12    1    4    4    0    0  0.35264822385E+01 -0.98378113384E+01  0.17985260221E+02  0.20801158480E+02  0.00000000000E+00 0. -1.
         -5    1    5    5    0  501  0.79835579075E+01 -0.71912223799E+02 -0.67318902790E+01  0.72818359466E+02  0.47000000000E+01 0.  1.
         13    1    6    6    0    0 -0.27998416228E+02 -0.25117899255E+02  0.26786971419E+02  0.46177505477E+02  0.00000000000E+00 0. -1.
        -14    1    6    6    0    0  0.22931607950E+02  0.79532121682E+01  0.11427635240E+03  0.11682549784E+03  0.00000000000E+00 0.  1.
</event>
<event>
12    1  0.1345781E-002  0.3148638E+03  0.7818608E-02  0.1078038E+00
         -2   -1    0    0    0  501 -0.00000000000E+00  0.00000000000E+00  0.15600639363E+03  0.15600639363E+03  0.00000000000E+00 0. -1.
          2   -1    0    0  502    0  0.00000000000E+00 -0.00000000000E+00 -0.72249886705E+03  0.72249886705E+03  0.00000000000E+00 0.  1.
          6    2    1    2  502    0 -0.12960873500E+03  0.23007071714E+03 -0.13049297584E+03  0.34046688387E+03  0.17075808383E+03 0.  0.
         24    2    3    3    0    0 -0.39844504057E+01  0.54447865512E+02 -0.23602644119E+02  0.99484561051E+02  0.79747396035E+02 0.  0.
         -6    2    1    2    0  501  0.12960873500E+03 -0.23007071714E+03 -0.43599949758E+03  0.53803837682E+03  0.17221722901E+03 0.  0.
        -24    2    5    5    0    0  0.32459889389E+02 -0.34142578471E+02 -0.91735000085E+02  0.13015865440E+03  0.79414135963E+02 0.  0.
          5    1    3    3  502    0 -0.12562428459E+03  0.17562285163E+03 -0.10689033172E+03  0.24098232282E+03  0.47000000000E+01 0. -1.
        -13    1    4    4    0    0 -0.12786643449E+02 -0.54861758301E+01 -0.35161760995E+02  0.37814624317E+02  0.00000000000E+00 0.  1.
         14    1    4    4    0    0  0.88021930433E+01  0.59934041342E+02  0.11559116876E+02  0.61669936735E+02  0.00000000000E+00 0. -1.
         -5    1    5    5    0  501  0.97148845610E+02 -0.19592813867E+03 -0.34426449749E+03  0.40787972242E+03  0.47000000000E+01 0.  1.
         13    1    6    6    0    0 -0.13680504355E+02  0.17175949550E+02 -0.13241576545E+02  0.25641934243E+02  0.00000000000E+00 0. -1.
        -14    1    6    6    0    0  0.46140393744E+02 -0.51318528022E+02 -0.78493423540E+02  0.10451672016E+03  0.00000000000E+00 0.  1.
</event>
<event>
12    1  0.1345781E-002  0.2658480E+03  0.7818608E-02  0.1103680E+00
         -2   -1    0    0    0  501 -0.00000000000E+00  0.00000000000E+00  0.12129896934E+03  0.12129896934E+03  0.00000000000E+00 0.  1.
          2   -1    0    0  502    0  0.00000000000E+00 -0.00000000000E+00 -0.70103035145E+03  0.70103035145E+03  0.00000000000E+00 0. -1.
          6    2    1    2  502    0  0.18439195453E+03 -0.83279241209E+02 -0.12190276410E+03  0.29345808609E+03  0.17413081142E+03 0.  0.
         24    2    3    3    0    0  0.18551358981E+02 -0.40697157460E+02 -0.18579391168E+02  0.93422723266E+02  0.79888671919E+02 0.  0.
         -6    2    1    2    0  501 -0.18439195453E+03  0.83279241209E+02 -0.45782861801E+03  0.52887123470E+03  0.17076859933E+03 0.  0.
        -24    2    5    5    0    0 -0.79948528566E+02  0.44667559129E+02 -0.11211691174E+03  0.16563857500E+03  0.80492096336E+02 0.  0.
          5    1    3    3  502    0  0.16584059554E+03 -0.42582083749E+02 -0.10332337293E+03  0.20003536282E+03  0.47000000000E+01 0. -1.
        -11    1    4    4    0    0  0.25904331842E+02 -0.57113683405E+02  0.59603534498E+01  0.62996293967E+02  0.00000000000E+00 0.  1.
         12    1    4    4    0    0 -0.73529728609E+01  0.16416525946E+02 -0.24539744618E+02  0.30426429300E+02  0.00000000000E+00 0. -1.
         -5    1    5    5    0  501 -0.10444342596E+03  0.38611682080E+02 -0.34571170627E+03  0.36323265970E+03  0.47000000000E+01 0.  1.
         11    1    6    6    0    0 -0.84639396367E+02  0.38131576623E+02 -0.12173953893E+03  0.15309591730E+03  0.00000000000E+00 0. -1.
        -12    1    6    6    0    0  0.46908678012E+01  0.65359825067E+01  0.96226271986E+01  0.12542657703E+02  0.00000000000E+00 0.  1.
</event>
<event>
12    1  0.1345781E-002  0.1861406E+03  0.7818608E-02  0.1161989E+00
         -1   -1    0    0    0  501 -0.00000000000E+00  0.00000000000E+00  0.32982148471E+02  0.32982148471E+02  0.00000000000E+00 0. -1.
          1   -1    0    0  502    0  0.00000000000E+00 -0.00000000000E+00 -0.14149651952E+04  0.14149651952E+04  0.00000000000E+00 0.  1.
          6    2    1    2  502    0 -0.49337927805E+02 -0.32629228320E+02 -0.36515553521E+03  0.41652269332E+03  0.19145153824E+03 0.  0.
         24    2    3    3    0    0  0.15275757605E+01 -0.90839137174E+02 -0.19894076365E+03  0.23315112185E+03  0.80795642486E+02 0.  0.
         -6    2    1    2    0  501  0.49337927805E+02  0.32629228320E+02 -0.10168275115E+04  0.10314246503E+04  0.16247991724E+03 0.  0.
        -24    2    5    5    0    0  0.17894593350E+02  0.78207766618E+02 -0.56470683136E+03  0.57590155998E+03  0.79574682966E+02 0.  0.
          5    1    3    3  502    0 -0.50865503566E+02  0.58209908853E+02 -0.16621477155E+03  0.18337157147E+03  0.47000000000E+01 0. -1.
        -11    1    4    4    0    0  0.30166218725E+02 -0.82633716111E+02 -0.17103684115E+03  0.19233286984E+03  0.00000000000E+00 0.  1.
         12    1    4    4    0    0 -0.28638642965E+02 -0.82054210622E+01 -0.27903922503E+02  0.40818252005E+02  0.00000000000E+00 0. -1.
         -5    1    5    5    0  501  0.31443334455E+02 -0.45578538298E+02 -0.45212068014E+03  0.45552309035E+03  0.47000000000E+01 0.  1.
         11    1    6    6    0    0 -0.30106032772E+02  0.18614473848E+02 -0.14354372632E+03  0.14784340774E+03  0.00000000000E+00 0. -1.
        -12    1    6    6    0    0  0.48000626122E+02  0.59593292770E+02 -0.42116310504E+03  0.42805815224E+03  0.00000000000E+00 0.  1.
</event>
<event>
12    1  0.1345781E-002  0.2319907E+03  0.7818608E-02  0.1125246E+00
          2   -1    0    0  502    0  0.00000000000E+00  0.00000000000E+00  0.13282136664E+04  0.13282136664E+04  0.00000000000E+00 0.  1.
         -2   -1    0    0    0  501 -0.00000000000E+00 -0.00000000000E+00 -0.77268922806E+02  0.77268922806E+02  0.00000000000E+00 0. -1.
          6    2    1    2  502    0  0.73673207804E+02  0.13768402553E+03  0.14102561299E+03  0.27160474696E+03  0.17174481831E+03 0.  0.
         24    2    3    3    0    0  0.93434734309E+02  0.11488815336E+03  0.16215855445E+03  0.23447173021E+03  0.82172125012E+02 0.  0.
         -6    2    1    2    0  501 -0.73673207804E+02 -0.13768402553E+03  0.11099191306E+04  0.11338778423E+04  0.17138801658E+03 0.  0.
        -24    2    5    5    0    0 -0.98223514547E+02 -0.64675526145E+02  0.87806682416E+03  0.88952043895E+03  0.80090455914E+02 0.  0.
          5    1    3    3  502    0 -0.19761526505E+02  0.22795872172E+02 -0.21132941460E+02  0.37133016745E+02  0.47000000000E+01 0. -1.
        -13    1    4    4    0    0  0.51643272417E+02  0.47277617982E+02  0.13207362437E+03  0.14948459119E+03  0.00000000000E+00 0.  1.
         14    1    4    4    0    0  0.41791461892E+02  0.67610535380E+02  0.30084930076E+02  0.84987139022E+02  0.00000000000E+00 0. -1.
         -5    1    5    5    0  501  0.24550306742E+02 -0.73008499388E+02  0.23185230648E+03  0.24435740333E+03  0.47000000000E+01 0.  1.
         11    1    6    6    0    0 -0.20191260680E+02 -0.37306618566E+02  0.12660931692E+03  0.13352673862E+03  0.00000000000E+00 0. -1.
        -12    1    6    6    0    0 -0.78032253867E+02 -0.27368907579E+02  0.75145750724E+03  0.75599370033E+03  0.00000000000E+00 0.  1.
</event>
<event>
12    1  0.1345781E-002  0.2748127E+03  0.7818608E-02  0.1098556E+00
          2   -1    0    0  502    0  0.00000000000E+00  0.00000000000E+00  0.54421752705E+03  0.54421752705E+03  0.00000000000E+00 0.  1.
         -2   -1    0    0    0  501 -0.00000000000E+00 -0.00000000000E+00 -0.17405394805E+03  0.17405394805E+03  0.00000000000E+00 0. -1.
          6    2    1    2  502    0 -0.19466091924E+03 -0.87888447757E+02  0.34701317726E+03  0.44292704110E+03  0.17363457553E+03 0.  0.
         24    2    3    3    0    0 -0.20711462510E+03 -0.63286936388E+02  0.34535331171E+03  0.41490607922E+03  0.77307440865E+02 0.  0.
         -6    2    1    2    0  501  0.19466091924E+03  0.87888447757E+02  0.23150401749E+02  0.27534443400E+03  0.17222474708E+03 0.  0.
        -24    2    5    5    0    0  0.20979523555E+03  0.10321200786E+03  0.36193781336E+02  0.24973039927E+03  0.79928237095E+02 0.  0.
          5    1    3    3  502    0  0.12453705855E+02 -0.24601511369E+02  0.16598655420E+01  0.28020961882E+02  0.47000000000E+01 0. -1.
        -11    1    4    4    0    0 -0.54256221497E+02 -0.53444422040E+02  0.12933740153E+03  0.15009399473E+03  0.00000000000E+00 0.  1.
         12    1    4    4    0    0 -0.15285840360E+03 -0.98425143476E+01  0.21601591018E+03  0.26481208449E+03  0.00000000000E+00 0. -1.
         -5    1    5    5    0  501 -0.15134316311E+02 -0.15323560099E+02 -0.13043379587E+02  0.25614034735E+02  0.47000000000E+01 0.  1.
         13    1    6    6    0    0  0.16936480466E+03  0.11526014535E+03  0.28274885679E+02  0.20680620717E+03  0.00000000000E+00 0. -1.
        -14    1    6    6    0    0  0.40430430895E+02 -0.12048137489E+02  0.79188956567E+01  0.42924192103E+02  0.00000000000E+00 0.  1.
</event>
<event>
12    1  0.1345781E-002  0.5183689E+03  0.7818608E-02  0.1009093E+00
          2   -1    0    0  502    0  0.00000000000E+00  0.00000000000E+00  0.42927997331E+03  0.42927997331E+03  0.00000000000E+00 0.  1.
         -2   -1    0    0    0  501 -0.00000000000E+00 -0.00000000000E+00 -0.94646308012E+03  0.94646308012E+03  0.00000000000E+00 0. -1.
          6    2    1    2  502    0 -0.11654267603E+03  0.47123947442E+03  0.14066147954E+03  0.54011861946E+03  0.19050888082E+03 0.  0.
         24    2    3    3    0    0  0.23055055279E+02  0.15596390890E+03  0.41334042550E+02  0.18126734311E+03  0.79328873370E+02 0.  0.
         -6    2    1    2    0  501  0.11654267603E+03 -0.47123947442E+03 -0.65784458636E+03  0.83562443398E+03  0.17280004998E+03 0.  0.
        -24    2    5    5    0    0  0.41354812123E+02 -0.34994482631E+03 -0.54391302970E+03  0.65295507108E+03  0.79607405599E+02 0.  0.
          5    1    3    3  502    0 -0.13959773130E+03  0.31527556552E+03  0.99327436995E+02  0.35885127635E+03  0.47000000000E+01 0. -1.
        -13    1    4    4    0    0 -0.27094817552E+02  0.82397241278E+02  0.28576744631E+02  0.91323955466E+02  0.00000000000E+00 0.  1.
         14    1    4    4    0    0  0.50149872831E+02  0.73566667622E+02  0.12757297919E+02  0.89943387640E+02  0.00000000000E+00 0. -1.
         -5    1    5    5    0  501  0.75187863902E+02 -0.12129464811E+03 -0.11393155666E+03  0.18266936290E+03  0.47000000000E+01 0.  1.
         11    1    6    6    0    0  0.31696367102E+02 -0.24436130886E+03 -0.30896180180E+03  0.39518920017E+03  0.00000000000E+00 0. -1.
        -12    1    6    6    0    0  0.96584450209E+01 -0.10558351744E+03 -0.23495122790E+03  0.25776587091E+03  0.00000000000E+00 0.  1.
</event>
<event>
12    1  0.1345781E-002  0.1871615E+03  0.7818608E-02  0.1161047E+00
          2   -1    0    0  502    0  0.00000000000E+00  0.00000000000E+00  0.13461914051E+04  0.13461914051E+04  0.00000000000E+00 0.  1.
         -2   -1    0    0    0  501 -0.00000000000E+00 -0.00000000000E+00 -0.26201895434E+02  0.26201895434E+02  0.00000000000E+00 0. -1.
          6    2    1    2  502    0  0.57660795344E+02 -0.47525830690E+02  0.71650920724E+03  0.74051593569E+03  0.17144951164E+03 0.  0.
         24    2    3    3    0    0  0.71389155168E+02 -0.75642252376E+02  0.37130186792E+03  0.39386164370E+03  0.80273005655E+02 0.  0.
         -6    2    1    2    0  501 -0.57660795344E+02  0.47525830690E+02  0.60348030244E+03  0.63187736487E+03  0.17174707244E+03 0.  0.
        -24    2    5    5    0    0 -0.48673688903E+02  0.88814449215E+02  0.54212144379E+03  0.55722806724E+03  0.79688924662E+02 0.  0.
          5    1    3    3  502    0 -0.13728359825E+02  0.28116421686E+02  0.34520733932E+03  0.34665429199E+03  0.47000000000E+01 0. -1.
        -13    1    4    4    0    0  0.70916485325E+02 -0.61839200171E+02  0.36775674992E+03  0.37960276827E+03  0.00000000000E+00 0.  1.
         14    1    4    4    0    0  0.47266984367E+00 -0.13803052205E+02  0.35451180075E+01  0.14258875434E+02  0.00000000000E+00 0. -1.
         -5    1    5    5    0  501 -0.89871064409E+01 -0.41288618525E+02  0.61358858651E+02  0.74649297631E+02  0.47000000000E+01 0.  1.
         13    1    6    6    0    0 -0.57990197234E+02  0.66511752704E+02  0.27041121403E+03  0.28444489958E+03  0.00000000000E+00 0. -1.
        -14    1    6    6    0    0  0.93165083315E+01  0.22302696511E+02  0.27171022976E+03  0.27278316765E+03  0.00000000000E+00 0.  1.
</event>
<event>
12    1  0.1345781E-002  0.1974861E+03  0.7818608E-02  0.1151877E+00
          2   -1    0    0  502    0  0.00000000000E+00  0.00000000000E+00  0.36070289080E+03  0.36070289080E+03  0.00000000000E+00 0.  1.
         -2   -1    0    0    0  501 -0.00000000000E+00 -0.00000000000E+00 -0.15150901927E+03  0.15150901927E+03  0.00000000000E+00 0. -1.
          6    2    1    2  502    0 -0.59087402377E+02 -0.75752231863E+02  0.24174564292E+03  0.31232827238E+03  0.17285332541E+03 0.  0.
         24    2    3    3    0    0 -0.59758006820E+02  0.41699719498E+01  0.67650518887E+02  0.12070569912E+03  0.80030400776E+02 0.  0.
         -6    2    1    2    0  501  0.59087402377E+02  0.75752231863E+02 -0.32551771381E+02  0.19988363769E+03  0.17223277575E+03 0.  0.
        -24    2    5    5    0    0 -0.11551876268E+02 -0.78083553093E+01 -0.42379965754E+02  0.89924723450E+02  0.78076745144E+02 0.  0.
          5    1    3    3  502    0  0.67060444244E+00 -0.79922203813E+02  0.17409512403E+03  0.19162257326E+03  0.47000000000E+01 0. -1.
        -13    1    4    4    0    0 -0.17248712545E+02 -0.66686873004E+01  0.74092888257E+02  0.76365866492E+02  0.00000000000E+00 0.  1.
         14    1    4    4    0    0 -0.42509294275E+02  0.10838659250E+02 -0.64423693701E+01  0.44339832625E+02  0.00000000000E+00 0. -1.
         -5    1    5    5    0  501  0.70639278645E+02  0.83560587172E+02  0.98281943723E+01  0.10995891424E+03  0.47000000000E+01 0.  1.
         11    1    6    6    0    0  0.13478186994E+02  0.27976362882E+02 -0.32893806411E+02  0.45236499699E+02  0.00000000000E+00 0. -1.
        -12    1    6    6    0    0 -0.25030063262E+02 -0.35784718192E+02 -0.94861593429E+01  0.44688223751E+02  0.00000000000E+00 0.  1.
</event>
<event>
12    1  0.1345781E-002  0.2828520E+03  0.7818608E-02  0.1094141E+00
         -2   -1    0    0    0  501 -0.00000000000E+00  0.00000000000E+00  0.66721215185E+02  0.66721215185E+02  0.00000000000E+00 0.  1.
          2   -1    0    0  502    0  0.00000000000E+00 -0.00000000000E+00 -0.12399370208E+04  0.12399370208E+04  0.00000000000E+00 0. -1.
          6    2    1    2  502    0  0.17326880082E+03 -0.14215565068E+03 -0.46489035539E+03  0.54334996706E+03  0.16992891988E+03 0.  0.
         24    2    3    3    0    0  0.18856577709E+03 -0.85182670067E+02 -0.35630331348E+03  0.41968447602E+03  0.79811456896E+02 0.  0.
         -6    2    1    2    0  501 -0.17326880082E+03  0.14215565068E+03 -0.70832545019E+03  0.76330826889E+03  0.17516924277E+03 0.  0.
        -24    2    5    5    0    0 -0.16240005511E+03  0.48802437371E+02 -0.52179625442E+03  0.55438679335E+03  0.79485405701E+02 0.  0.
          5    1    3    3  502    0 -0.15296976263E+02 -0.56972980609E+02 -0.10858704192E+03  0.12366549104E+03  0.47000000000E+01 0. -1.
        -11    1    4    4    0    0 -0.14726467059E+01  0.66250317614E+01 -0.16517497260E+01  0.69848415384E+01  0.00000000000E+00 0.  1.
         12    1    4    4    0    0  0.19003842379E+03 -0.91807701829E+02 -0.35465156375E+03  0.41269963449E+03  0.00000000000E+00 0. -1.
         -5    1    5    5    0  501 -0.10868745715E+02  0.93353213305E+02 -0.18652919577E+03  0.20892147554E+03  0.47000000000E+01 0.  1.
         13    1    6    6    0    0 -0.98023836182E+02  0.16164497000E+01 -0.37141608661E+03  0.38413694792E+03  0.00000000000E+00 0. -1.
        -14    1    6    6    0    0 -0.64376218927E+02  0.47185987671E+02 -0.15038016782E+03  0.17024984543E+03  0.00000000000E+00 0.  1.
</event>
<event>
12    1  0.1345781E-002  0.1758093E+03  0.7818608E-02  0.1171922E+00
          1   -1    0    0  502    0  0.00000000000E+00  0.00000000000E+00  0.17586556463E+04  0.17586556463E+04  0.00000000000E+00 0. -1.
         -1   -1    0    0    0  501 -0.00000000000E+00 -0.00000000000E+00 -0.18806848570E+02  0.18806848570E+02  0.00000000000E+00 0.  1.
          6    2    1    2  502    0 -0.23483598565E+02 -0.18939160865E+02  0.64781483463E+03  0.67154615869E+03  0.17435599237E+03 0.  0.
         24    2    3    3    0    0 -0.45218644667E+02  0.47066722653E+02  0.46142601697E+03  0.47256859655E+03  0.78403489089E+02 0.  0.
         -6    2    1    2    0  501  0.23483598565E+02  0.18939160865E+02  0.10920339631E+04  0.11059163361E+04  0.17205404628E+03 0.  0.
        -24    2    5    5    0    0 -0.35579405249E+02  0.27841006909E+02  0.36469708435E+03  0.37611587956E+03  0.80113518103E+02 0.  0.
          5    1    3    3  502    0  0.21735046102E+02 -0.66005883518E+02  0.18638881766E+03  0.19897756214E+03  0.47000000000E+01 0. -1.
        -13    1    4    4    0    0  0.13262425852E+02  0.25919933781E+02  0.64064801915E+02  0.70370688153E+02  0.00000000000E+00 0.  1.
         14    1    4    4    0    0 -0.58481070519E+02  0.21146788872E+02  0.39736121505E+03  0.40219790840E+03  0.00000000000E+00 0. -1.
         -5    1    5    5    0  501  0.59063003814E+02 -0.89018460434E+01  0.72733687871E+03  0.72980045657E+03  0.47000000000E+01 0.  1.
         13    1    6    6    0    0 -0.16762636048E+02  0.48289536117E+02  0.31549202018E+03  0.31960613271E+03  0.00000000000E+00 0. -1.
        -14    1    6    6    0    0 -0.18816769200E+02 -0.20448529208E+02  0.49205064164E+02  0.56509746852E+02  0.00000000000E+00 0.  1.
</event>
<event>
12    1  0.1345781E-002  0.2087911E+03  0.7818608E-02  0.1142527E+00
         -2   -1    0    0    0  501 -0.00000000000E+00  0.00000000000E+00  0.23686447568E+02  0.23686447568E+02  0.00000000000E+00 0.  1.
          2   -1    0    0  502    0  0.00000000000E+00 -0.00000000000E+00 -0.19822332831E+04  0.19822332831E+04  0.00000000000E+00 0. -1.
          6    2    1    2  502    0  0.58592227683E+02 -0.10297427128E+03 -0.71132824003E+03  0.74135660218E+03  0.17200289776E+03 0.  0.
         24    2    3    3    0    0  0.78703422649E+02 -0.34046043943E+02 -0.27261514409E+03  0.29678171396E+03  0.80043782445E+02 0.  0.
         -6    2    1    2    0  501 -0.58592227683E+02  0.10297427128E+03 -0.12472185955E+04  0.12645631285E+04  0.17183984195E+03 0.  0.
        -24    2    5    5    0    0 -0.57419925500E+02  0.65426704968E+02 -0.11908883479E+04  0.11966928049E+04  0.79252196213E+02 0.  0.
          5    1    3    3  502    0 -0.20111194966E+02 -0.68928227335E+02 -0.43871309594E+03  0.44457488822E+03  0.47000000000E+01 0. -1.
        -11    1    4    4    0    0  0.63329735978E+01 -0.10667546670E+02  0.13288046203E+01  0.12476731474E+02  0.00000000000E+00 0.  1.
         12    1    4    4    0    0  0.72370449051E+02 -0.23378497273E+02 -0.27394394871E+03  0.28430498249E+03  0.00000000000E+00 0. -1.
         -5    1    5    5    0  501 -0.11723021827E+01  0.37547566311E+02 -0.56330247645E+02  0.67870323618E+02  0.47000000000E+01 0.  1.
         11    1    6    6    0    0 -0.60437104615E+01  0.65694566352E+02 -0.62176083020E+03  0.62525101556E+03  0.00000000000E+00 0. -1.
        -12    1    6    6    0    0 -0.51376215039E+02 -0.26786138446E+00 -0.56912751767E+03  0.57144178933E+03  0.00000000000E+00 0.  1.
</event>
<event>
12    1  0.1345781E-002  0.1727507E+03  0.7818608E-02  0.1175009E+00
         -3   -1    0    0    0  501 -0.00000000000E+00  0.00000000000E+00  0.24750730729E+03  0.24750730729E+03  0.00000000000E+00 0. -1.
          3   -1    0    0  502    0  0.00000000000E+00 -0.00000000000E+00 -0.12661429342E+03  0.12661429342E+03  0.00000000000E+00 0.  1.
          6    2    1    2  502    0 -0.22393367685E+02  0.94815224902E+01  0.10117925746E+03  0.19987798585E+03  0.17065346437E+03 0.  0.
         24    2    3    3    0    0 -0.65935370556E+02  0.38783148565E+02  0.94653067573E+02  0.14678210598E+03  0.82062035874E+02 0.  0.
         -6    2    1    2    0  501  0.22393367685E+02 -0.94815224902E+01  0.19713756418E+02  0.17424361486E+03  0.17140840978E+03 0.  0.
        -24    2    5    5    0    0  0.62569529207E+02  0.12981479548E+02 -0.30639394691E+02  0.10586057426E+03  0.78639836466E+02 0.  0.
          5    1    3    3  502    0  0.43542002871E+02 -0.29301626075E+02  0.65261898856E+01  0.53095879869E+02  0.47000000000E+01 0. -1.
        -11    1    4    4    0    0 -0.69194188263E+01  0.24985857122E+02 -0.83785505738E+01  0.27246495604E+02  0.00000000000E+00 0.  1.
         12    1    4    4    0    0 -0.59015951730E+02  0.13797291444E+02  0.10303161815E+03  0.11953561037E+03  0.00000000000E+00 0. -1.
         -5    1    5    5    0  501 -0.40176161522E+02 -0.22463002038E+02  0.50353151109E+02  0.68383040601E+02  0.47000000000E+01 0.  1.
         11    1    6    6    0    0  0.13457098018E+02 -0.19703654948E+02  0.17604029940E+02  0.29651802231E+02  0.00000000000E+00 0. -1.
        -12    1    6    6    0    0  0.49112431189E+02  0.32685134496E+02 -0.48243424631E+02  0.76208772031E+02  0.00000000000E+00 0.  1.
</event>
<event>
12    1  0.1345781E-002  0.2223616E+03  0.7818608E-02  0.1132135E+00
          1   -1    0    0  502    0  0.00000000000E+00  0.00000000000E+00  0.27077585459E+03  0.27077585459E+03  0.00000000000E+00 0.  1.
         -1   -1    0    0    0  501 -0.00000000000E+00 -0.00000000000E+00 -0.25365393109E+03  0.25365393109E+03  0.00000000000E+00 0. -1.
          6    2    1    2  502    0  0.11725082982E+03 -0.79423413998E+02 -0.13021564018E+03  0.25771282810E+03  0.17147580890E+03 0.  0.
         24    2    3    3    0    0  0.13821114991E+02 -0.57325638009E+02 -0.13849751771E+02  0.10039427358E+03  0.80062116821E+02 0.  0.
         -6    2    1    2    0  501 -0.11725082982E+03  0.79423413998E+02  0.14733756368E+03  0.26671695758E+03  0.17138769503E+03 0.  0.
        -24    2    5    5    0    0  0.11869802674E+02  0.54972062537E+02  0.70213778467E+02  0.11426967303E+03  0.70461078702E+02 0.  0.
          5    1    3    3  502    0  0.10342971483E+03 -0.22097775989E+02 -0.11636588841E+03  0.15731855453E+03  0.47000000000E+01 0. -1.
        -11    1    4    4    0    0  0.24942874175E+02  0.13070616339E+02 -0.34719151174E+01  0.28373265202E+02  0.00000000000E+00 0.  1.
         12    1    4    4    0    0 -0.11121759184E+02 -0.70396254348E+02 -0.10377836653E+02  0.72021008374E+02  0.00000000000E+00 0. -1.
         -5    1    5    5    0  501 -0.12912063249E+03  0.24451351461E+02  0.77123785213E+02  0.15244728456E+03  0.47000000000E+01 0.  1.
         13    1    6    6    0    0  0.33734323628E+02  0.32344495413E+01  0.23884322958E+02  0.41459946185E+02  0.00000000000E+00 0. -1.
        -14    1    6    6    0    0 -0.21864520954E+02  0.51737612996E+02  0.46329455509E+02  0.72809726842E+02  0.00000000000E+00 0.  1.
</event>
<event>
12    1  0.1345781E-002  0.1736316E+03  0.7818608E-02  0.1174113E+00
          2   -1    0    0  502    0  0.00000000000E+00  0.00000000000E+00  0.29271842938E+04  0.29271842938E+04  0.00000000000E+00 0.  1.
         -2   -1    0    0    0  501 -0.00000000000E+00 -0.00000000000E+00 -0.10464233716E+02  0.10464233716E+02  0.00000000000E+00 0. -1.
          6    2    1    2  502    0 -0.14964210349E+02 -0.19699114158E+02  0.16411424355E+04  0.16502813315E+04  0.17166245093E+03 0.  0.
         24    2    3    3    0    0 -0.49927089412E+02 -0.31157348602E+02  0.72075747291E+03  0.72914927621E+03  0.93294360082E+02 0.  0.
         -6    2    1    2    0  501  0.14964210349E+02  0.19699114158E+02  0.12755776246E+04  0.12873671960E+04  0.17205824058E+03 0.  0.
        -24    2    5    5    0    0 -0.10046261421E+02 -0.54537102782E+02  0.54706285743E+03  0.55463778097E+03  0.72595283238E+02 0.  0.
          5    1    3    3  502    0  0.34962879063E+02  0.11458234444E+02  0.92038496254E+03  0.92113205531E+03  0.47000000000E+01 0. -1.
        -13    1    4    4    0    0  0.16333077221E+01  0.11170518419E+02  0.45523929730E+03  0.45537925510E+03  0.00000000000E+00 0.  1.
         14    1    4    4    0    0 -0.51560397134E+02 -0.42327867021E+02  0.26551817561E+03  0.27377002111E+03  0.00000000000E+00 0. -1.
         -5    1    5    5    0  501  0.25010471769E+02  0.74236216939E+02  0.72851476720E+03  0.73272941502E+03  0.47000000000E+01 0.  1.
         11    1    6    6    0    0  0.31518355542E+02 -0.20166181861E+02  0.22407835533E+03  0.22718096521E+03  0.00000000000E+00 0. -1.
        -12    1    6    6    0    0 -0.41564616963E+02 -0.34370920921E+02  0.32298450210E+03  0.32745681576E+03  0.00000000000E+00 0.  1.
</event>
<event>
12    1  0.1345781E-002  0.2890911E+03  0.7818608E-02  0.1090825E+00
          2   -1    0    0  502    0  0.00000000000E+00  0.00000000000E+00  0.11581745099E+04  0.11581745099E+04  0.00000000000E+00 0. -1.
         -2   -1    0    0    0  501 -0.00000000000E+00 -0.00000000000E+00 -0.13444257164E+03  0.13444257164E+03  0.00000000000E+00 0.  1.
          6    2    1    2  502    0 -0.22395391449E+03  0.63524707167E+02  0.71407055360E+02  0.29720901795E+03  0.17042150263E+03 0.  0.
         24    2    3    3    0    0 -0.19934702789E+03 -0.68402749996E+01  0.48601173882E+02  0.21911338546E+03  0.76567451916E+02 0.  0.
         -6    2    1    2    0  501  0.22395391449E+03 -0.63524707167E+02  0.95232488287E+03  0.99540806356E+03  0.17240587644E+03 0.  0.
        -24    2    5    5    0    0  0.20367867691E+03 -0.10294205652E+03  0.85232890363E+03  0.88592702158E+03  0.79498787258E+02 0.  0.
          5    1    3    3  502    0 -0.24606886593E+02  0.70364982167E+02  0.22805881478E+02  0.78095632484E+02  0.47000000000E+01 0. -1.
        -11    1    4    4    0    0 -0.10935434779E+03 -0.41690774040E+02  0.23007342224E+02  0.11927209153E+03  0.00000000000E+00 0.  1.
         12    1    4    4    0    0 -0.89992680103E+02  0.34850499040E+02  0.25593831658E+02  0.99841293934E+02  0.00000000000E+00 0. -1.
         -5    1    5    5    0  501  0.20275237576E+02  0.39417349351E+02  0.99995979246E+02  0.10948104198E+03  0.47000000000E+01 0.  1.
         13    1    6    6    0    0  0.36151475765E+02 -0.57329153641E+02  0.25830704295E+03  0.26705072457E+03  0.00000000000E+00 0. -1.
        -14    1    6    6    0    0  0.16752720115E+03 -0.45612902877E+02  0.59402186067E+03  0.61887629700E+03  0.00000000000E+00 0.  1.
</event>
<event>
12    1  0.1345781E-002  0.1998870E+03  0.7818608E-02  0.1149834E+00
         -1   -1    0    0    0  501 -0.00000000000E+00  0.00000000000E+00  0.36283931720E+02  0.36283931720E+02  0.00000000000E+00 0. -1.
          1   -1    0    0  502    0  0.00000000000E+00 -0.00000000000E+00 -0.11207935263E+04  0.11207935263E+04  0.00000000000E+00 0.  1.
          6    2    1    2  502    0  0.67461447712E+02  0.69579445277E+02 -0.46707224743E+03  0.50824671108E+03  0.17540207770E+03 0.  0.
         24    2    3    3    0    0  0.53642767583E+02  0.10748513139E+03 -0.42804161549E+03  0.45191486226E+03  0.81097584182E+02 0.  0.
         -6    2    1    2    0  501 -0.67461447712E+02 -0.69579445277E+02 -0.61743734713E+03  0.64883074693E+03  0.17424154039E+03 0.  0.
        -24    2    5    5    0    0 -0.37401132517E+02 -0.82677131529E+02 -0.59771008847E+03  0.61027654263E+03  0.83341201319E+02 0.  0.
          5    1    3    3  502    0  0.13818680128E+02 -0.37905686116E+02 -0.39030631946E+02  0.56331848812E+02  0.47000000000E+01 0. -1.
        -11    1    4    4    0    0  0.21636471190E+01 -0.23572401072E+01 -0.13125498596E+03  0.13129398040E+03  0.00000000000E+00 0.  1.
         12    1    4    4    0    0  0.51479120464E+02  0.10984237150E+03 -0.29678662953E+03  0.32062088187E+03  0.00000000000E+00 0. -1.
         -5    1    5    5    0  501 -0.30060315195E+02  0.13097686252E+02 -0.19727258663E+02  0.38554204299E+02  0.47000000000E+01 0.  1.
         13    1    6    6    0    0 -0.27635825471E+02 -0.82083937847E+02 -0.29608543293E+03  0.30849326621E+03  0.00000000000E+00 0. -1.
        -14    1    6    6    0    0 -0.97653070458E+01 -0.59319368225E+00 -0.30162465553E+03  0.30178327642E+03  0.00000000000E+00 0.  1.
</event>
<event>
12    1  0.1345781E-002  0.1928387E+03  0.7818608E-02  0.1155926E+00
          1   -1    0    0  502    0  0.00000000000E+00  0.00000000000E+00  0.16711344446E+04  0.16711344446E+04  0.00000000000E+00 0. -1.
         -1   -1    0    0    0  501 -0.00000000000E+00 -0.00000000000E+00 -0.22734574857E+02  0.22734574857E+02  0.00000000000E+00 0.  1.
          6    2    1    2  502    0  0.78173195242E+02  0.62595624996E+02  0.71318374879E+03  0.73953577998E+03  0.16808583997E+03 0.  0.
         24    2    3    3    0    0  0.11675678717E+03  0.25887856852E+02  0.55934089420E+03  0.57666814133E+03  0.73359258572E+02 0.  0.
         -6    2    1    2    0  501 -0.78173195242E+02 -0.62595624996E+02  0.93521612092E+03  0.95433323945E+03  0.16153475901E+03 0.  0.
        -24    2    5    5    0    0 -0.61572284345E+02 -0.58994513732E+02  0.35321851946E+03  0.37206881811E+03  0.80002400437E+02 0.  0.
          5    1    3    3  502    0 -0.38583591932E+02  0.36707768144E+02  0.15384285459E+03  0.16286763864E+03  0.47000000000E+01 0. -1.
        -11    1    4    4    0    0  0.68408823023E+02  0.51245687299E+02  0.32500917957E+03  0.33606078965E+03  0.00000000000E+00 0.  1.
         12    1    4    4    0    0  0.48347964151E+02 -0.25357830447E+02  0.23433171463E+03  0.24060735168E+03  0.00000000000E+00 0. -1.
         -5    1    5    5    0  501 -0.16600910898E+02 -0.36011112642E+01  0.58199760146E+03  0.58226442134E+03  0.47000000000E+01 0.  1.
         13    1    6    6    0    0 -0.21223445186E+02  0.17388695961E+02  0.12671133051E+03  0.12964784091E+03  0.00000000000E+00 0. -1.
        -14    1    6    6    0    0 -0.40348839159E+02 -0.76383209693E+02  0.22650718895E+03  0.24242097721E+03  0.00000000000E+00 0.  1.
</event>
<event>
12    1  0.1345781E-002  0.1728134E+03  0.7818608E-02  0.1174945E+00
         -2   -1    0    0    0  501 -0.00000000000E+00  0.00000000000E+00  0.12870642916E+02  0.12870642916E+02  0.00000000000E+00 0.  1.
          2   -1    0    0  502    0  0.00000000000E+00 -0.00000000000E+00 -0.23421531734E+04  0.23421531734E+04  0.00000000000E+00 0. -1.
          6    2    1    2  502    0  0.25501300024E+01  0.11611090959E+02 -0.12775776041E+04  0.12891994457E+04  0.17230599453E+03 0.  0.
         24    2    3    3    0    0  0.63086357856E+02  0.33135908201E+02 -0.80021494703E+03  0.80750955689E+03  0.81546588232E+02 0.  0.
         -6    2    1    2    0  501 -0.25501300024E+01 -0.11611090959E+02 -0.10517049264E+04  0.10658243706E+04  0.17250222079E+03 0.  0.
        -24    2    5    5    0    0 -0.44865166304E+02 -0.56876647683E+02 -0.53875818913E+03  0.54912718831E+03  0.77668825064E+02 0.  0.
          5    1    3    3  502    0 -0.60536227853E+02 -0.21524817242E+02 -0.47736265709E+03  0.48168988885E+03  0.47000000000E+01 0. -1.
        -11    1    4    4    0    0  0.50777772829E+02  0.14199173793E+02 -0.75622108434E+03  0.75805694189E+03  0.00000000000E+00 0.  1.
         12    1    4    4    0    0  0.12308585026E+02  0.18936734408E+02 -0.43993862691E+02  0.49452614996E+02  0.00000000000E+00 0. -1.
         -5    1    5    5    0  501  0.42315036301E+02  0.45265556725E+02 -0.51294673728E+03  0.51669718231E+03  0.47000000000E+01 0.  1.
         11    1    6    6    0    0 -0.18802760661E+02 -0.48882268467E+02 -0.49365575206E+03  0.49642624983E+03  0.00000000000E+00 0. -1.
        -12    1    6    6    0    0 -0.26062405643E+02 -0.79943792160E+01 -0.45102437075E+02  0.52700938484E+02  0.00000000000E+00 0.  1.
</event>
<event>
12    1  0.1345781E-002  0.1796102E+03  0.7818608E-02  0.1168181E+00
         -2   -1    0    0    0  501 -0.00000000000E+00  0.00000000000E+00  0.25286988570E+03  0.25286988570E+03  0.00000000000E+00 0.  1.
          2   -1    0    0  502    0  0.00000000000E+00 -0.00000000000E+00 -0.13204320549E+03  0.13204320549E+03  0.00000000000E+00 0. -1.
          6    2    1    2  502    0 -0.33417415765E+02 -0.77617631633E+01  0.23846417882E+02  0.17661967531E+03  0.17160678721E+03 0.  0.
         24    2    3    3    0    0 -0.10725564205E+02 -0.63921367770E+02  0.44861096379E+02  0.11233493350E+03  0.80035244308E+02 0.  0.
         -6    2    1    2    0  501  0.33417415765E+02  0.77617631633E+01  0.96980262327E+02  0.20829341587E+03  0.18111876538E+03 0.  0.
        -24    2    5    5    0    0 -0.39636655538E+01 -0.55332245793E+02  0.93623585956E+02  0.13473013371E+03  0.79432140929E+02 0.  0.
          5    1    3    3  502    0 -0.22691851559E+02  0.56159604607E+02 -0.21014678497E+02  0.64284741806E+02  0.47000000000E+01 0. -1.
        -13    1    4    4    0    0  0.33363021317E+02 -0.20148866093E+02  0.70553279043E+01  0.39608656226E+02  0.00000000000E+00 0.  1.
         14    1    4    4    0    0 -0.44088585522E+02 -0.43772501677E+02  0.37805768474E+02  0.72726277275E+02  0.00000000000E+00 0. -1.
         -5    1    5    5    0  501  0.37381081318E+02  0.63094008956E+02  0.33566763708E+01  0.73563282165E+02  0.47000000000E+01 0.  1.
         13    1    6    6    0    0  0.34709955253E+02 -0.36978667359E+02  0.32969707652E+02  0.60491358523E+02  0.00000000000E+00 0. -1.
        -14    1    6    6    0    0 -0.38673620807E+02 -0.18353578434E+02  0.60653878305E+02  0.74238775185E+02  0.00000000000E+00 0.  1.
</event>
<event>
12    1  0.1345781E-002  0.1766617E+03  0.7818608E-02  0.1171073E+00
          2   -1    0    0  502    0  0.00000000000E+00  0.00000000000E+00  0.20886552347E+04  0.20886552347E+04  0.00000000000E+00 0.  1.
         -2   -1    0    0    0  501 -0.00000000000E+00 -0.00000000000E+00 -0.15714384619E+02  0.15714384619E+02  0.00000000000E+00 0. -1.
          6    2    1    2  502    0  0.13650800669E+02 -0.34847352141E+02  0.12698076870E+04  0.12820406654E+04  0.17267316958E+03 0.  0.
         24    2    3    3    0    0  0.28866893332E+02 -0.82092010316E+02  0.70439629260E+03  0.71443541339E+03  0.81678805035E+02 0.  0.
         -6    2    1    2    0  501 -0.13650800669E+02  0.34847352141E+02  0.80313316306E+03  0.82232895389E+03  0.17263067075E+03 0.  0.
        -24    2    5    5    0    0  0.42711695063E+02 -0.15863442386E+02  0.56057686296E+03  0.56815585475E+03  0.80490485779E+02 0.  0.
          5    1    3    3  502    0 -0.15216092663E+02  0.47244658175E+02  0.56541139441E+03  0.56760525203E+03  0.47000000000E+01 0. -1.
        -11    1    4    4    0    0 -0.26270287950E+02 -0.45305370738E+02  0.34959308959E+03  0.35349403522E+03  0.00000000000E+00 0.  1.
         12    1    4    4    0    0  0.55137181282E+02 -0.36786639579E+02  0.35480320301E+03  0.36094137817E+03  0.00000000000E+00 0. -1.
         -5    1    5    5    0  501 -0.56362495732E+02  0.50710794528E+02  0.24255630011E+03  0.25417309914E+03  0.47000000000E+01 0.  1.
         13    1    6    6    0    0  0.99863540746E+01  0.13364087038E+02  0.21104764077E+02  0.26902363406E+02  0.00000000000E+00 0. -1.
        -14    1    6    6    0    0  0.32725340988E+02 -0.29227529424E+02  0.53947209888E+03  0.54125349134E+03  0.00000000000E+00 0.  1.
</event>
<event>
12    1  0.1345781E-002  0.3557271E+03  0.7818608E-02  0.1060289E+00
          1   -1    0    0  502    0  0.00000000000E+00  0.00000000000E+00  0.12958465835E+04  0.12958465835E+04  0.00000000000E+00 0.  1.
         -1   -1    0    0    0  501 -0.00000000000E+00 -0.00000000000E+00 -0.21393260566E+03  0.21393260566E+03  0.00000000000E+00 0. -1.
          6    2    1    2  502    0  0.23731414501E+03  0.20146995808E+03  0.10973195134E+04  0.11534586718E+04  0.17160607644E+03 0.  0.
         24    2    3    3    0    0  0.12424023185E+03  0.47494511893E+02  0.36662598288E+03  0.39819098845E+03  0.80312440434E+02 0.  0.
         -6    2    1    2    0  501 -0.23731414501E+03 -0.20146995808E+03 -0.15405535630E+02  0.35632051735E+03  0.17268130509E+03 0.  0.
        -24    2    5    5    0    0 -0.10185103251E+03 -0.17311320201E+03  0.67932310689E+01  0.21607346496E+03  0.79371158095E+02 0.  0.
          5    1    3    3  502    0  0.11307391316E+03  0.15397544619E+03  0.73069353055E+03  0.75526768331E+03  0.47000000000E+01 0. -1.
        -11    1    4    4    0    0  0.70781899801E+02  0.41661618342E+02  0.30744754570E+03  0.31822910166E+03  0.00000000000E+00 0.  1.
         12    1    4    4    0    0  0.53458332048E+02  0.58328935518E+01  0.59178437176E+02  0.79961886791E+02  0.00000000000E+00 0. -1.
         -5    1    5    5    0  501 -0.13546311250E+03 -0.28356756077E+02 -0.22198766699E+02  0.14024705240E+03  0.47000000000E+01 0.  1.
         11    1    6    6    0    0 -0.11473501388E+03 -0.15664490897E+03  0.26798236405E+00  0.19416957210E+03  0.00000000000E+00 0. -1.
        -12    1    6    6    0    0  0.12883981369E+02 -0.16468293039E+02  0.65252487048E+01  0.21903892855E+02  0.00000000000E+00 0.  1.
</event>
<event>
12    1  0.1345781E-002  0.1774860E+03  0.7818608E-02  0.1170258E+00
         -2   -1    0    0    0  501 -0.00000000000E+00  0.00000000000E+00  0.22253913308E+02  0.22253913308E+02  0.00000000000E+00 0. -1.
          2   -1    0    0  502    0  0.00000000000E+00 -0.00000000000E+00 -0.15638668274E+04  0.15638668274E+04  0.00000000000E+00 0.  1.
          6    2    1    2  502    0  0.27332370002E+01 -0.35452886869E+02 -0.51905167619E+03  0.54793342723E+03  0.17190701077E+03 0.  0.
         24    2    3    3    0    0  0.40023749112E+02 -0.10087589931E+02 -0.13992041355E+03  0.16610023735E+03  0.79422331602E+02 0.  0.
         -6    2    1    2    0  501 -0.27332370002E+01  0.35452886869E+02 -0.10225612379E+04  0.10381873135E+04  0.17588926866E+03 0.  0.
        -24    2    5    5    0    0  0.56393784256E+01  0.74939292087E+02 -0.93690583191E+03  0.94338111399E+03  0.80794110381E+02 0.  0.
          5    1    3    3  502    0 -0.37290512112E+02 -0.25365296937E+02 -0.37913126264E+03  0.38183318988E+03  0.47000000000E+01 0. -1.
        -13    1    4    4    0    0 -0.79182748874E+00  0.22806110323E+02 -0.92964645719E+02  0.95724453576E+02  0.00000000000E+00 0.  1.
         14    1    4    4    0    0  0.40815576601E+02 -0.32893700254E+02 -0.46955767833E+02  0.70375783778E+02  0.00000000000E+00 0. -1.
         -5    1    5    5    0  501 -0.83726154258E+01 -0.39486405218E+02 -0.85655406011E+02  0.94806199507E+02  0.47000000000E+01 0.  1.
         11    1    6    6    0    0  0.15438784598E+02  0.40158138629E+02 -0.16146239001E+03  0.16709618654E+03  0.00000000000E+00 0. -1.
        -12    1    6    6    0    0 -0.97994061723E+01  0.34781153458E+02 -0.77544344190E+03  0.77628492745E+03  0.00000000000E+00 0.  1.
</event>
<event>
12    1  0.1345781E-002  0.1784042E+03  0.7818608E-02  0.1169356E+00
          1   -1    0    0  502    0  0.00000000000E+00  0.00000000000E+00  0.25135660203E+03  0.25135660203E+03  0.00000000000E+00 0. -1.
         -1   -1    0    0    0  501 -0.00000000000E+00 -0.00000000000E+00 -0.14474420419E+03  0.14474420419E+03  0.00000000000E+00 0.  1.
          6    2    1    2  502    0  0.36365422825E+02  0.13962876960E+02  0.12268191244E+03  0.21450557191E+03  0.17159365615E+03 0.  0.
         24    2    3    3    0    0  0.39213541800E+02 -0.49871331957E+02  0.10774411569E+03  0.14871692714E+03  0.80517565408E+02 0.  0.
         -6    2    1    2    0  501 -0.36365422825E+02 -0.13962876960E+02 -0.16069514602E+02  0.18159523431E+03  0.17663859690E+03 0.  0.
        -24    2    5    5    0    0 -0.16414006873E+02  0.62130005605E+02 -0.83176532830E+00  0.10133026824E+03  0.78342671702E+02 0.  0.
          5    1    3    3  502    0 -0.28481189746E+01  0.63834208917E+02  0.14937796744E+02  0.65788644775E+02  0.47000000000E+01 0. -1.
        -11    1    4    4    0    0 -0.75323711420E+01 -0.39169902843E+02  0.12031373711E+02  0.41662595420E+02  0.00000000000E+00 0.  1.
         12    1    4    4    0    0  0.46745912942E+02 -0.10701429114E+02  0.95712741982E+02  0.10705433172E+03  0.00000000000E+00 0. -1.
         -5    1    5    5    0  501 -0.19951415953E+02 -0.76092882565E+02 -0.15237749274E+02  0.80264966071E+02  0.47000000000E+01 0.  1.
         11    1    6    6    0    0  0.30896938992E+02  0.23111838101E+02 -0.85527714419E+01  0.39521232253E+02  0.00000000000E+00 0. -1.
        -12    1    6    6    0    0 -0.47310945864E+02  0.39018167504E+02  0.77210061136E+01  0.61809035985E+02  0.00000000000E+00 0.  1.
</event>
<event>
12    1  0.1345781E-002  0.2314109E+03  0.7818608E-02  0.1125651E+00
          2   -1    0    0  502    0  0.00000000000E+00  0.00000000000E+00  0.29948408543E+03  0.29948408543E+03  0.00000000000E+00 0. -1.
         -2   -1    0    0    0  501 -0.00000000000E+00 -0.00000000000E+00 -0.28503848799E+03  0.28503848799E+03  0.00000000000E+00 0.  1.
          6    2    1    2  502    0  0.65177951553E+02 -0.14040508633E+03  0.18564099246E+03  0.29668356620E+03  0.17203722486E+03 0.  0.
         24    2    3    3    0    0 -0.86956540797E+00 -0.55310668268E+02  0.21680862426E+02  0.10044812414E+03  0.80992219869E+02 0.  0.
         -6    2    1    2    0  501 -0.65177951553E+02  0.14040508633E+03 -0.17119539502E+03  0.28783900722E+03  0.17199324745E+03 0.  0.
        -24    2    5    5    0    0 -0.10947096196E+03  0.12038117403E+03 -0.14502496232E+03  0.23243314668E+03  0.80730473836E+02 0.  0.
          5    1    3    3  502    0  0.66047516961E+02 -0.85094418057E+02  0.16396013003E+03  0.19623544206E+03  0.47000000000E+01 0. -1.
        -13    1    4    4    0    0  0.33007684071E+02 -0.12303257339E+02 -0.10732493344E+02  0.36824771042E+02  0.00000000000E+00 0.  1.
         14    1    4    4    0    0 -0.33877249479E+02 -0.43007410929E+02  0.32413355770E+02  0.63623353098E+02  0.00000000000E+00 0. -1.
         -5    1    5    5    0  501  0.44293010409E+02  0.20023912296E+02 -0.26170432700E+02  0.55405860542E+02  0.47000000000E+01 0.  1.
         11    1    6    6    0    0  0.12405078220E+02  0.55177698613E+01 -0.63065315503E+01  0.14970106549E+02  0.00000000000E+00 0. -1.
        -12    1    6    6    0    0 -0.12187604018E+03  0.11486340417E+03 -0.13871843077E+03  0.21746304013E+03  0.00000000000E+00 0.  1.
</event>
<event>
12    1  0.1345781E-002  0.2696283E+03  0.7818608E-02  0.1101493E+00
         -2   -1    0    0    0  501 -0.00000000000E+00  0.00000000000E+00  0.50063040939E+02  0.50063040939E+02  0.00000000000E+00 0. -1.
          2   -1    0    0  502    0  0.00000000000E+00 -0.00000000000E+00 -0.14594450191E+04  0.14594450191E+04  0.00000000000E+00 0.  1.
          6    2    1    2  502    0  0.18647834208E+03  0.92653597246E+02 -0.65231433057E+03  0.70598189976E+03  0.17186505103E+03 0.  0.
         24    2    3    3    0    0  0.57471948327E+02  0.26669273501E+02 -0.41767624185E+03  0.43016728214E+03  0.81093604116E+02 0.  0.
         -6    2    1    2    0  501 -0.18647834208E+03 -0.92653597246E+02 -0.75706764759E+03  0.80352616028E+03  0.17071615649E+03 0.  0.
        -24    2    5    5    0    0 -0.15333944215E+03 -0.11013720373E+03 -0.45525104796E+03  0.49935644944E+03  0.80375112825E+02 0.  0.
          5    1    3    3  502    0  0.12900639375E+03  0.65984323745E+02 -0.23463808873E+03  0.27581461761E+03  0.47000000000E+01 0. -1.
        -11    1    4    4    0    0  0.29490906066E+02  0.53495265612E+02 -0.30362072831E+03  0.30970470394E+03  0.00000000000E+00 0.  1.
         12    1    4    4    0    0  0.27981042260E+02 -0.26825992111E+02 -0.11405551353E+03  0.12046257820E+03  0.00000000000E+00 0. -1.
         -5    1    5    5    0  501 -0.33138899927E+02  0.17483606488E+02 -0.30181659963E+03  0.30416971084E+03  0.47000000000E+01 0.  1.
         11    1    6    6    0    0 -0.26643028471E+02 -0.99744386104E+01 -0.19108644256E+02  0.34270697060E+02  0.00000000000E+00 0. -1.
        -12    1    6    6    0    0 -0.12669641368E+03 -0.10016276512E+03 -0.43614240370E+03  0.46508575238E+03  0.00000000000E+00 0.  1.
</event>
<event>
12    1  0.1345781E-002  0.1820343E+03  0.7818608E-02  0.1165849E+00
         -2   -1    0    0    0  501 -0.00000000000E+00  0.00000000000E+00  0.27096688874E+02  0.27096688874E+02  0.00000000000E+00 0.  1.
          2   -1    0    0  502    0  0.00000000000E+00 -0.00000000000E+00 -0.14987605484E+04  0.14987605484E+04  0.00000000000E+00 0. -1.
          6    2    1    2  502    0 -0.55030872333E+02  0.21158014872E+02 -0.10618480391E+04  0.10772721490E+04  0.17180793442E+03 0.  0.
         24    2    3    3    0    0 -0.83717697575E+02 -0.27253799538E+02 -0.56123647100E+03  0.57348581548E+03  0.78410341734E+02 0.  0.
         -6    2    1    2    0  501  0.55030872333E+02 -0.21158014872E+02 -0.40981582041E+03  0.44858508828E+03  0.17263694929E+03 0.  0.
        -24    2    5    5    0    0  0.20232554971E+02 -0.87560876869E+02 -0.28224036369E+03  0.30053830469E+03  0.50866356774E+02 0.  0.
          5    1    3    3  502    0  0.28686825242E+02  0.48411814409E+02 -0.50061156809E+03  0.50378633351E+03  0.47000000000E+01 0. -1.
        -11    1    4    4    0    0 -0.48040966015E+02 -0.14576740732E+02 -0.11296702602E+03  0.12362024411E+03  0.00000000000E+00 0.  1.
         12    1    4    4    0    0 -0.35676731560E+02 -0.12677058805E+02 -0.44826944498E+03  0.44986557136E+03  0.00000000000E+00 0. -1.
         -5    1    5    5    0  501  0.34798317361E+02  0.66402861997E+02 -0.12757545673E+03  0.14804678359E+03  0.47000000000E+01 0.  1.
         11    1    6    6    0    0  0.99235665894E+01 -0.42672784835E+02 -0.64447953718E+02  0.77929342855E+02  0.00000000000E+00 0. -1.
        -12    1    6    6    0    0  0.10308988382E+02 -0.44888092034E+02 -0.21779240997E+03  0.22260896183E+03  0.00000000000E+00 0.  1.
</event>
<event>
12    1  0.1345781E-002  0.2889185E+03  0.7818608E-02  0.1090915E+00
          2   -1    0    0  502    0  0.00000000000E+00  0.00000000000E+00  0.28523342610E+04  0.28523342610E+04  0.00000000000E+00 0.  1.
         -2   -1    0    0    0  501 -0.00000000000E+00 -0.00000000000E+00 -0.30900422004E+02  0.30900422004E+02  0.00000000000E+00 0. -1.
          6    2    1    2  502    0 -0.22590358871E+03  0.51293214648E+02  0.10814585510E+04  0.11195192952E+04  0.17351492595E+03 0.  0.
         24    2    3    3    0    0 -0.77376427726E+02  0.65762949041E+02  0.39025168121E+03  0.41237099561E+03  0.86264629478E+02 0.  0.
         -6    2    1    2    0  501  0.22590358871E+03 -0.51293214648E+02  0.17399752880E+04  0.17637153878E+04  0.17179796592E+03 0.  0.
        -24    2    5    5    0    0  0.84770084749E+02 -0.56531073462E+02  0.11420197130E+04  0.11492895902E+04  0.79219995655E+02 0.  0.
          5    1    3    3  502    0 -0.14852716098E+03 -0.14469734394E+02  0.69120686980E+03  0.70714829959E+03  0.47000000000E+01 0. -1.
        -13    1    4    4    0    0  0.16119673338E+02  0.24573818195E+02  0.11728560897E+03  0.12091166395E+03  0.00000000000E+00 0.  1.
         14    1    4    4    0    0 -0.93496101064E+02  0.41189130846E+02  0.27296607225E+03  0.29145933166E+03  0.00000000000E+00 0. -1.
         -5    1    5    5    0  501  0.14113350396E+03  0.52378588148E+01  0.59795557498E+03  0.61442579760E+03  0.47000000000E+01 0.  1.
         11    1    6    6    0    0  0.66429433806E+02 -0.39781066985E+02  0.43525698165E+03  0.44209053715E+03  0.00000000000E+00 0. -1.
        -12    1    6    6    0    0  0.18340650943E+02 -0.16750006478E+02  0.70676273140E+03  0.70719905309E+03  0.00000000000E+00 0.  1.
</event>
<event>
12    1  0.1345781E-002  0.1811729E+03  0.7818608E-02  0.1166673E+00
          4   -1    0    0  502    0  0.00000000000E+00  0.00000000000E+00  0.32153704448E+03  0.32153704448E+03  0.00000000000E+00 0. -1.
         -4   -1    0    0    0  501 -0.00000000000E+00 -0.00000000000E+00 -0.15590695510E+03  0.15590695510E+03  0.00000000000E+00 0.  1.
          6    2    1    2  502    0  0.54967506420E+02 -0.35816939050E+01  0.22265266995E+03  0.28617906681E+03  0.17114319020E+03 0.  0.
         24    2    3    3    0    0  0.89950488211E+02  0.32199708272E+02  0.12562456264E+03  0.17690573354E+03  0.79913680172E+02 0.  0.
         -6    2    1    2    0  501 -0.54967506420E+02  0.35816939050E+01 -0.57022580573E+02  0.19126493277E+03  0.17405873870E+03 0.  0.
        -24    2    5    5    0    0  0.63667593081E+01 -0.27606714308E+01  0.28010423647E+02  0.86123030763E+02  0.81144535639E+02 0.  0.
          5    1    3    3  502    0 -0.34982981791E+02 -0.35781402177E+02  0.97028107303E+02  0.10927333327E+03  0.47000000000E+01 0. -1.
        -11    1    4    4    0    0  0.84976413311E+01  0.82664668602E+01 -0.10921838808E+02  0.16119272487E+02  0.00000000000E+00 0.  1.
         12    1    4    4    0    0  0.81452846880E+02  0.23933241412E+02  0.13654640145E+03  0.16078646106E+03  0.00000000000E+00 0. -1.
         -5    1    5    5    0  501 -0.61334265728E+02  0.63423653358E+01 -0.85033004220E+02  0.10514190200E+03  0.47000000000E+01 0.  1.
         13    1    6    6    0    0 -0.23134733895E+02 -0.28061202628E+02  0.30090842870E+02  0.47202815911E+02  0.00000000000E+00 0. -1.
        -14    1    6    6    0    0  0.29501493203E+02  0.25300531197E+02 -0.20804192223E+01  0.38920214853E+02  0.00000000000E+00 0.  1.
</event>
<event>
12    1  0.1345781E-002  0.2102204E+03  0.7818608E-02  0.1141392E+00
         -1   -1    0    0    0  501 -0.00000000000E+00  0.00000000000E+00  0.18424552018E+03  0.18424552018E+03  0.00000000000E+00 0.  1.
          1   -1    0    0  502    0  0.00000000000E+00 -0.00000000000E+00 -0.44825883252E+03  0.44825883252E+03  0.00000000000E+00 0. -1.
          6    2    1    2  502    0 -0.30234735027E+02  0.11710909175E+03  0.83590928110E+02  0.22633392557E+03  0.17207824973E+03 0.  0.
         24    2    3    3    0    0 -0.30951966481E+02  0.12297304755E+03  0.11800314913E+03  0.19110337982E+03  0.80717804242E+02 0.  0.
         -6    2    1    2    0  501  0.30234735027E+02 -0.11710909175E+03 -0.34760424045E+03  0.40617042713E+03  0.17180520750E+03 0.  0.
        -24    2    5    5    0    0  0.83106128188E+02 -0.42688472562E+02 -0.18771425736E+03  0.22199467013E+03  0.72911294859E+02 0.  0.
          5    1    3    3  502    0  0.71723145375E+00 -0.58639558058E+01 -0.34412221016E+02  0.35230545751E+02  0.47000000000E+01 0. -1.
        -13    1    4    4    0    0 -0.38775571652E+02  0.61669924824E+02  0.20521485477E+02  0.75682600053E+02  0.00000000000E+00 0.  1.
         14    1    4    4    0    0  0.78236051705E+01  0.61303122728E+02  0.97481663649E+02  0.11542077977E+03  0.00000000000E+00 0. -1.
         -5    1    5    5    0  501 -0.52871393160E+02 -0.74420619184E+02 -0.15988998309E+03  0.18417575700E+03  0.47000000000E+01 0.  1.
         11    1    6    6    0    0  0.57910737840E+02 -0.27252704490E+01 -0.50534066275E+02  0.76907558214E+02  0.00000000000E+00 0. -1.
        -12    1    6    6    0    0  0.25195390347E+02 -0.39963202113E+02 -0.13718019109E+03  0.14508711192E+03  0.00000000000E+00 0.  1.
</event>
<event>
12    1  0.1345781E-002  0.1990567E+03  0.7818608E-02  0.1150537E+00
          1   -1    0    0  502    0  0.00000000000E+00  0.00000000000E+00  0.20314565494E+04  0.20314565494E+04  0.00000000000E+00 0.  1.
         -1   -1    0    0    0  501 -0.00000000000E+00 -0.00000000000E+00 -0.21343976720E+02  0.21343976720E+02  0.00000000000E+00 0. -1.
          6    2    1    2  502    0  0.65236756930E+02  0.77161211208E+02  0.13065717600E+04  0.13216557664E+04  0.17156489632E+03 0.  0.
         24    2    3    3    0    0  0.10412106402E+03  0.28488494980E+02  0.80968328501E+03  0.82085513810E+03  0.81014476542E+02 0.  0.
         -6    2    1    2    0  501 -0.65236756930E+02 -0.77161211208E+02  0.70354081261E+03  0.73114475973E+03  0.17144473659E+03 0.  0.
        -24    2    5    5    0    0 -0.79086521137E+02 -0.72031660011E+02  0.70303074528E+03  0.71563739268E+03  0.80258402203E+02 0.  0.
          5    1    3    3  502    0 -0.38884307092E+02  0.48672716229E+02  0.49688847503E+03  0.50080062826E+03  0.47000000000E+01 0. -1.
        -13    1    4    4    0    0  0.43848592882E+02  0.53942456335E+02  0.40933673782E+03  0.41519760672E+03  0.00000000000E+00 0.  1.
         14    1    4    4    0    0  0.60272471139E+02 -0.25453961356E+02  0.40034654718E+03  0.40565753138E+03  0.00000000000E+00 0. -1.
         -5    1    5    5    0  501  0.13849764207E+02 -0.51295511975E+01  0.51006732714E+00  0.15507367047E+02  0.47000000000E+01 0.  1.
         13    1    6    6    0    0 -0.32197508729E+01 -0.48635935042E+02  0.37404941930E+03  0.37721186229E+03  0.00000000000E+00 0. -1.
        -14    1    6    6    0    0 -0.75866770264E+02 -0.23395724968E+02  0.32898132599E+03  0.33842553040E+03  0.00000000000E+00 0.  1.
</event>
<event>
12    1  0.1345781E-002  0.3731451E+03  0.7818608E-02  0.1053497E+00
         -2   -1    0    0    0  501 -0.00000000000E+00  0.00000000000E+00  0.16090728406E+03  0.16090728406E+03  0.00000000000E+00 0. -1.
          2   -1    0    0  502    0  0.00000000000E+00 -0.00000000000E+00 -0.10837241046E+04  0.10837241046E+04  0.00000000000E+00 0.  1.
          6    2    1    2  502    0  0.31711626105E+03 -0.94990469810E+02 -0.18261029916E+03  0.41594894041E+03  0.17343900165E+03 0.  0.
         24    2    3    3    0    0  0.15468310416E+03  0.18376510386E+02 -0.94876285125E+02  0.19925572437E+03  0.80229516836E+02 0.  0.
         -6    2    1    2    0  501 -0.31711626105E+03  0.94990469810E+02 -0.74020652137E+03  0.82868244825E+03  0.17094734099E+03 0.  0.
        -24    2    5    5    0    0 -0.91559520892E+02  0.32750372687E+02 -0.16143926437E+03  0.20438820634E+03  0.79095954583E+02 0.  0.
          5    1    3    3  502    0  0.16243315689E+03 -0.11336698020E+03 -0.87734014039E+02  0.21669321603E+03  0.47000000000E+01 0. -1.
        -11    1    4    4    0    0  0.65873916506E+02  0.23592098606E+02 -0.84470603673E+02  0.10968702237E+03  0.00000000000E+00 0.  1.
         12    1    4    4    0    0  0.88809187650E+02 -0.52155882203E+01 -0.10405681452E+02  0.89568702001E+02  0.00000000000E+00 0. -1.
         -5    1    5    5    0  501 -0.22555674015E+03  0.62240097123E+02 -0.57876725700E+03  0.62429424192E+03  0.47000000000E+01 0.  1.
         11    1    6    6    0    0 -0.76755999398E+02 -0.69142624189E+01 -0.13190141265E+03  0.15276541863E+03  0.00000000000E+00 0. -1.
        -12    1    6    6    0    0 -0.14803521494E+02  0.39664635106E+02 -0.29537851718E+02  0.51622787709E+02  0.00000000000E+00 0.  1.
</event>
<event>
12    1  0.1345781E-002  0.2778178E+03  0.7818608E-02  0.1096887E+00
         -2   -1    0    0    0  501 -0.00000000000E+00  0.00000000000E+00  0.71681938996E+02  0.71681938996E+02  0.00000000000E+00 0. -1.
          2   -1    0    0  502    0  0.00000000000E+00 -0.00000000000E+00 -0.10791002503E+04  0.10791002503E+04  0.00000000000E+00 0.  1.
          6    2    1    2  502    0  0.21619298689E+03 -0.43739066980E+02 -0.53099340840E+03  0.59937582548E+03  0.16924794487E+03 0.  0.
         24    2    3    3    0    0  0.19233422030E+03  0.23101669453E+02 -0.39320258204E+03  0.44431026961E+03  0.72644378457E+02 0.  0.
         -6    2    1    2    0  501 -0.21619298689E+03  0.43739066980E+02 -0.47642490295E+03  0.55140636386E+03  0.16856979681E+03 0.  0.
        -24    2    5    5    0    0 -0.13563333874E+03  0.14217832668E+02 -0.41919689307E+03  0.44816637499E+03  0.80799227556E+02 0.  0.
          5    1    3    3  502    0  0.23858766591E+02 -0.66840736433E+02 -0.13779082635E+03  0.15506555587E+03  0.47000000000E+01 0. -1.
        -13    1    4    4    0    0  0.99808787963E+02  0.40325333922E+02 -0.16009418711E+03  0.19291986797E+03  0.00000000000E+00 0.  1.
         14    1    4    4    0    0  0.92525432339E+02 -0.17223664469E+02 -0.23310839493E+03  0.25139040164E+03  0.00000000000E+00 0. -1.
         -5    1    5    5    0  501 -0.80559648158E+02  0.29521234312E+02 -0.57228009878E+02  0.10323998887E+03  0.47000000000E+01 0.  1.
         13    1    6    6    0    0 -0.35019286707E+02 -0.24197703815E+02 -0.62908666298E+02  0.75956432294E+02  0.00000000000E+00 0. -1.
        -14    1    6    6    0    0 -0.10061405203E+03  0.38415536483E+02 -0.35628822677E+03  0.37220994270E+03  0.00000000000E+00 0.  1.
</event>
<event>
12    1  0.1345781E-002  0.2229467E+03  0.7818608E-02  0.1131705E+00
          2   -1    0    0  502    0  0.00000000000E+00  0.00000000000E+00  0.71203569118E+02  0.71203569118E+02  0.00000000000E+00 0.  1.
         -2   -1    0    0    0  501 -0.00000000000E+00 -0.00000000000E+00 -0.78121353062E+03  0.78121353062E+03  0.00000000000E+00 0. -1.
          6    2    1    2  502    0 -0.10118935684E+03  0.98133269721E+02 -0.21499243009E+03  0.30922786303E+03  0.17184499328E+03 0.  0.
         24    2    3    3    0    0 -0.11314233272E+03  0.10864171505E+03 -0.12109871208E+03  0.21387891790E+03  0.80467905108E+02 0.  0.
         -6    2    1    2    0  501  0.10118935684E+03 -0.98133269721E+02 -0.49501753140E+03  0.54318923670E+03  0.17361672127E+03 0.  0.
        -24    2    5    5    0    0  0.75191891401E+02 -0.13027948977E+03 -0.31149590630E+03  0.35500973581E+03  0.79847648012E+02 0.  0.
          5    1    3    3  502    0  0.11952975884E+02 -0.10508445327E+02 -0.93893718012E+02  0.95348945132E+02  0.47000000000E+01 0. -1.
        -11    1    4    4    0    0 -0.80149712390E+02  0.27962686075E+02 -0.36471760437E+02  0.92390895212E+02  0.00000000000E+00 0.  1.
         12    1    4    4    0    0 -0.32992620333E+02  0.80679028973E+02 -0.84626951644E+02  0.12148802269E+03  0.00000000000E+00 0. -1.
         -5    1    5    5    0  501  0.25997465438E+02  0.32146220052E+02 -0.18352162510E+03  0.18817950089E+03  0.47000000000E+01 0.  1.
         11    1    6    6    0    0  0.65307228077E+02 -0.73641216296E+02 -0.25931452556E+03  0.27736633888E+03  0.00000000000E+00 0. -1.
        -12    1    6    6    0    0  0.98846633241E+01 -0.56638273478E+02 -0.52181380736E+02  0.77643396931E+02  0.00000000000E+00 0.  1.
</event>
<event>
12    1  0.1345781E-002  0.1804976E+03  0.7818608E-02  0.1167322E+00
         -1   -1    0    0    0  501 -0.00000000000E+00  0.00000000000E+00  0.14545686526E+02  0.14545686526E+02  0.00000000000E+00 0. -1.
          1   -1    0    0  502    0  0.00000000000E+00 -0.00000000000E+00 -0.26091099333E+04  0.26091099333E+04  0.00000000000E+00 0.  1.
          6    2    1    2  502    0  0.57435507254E+02  0.70064223464E+01 -0.80722643252E+03  0.82728336562E+03  0.17156726443E+03 0.  0.
         24    2    3    3    0    0  0.64565744095E+01 -0.57114088764E+02 -0.38545918543E+03  0.39760907938E+03  0.78806661411E+02 0.  0.
         -6    2    1    2    0  501 -0.57435507254E+02 -0.70064223464E+01 -0.17873378142E+04  0.17963722542E+04  0.17037865469E+03 0.  0.
        -24    2    5    5    0    0 -0.33778179548E+02 -0.25953562979E+02 -0.17225583445E+04  0.17246984584E+04  0.74585317778E+02 0.  0.
          5    1    3    3  502    0  0.50978932845E+02  0.64120511111E+02 -0.42176724709E+03  0.42967428624E+03  0.47000000000E+01 0. -1.
        -11    1    4    4    0    0  0.42090319760E+02 -0.25146979786E+02 -0.17228368930E+03  0.17912463596E+03  0.00000000000E+00 0.  1.
         12    1    4    4    0    0 -0.35633745351E+02 -0.31967108978E+02 -0.21317549613E+03  0.21848444342E+03  0.00000000000E+00 0. -1.
         -5    1    5    5    0  501 -0.23657327706E+02  0.18947140632E+02 -0.64779469747E+02  0.71673795721E+02  0.47000000000E+01 0.  1.
         13    1    6    6    0    0  0.11311282162E+02 -0.29717682193E+02 -0.36379881808E+03  0.36518579624E+03  0.00000000000E+00 0. -1.
        -14    1    6    6    0    0 -0.45089461709E+02  0.37641192143E+01 -0.13587595264E+04  0.13595126622E+04  0.00000000000E+00 0.  1.
</event>
<event>
12    1  0.1345781E-002  0.2316323E+03  0.7818608E-02  0.1125496E+00
         -1   -1    0    0    0  501 -0.00000000000E+00  0.00000000000E+00  0.66854394449E+02  0.66854394449E+02  0.00000000000E+00 0.  1.
          1   -1    0    0  502    0  0.00000000000E+00 -0.00000000000E+00 -0.14142549239E+04  0.14142549239E+04  0.00000000000E+00 0. -1.
          6    2    1    2  502    0  0.51931353993E+02 -0.14699424916E+03 -0.18746436764E+03  0.29836668186E+03  0.17197561716E+03 0.  0.
         24    2    3    3    0    0  0.45837601140E+02 -0.17772841506E+03 -0.15155694451E+03  0.25047977538E+03  0.77988045550E+02 0.  0.
         -6    2    1    2    0  501 -0.51931353993E+02  0.14699424916E+03 -0.11599361619E+04  0.11827426365E+04  0.17065775652E+03 0.  0.
        -24    2    5    5    0    0  0.25874116164E+01  0.57558157581E+01 -0.38608634199E+03  0.39420841116E+03  0.79358577612E+02 0.  0.
          5    1    3    3  502    0  0.60937528529E+01  0.30734165894E+02 -0.35907423123E+02  0.47886906481E+02  0.47000000000E+01 0. -1.
        -13    1    4    4    0    0 -0.21038431268E+02 -0.30329923918E+02 -0.36349667787E+02  0.51805581006E+02  0.00000000000E+00 0.  1.
         14    1    4    4    0    0  0.66876032408E+02 -0.14739849114E+03 -0.11520727673E+03  0.19867419438E+03  0.00000000000E+00 0. -1.
         -5    1    5    5    0  501 -0.54518765609E+02  0.14123843340E+03 -0.77384981987E+03  0.78853422538E+03  0.47000000000E+01 0.  1.
         13    1    6    6    0    0  0.45720693045E+01  0.38522905617E+02 -0.29187416907E+03  0.29444090857E+03  0.00000000000E+00 0. -1.
        -14    1    6    6    0    0 -0.19846576881E+01 -0.32767089859E+02 -0.94212172927E+02  0.99767502583E+02  0.00000000000E+00 0.  1.
</event>
<event>
12    1  0.1345781E-002  0.1865957E+03  0.7818608E-02  0.1161568E+00
          2   -1    0    0  502    0  0.00000000000E+00  0.00000000000E+00  0.60789411955E+03  0.60789411955E+03  0.00000000000E+00 0.  1.
         -2   -1    0    0    0  501 -0.00000000000E+00 -0.00000000000E+00 -0.57295630370E+02  0.57295630370E+02  0.00000000000E+00 0. -1.
          6    2    1    2  502    0 -0.16807306664E+02  0.72928311801E+02  0.27102456221E+03  0.32715033982E+03  0.16724834021E+03 0.  0.
         24    2    3    3    0    0 -0.17470575619E+02  0.11132251107E+03  0.24217584277E+03  0.27889173358E+03  0.80209337056E+02 0.  0.
         -6    2    1    2    0  501  0.16807306664E+02 -0.72928311801E+02  0.27957392697E+03  0.33803941011E+03  0.17466550296E+03 0.  0.
        -24    2    5    5    0    0 -0.10250803502E+01 -0.75732574757E+02  0.29419336191E+03  0.31433970979E+03  0.80766609988E+02 0.  0.
          5    1    3    3  502    0  0.66326895571E+00 -0.38394199269E+02  0.28848719439E+02  0.48258606242E+02  0.47000000000E+01 0. -1.
        -13    1    4    4    0    0  0.81383926752E+01  0.97858239660E+02  0.12926396236E+03  0.16233188371E+03  0.00000000000E+00 0.  1.
         14    1    4    4    0    0 -0.25608968295E+02  0.13464271409E+02  0.11291188041E+03  0.11655984986E+03  0.00000000000E+00 0. -1.
         -5    1    5    5    0  501  0.17832387014E+02  0.28042629560E+01 -0.14619434937E+02  0.23699700319E+02  0.47000000000E+01 0.  1.
         13    1    6    6    0    0 -0.17685514323E+01  0.25571640933E+01 -0.45480479798E+01  0.55092288748E+01  0.00000000000E+00 0. -1.
        -14    1    6    6    0    0  0.74347108211E+00 -0.78289738850E+02  0.29874140989E+03  0.30883048091E+03  0.00000000000E+00 0.  1.
</event>
<event>
12    1  0.1345781E-002  0.1801683E+03  0.7818608E-02  0.1167640E+00
         -2   -1    0    0    0  501 -0.00000000000E+00  0.00000000000E+00  0.27701364049E+03  0.27701364049E+03  0.00000000000E+00 0.  1.
          2   -1    0    0  502    0  0.00000000000E+00 -0.00000000000E+00 -0.12642246308E+03  0.12642246308E+03  0.00000000000E+00 0. -1.
          6    2    1    2  502    0 -0.44763081044E+02 -0.32717270662E+02  0.12986295958E+03  0.22214997098E+03  0.17149946971E+03 0.  0.
         24    2    3    3    0    0 -0.89799817962E+01  0.29893384260E+02  0.12247144464E+03  0.14950529606E+03  0.79864411990E+02 0.  0.
         -6    2    1    2    0  501  0.44763081044E+02  0.32717270662E+02  0.20728217825E+02  0.18128613259E+03  0.17135007917E+03 0.  0.
        -24    2    5    5    0    0  0.53782739991E+02  0.16607119934E+02  0.75782524342E+02  0.12302844752E+03  0.78896313918E+02 0.  0.
          5    1    3    3  502    0 -0.35783099248E+02 -0.62610654922E+02  0.73915149473E+01  0.72644674923E+02  0.47000000000E+01 0. -1.
        -13    1    4    4    0    0 -0.25339647178E+02 -0.20324193813E+02  0.39373149399E+02  0.51043270534E+02  0.00000000000E+00 0.  1.
         14    1    4    4    0    0  0.16359665381E+02  0.50217578073E+02  0.83098295238E+02  0.98462025525E+02  0.00000000000E+00 0. -1.
         -5    1    5    5    0  501 -0.90196589470E+01  0.16110150727E+02 -0.55054306517E+02  0.58257685073E+02  0.47000000000E+01 0.  1.
         13    1    6    6    0    0  0.21855997949E+02 -0.20336216924E+02 -0.33531268320E+01  0.30041468418E+02  0.00000000000E+00 0. -1.
        -14    1    6    6    0    0  0.31926742042E+02  0.36943336859E+02  0.79135651174E+02  0.92986979102E+02  0.00000000000E+00 0.  1.
</event>
<event>
12    1  0.1345781E-002  0.2156937E+03  0.7818608E-02  0.1137135E+00
          2   -1    0    0  502    0  0.00000000000E+00  0.00000000000E+00  0.99494928775E+03  0.99494928775E+03  0.00000000000E+00 0. -1.
         -2   -1    0    0    0  501 -0.00000000000E+00 -0.00000000000E+00 -0.49836080328E+02  0.49836080328E+02  0.00000000000E+00 0.  1.
          6    2    1    2  502    0 -0.12274996829E+03  0.40181943380E+02  0.60550084600E+03  0.64329953280E+03  0.17470223553E+03 0.  0.
         24    2    3    3    0    0 -0.16762920568E+02  0.57205386064E+02  0.38290754119E+03  0.39612971014E+03  0.82140796533E+02 0.  0.
         -6    2    1    2    0  501  0.12274996829E+03 -0.40181943380E+02  0.33961236142E+03  0.40148583529E+03  0.17079864348E+03 0.  0.
        -24    2    5    5    0    0  0.13801318951E+03 -0.35982783353E+02  0.18872586914E+03  0.24969841018E+03  0.79933980183E+02 0.  0.
          5    1    3    3  502    0 -0.10598704772E+03 -0.17023442684E+02  0.22259330481E+03  0.24716982265E+03  0.47000000000E+01 0. -1.
        -11    1    4    4    0    0  0.33573544416E+01  0.73859776295E+02  0.25108645002E+03  0.26174595273E+03  0.00000000000E+00 0.  1.
         12    1    4    4    0    0 -0.20120275009E+02 -0.16654390231E+02  0.13182109117E+03  0.13438375742E+03  0.00000000000E+00 0. -1.
         -5    1    5    5    0  501 -0.15263221221E+02 -0.41991600264E+01  0.15088649228E+03  0.15178742511E+03  0.47000000000E+01 0.  1.
         11    1    6    6    0    0  0.76334361535E+02 -0.27163097751E+02  0.16350881416E+03  0.18248260448E+03  0.00000000000E+00 0. -1.
        -12    1    6    6    0    0  0.61678827971E+02 -0.88196856021E+01  0.25217054985E+02  0.67215805701E+02  0.00000000000E+00 0.  1.
</event>
<event>
12    1  0.1345781E-002  0.2300118E+03  0.7818608E-02  0.1126631E+00
          1   -1    0    0  502    0  0.00000000000E+00  0.00000000000E+00  0.12363151776E+04  0.12363151776E+04  0.00000000000E+00 0. -1.
         -1   -1    0    0    0  501 -0.00000000000E+00 -0.00000000000E+00 -0.43405263773E+02  0.43405263773E+02  0.00000000000E+00 0.  1.
          6    2    1    2  502    0 -0.15203555164E+03  0.97742537426E+01  0.67208677012E+03  0.71030919739E+03  0.17212839485E+03 0.  0.
         24    2    3    3    0    0 -0.68411219172E+02 -0.44132538578E+02  0.22844856115E+03  0.25562697682E+03  0.80799940068E+02 0.  0.
         -6    2    1    2    0  501  0.15203555164E+03 -0.97742537426E+01  0.52082314375E+03  0.56941124404E+03  0.17251687677E+03 0.  0.
        -24    2    5    5    0    0  0.15944812970E+03  0.35279531652E+02  0.41580113223E+03  0.45479666034E+03  0.85329181846E+02 0.  0.
          5    1    3    3  502    0 -0.83624332471E+02  0.53906792321E+02  0.44363820897E+03  0.45468222057E+03  0.47000000000E+01 0. -1.
        -11    1    4    4    0    0 -0.69657349510E+02 -0.34315656320E+02  0.99092429244E+02  0.12589289155E+03  0.00000000000E+00 0.  1.
         12    1    4    4    0    0  0.12461303379E+01 -0.98168822581E+01  0.12935613191E+03  0.12973408527E+03  0.00000000000E+00 0. -1.
         -5    1    5    5    0  501 -0.74125780579E+01 -0.45053785395E+02  0.10502201152E+03  0.11461458369E+03  0.47000000000E+01 0.  1.
         11    1    6    6    0    0 -0.10219016066E+02  0.20952867904E+01  0.36363338225E+02  0.37830026209E+02  0.00000000000E+00 0. -1.
        -12    1    6    6    0    0  0.16966714577E+03  0.33184244862E+02  0.37943779401E+03  0.41696663413E+03  0.00000000000E+00 0.  1.
</event>
<event>
12    1  0.1345781E-002  0.2993911E+03  0.7818608E-02  0.1085545E+00
         -2   -1    0    0    0  501 -0.00000000000E+00  0.00000000000E+00  0.17754896535E+03  0.17754896535E+03  0.00000000000E+00 0. -1.
          2   -1    0    0  502    0  0.00000000000E+00 -0.00000000000E+00 -0.57514361964E+03  0.57514361964E+03  0.00000000000E+00 0.  1.
          6    2    1    2  502    0 -0.23673113321E+03  0.63240230176E+02 -0.67128846847E+02  0.30666466945E+03  0.17174394099E+03 0.  0.
         24    2    3    3    0    0 -0.25591166793E+03  0.71972275165E+02 -0.59278171853E+02  0.28368936489E+03  0.79340808651E+02 0.  0.
         -6    2    1    2    0  501  0.23673113321E+03 -0.63240230176E+02 -0.33046580744E+03  0.44602791554E+03  0.17231452467E+03 0.  0.
        -24    2    5    5    0    0  0.10771636559E+03 -0.89015545376E+02 -0.22309667181E+03  0.27614737391E+03  0.83418609503E+02 0.  0.
          5    1    3    3  502    0  0.19180534719E+02 -0.87320449884E+01 -0.78506749936E+01  0.22975304561E+02  0.47000000000E+01 0. -1.
        -11    1    4    4    0    0 -0.19494987891E+03  0.64253923130E+02 -0.77792372002E+02  0.21951235744E+03  0.00000000000E+00 0.  1.
         12    1    4    4    0    0 -0.60961789015E+02  0.77183520346E+01  0.18514200149E+02  0.64177007450E+02  0.00000000000E+00 0. -1.
         -5    1    5    5    0  501  0.12901476762E+03  0.25775315200E+02 -0.10736913562E+03  0.16988054163E+03  0.47000000000E+01 0.  1.
         11    1    6    6    0    0  0.93871622903E+02 -0.35941642969E+02 -0.10198590877E+03  0.14319500296E+03  0.00000000000E+00 0. -1.
        -12    1    6    6    0    0  0.13844742682E+02 -0.53073902407E+02 -0.12111076304E+03  0.13295237095E+03  0.00000000000E+00 0.  1.
</event>
<event>
12    1  0.1345781E-002  0.1833773E+03  0.7818608E-02  0.1164574E+00
         -2   -1    0    0    0  501 -0.00000000000E+00  0.00000000000E+00  0.61001364126E+03  0.61001364126E+03  0.00000000000E+00 0.  1.
          2   -1    0    0  502    0  0.00000000000E+00 -0.00000000000E+00 -0.56949621855E+02  0.56949621855E+02  0.00000000000E+00 0. -1.
          6    2    1    2  502    0 -0.66093114707E+02 -0.60700758762E+01  0.33919867800E+03  0.38661699109E+03  0.17323916707E+03 0.  0.
         24    2    3    3    0    0 -0.58279827278E+02  0.61218082679E+02  0.24160309280E+03  0.26772320658E+03  0.78482284494E+02 0.  0.
         -6    2    1    2    0  501  0.66093114707E+02  0.60700758762E+01  0.21386534140E+03  0.28034627203E+03  0.16867276708E+03 0.  0.
        -24    2    5    5    0    0  0.96654875198E+02  0.41488899415E+02  0.14606935331E+03  0.19784233111E+03  0.82108698254E+02 0.  0.
          5    1    3    3  502    0 -0.78132874292E+01 -0.67288158555E+02  0.97595585204E+02  0.11889378450E+03  0.47000000000E+01 0. -1.
        -11    1    4    4    0    0 -0.38639389546E+02  0.78163668534E+02  0.20581518432E+03  0.22352282121E+03  0.00000000000E+00 0.  1.
         12    1    4    4    0    0 -0.19640437732E+02 -0.16945585855E+02  0.35787908478E+02  0.44200385377E+02  0.00000000000E+00 0. -1.
         -5    1    5    5    0  501 -0.30561760491E+02 -0.35418823539E+02  0.67795988096E+02  0.82503940919E+02  0.47000000000E+01 0.  1.
         13    1    6    6    0    0  0.46198828302E+02  0.18176464595E+02  0.97048770086E+01  0.50585573431E+02  0.00000000000E+00 0. -1.
        -14    1    6    6    0    0  0.50456046896E+02  0.23312434820E+02  0.13636447630E+03  0.14725675768E+03  0.00000000000E+00 0.  1.
</event>
<event>
12    1  0.1345781E-002  0.2001921E+03  0.7818608E-02  0.1149577E+00
          1   -1    0    0  502    0  0.00000000000E+00  0.00000000000E+00  0.15812874144E+04  0.15812874144E+04  0.00000000000E+00 0.  1.
         -1   -1    0    0    0  501 -0.00000000000E+00 -0.00000000000E+00 -0.26054571915E+02  0.26054571915E+02  0.00000000000E+00 0. -1.
          6    2    1    2  502    0  0.10218595063E+03  0.41063770470E+02  0.66436713561E+03  0.69528252118E+03  0.17293319992E+03 0.  0.
         24    2    3    3    0    0  0.94772262579E+02 -0.14522155101E+02  0.58650845307E+03  0.59921576138E+03  0.76646516039E+02 0.  0.
         -6    2    1    2    0  501 -0.10218595063E+03 -0.41063770470E+02  0.89086570691E+03  0.91205946517E+03  0.16150095511E+03 0.  0.
        -24    2    5    5    0    0 -0.23531484028E+02 -0.47496775212E+02  0.27643539452E+03  0.29256401930E+03  0.79796639334E+02 0.  0.
          5    1    3    3  502    0  0.74136880470E+01  0.55585925571E+02  0.77858682536E+02  0.96066759799E+02  0.47000000000E+01 0. -1.
        -11    1    4    4    0    0  0.34710391779E+02 -0.21995649863E+02  0.42076735301E+03  0.42276918675E+03  0.00000000000E+00 0.  1.
         12    1    4    4    0    0  0.60061870801E+02  0.74734947620E+01  0.16574110006E+03  0.17644657463E+03  0.00000000000E+00 0. -1.
         -5    1    5    5    0  501 -0.78654466598E+02  0.64330047423E+01  0.61443031239E+03  0.61949544587E+03  0.47000000000E+01 0.  1.
         11    1    6    6    0    0 -0.14181004303E+02  0.14524641322E+02  0.19733221640E+02  0.28310177054E+02  0.00000000000E+00 0. -1.
        -12    1    6    6    0    0 -0.93504797258E+01 -0.62021416534E+02  0.25670217288E+03  0.26425384225E+03  0.00000000000E+00 0.  1.
</event>
<event>
12    1  0.1345781E-002  0.1860101E+03  0.7818608E-02  0.1162110E+00
         -2   -1    0    0    0  501 -0.00000000000E+00  0.00000000000E+00  0.16577754843E+02  0.16577754843E+02  0.00000000000E+00 0.  1.
          2   -1    0    0  502    0  0.00000000000E+00 -0.00000000000E+00 -0.22462680806E+04  0.22462680806E+04  0.00000000000E+00 0. -1.
          6    2    1    2  502    0  0.24800855285E+02 -0.63316416286E+02 -0.14111936512E+04  0.14232885921E+04  0.17221743358E+03 0.  0.
         24    2    3    3    0    0 -0.31321994557E+02  0.27805230363E+01 -0.44013260846E+03  0.44835258484E+03  0.79464008542E+02 0.  0.
         -6    2    1    2    0  501 -0.24800855285E+02  0.63316416286E+02 -0.81849667462E+03  0.83955724333E+03  0.17405604693E+03 0.  0.
        -24    2    5    5    0    0  0.21474421701E+02  0.90782568672E+02 -0.67068078166E+03  0.68218056463E+03  0.82794844717E+02 0.  0.
          5    1    3    3  502    0  0.56122849843E+02 -0.66096939322E+02 -0.97106104270E+03  0.97493600729E+03  0.47000000000E+01 0. -1.
        -11    1    4    4    0    0 -0.12539051901E+02  0.15111001393E+02 -0.41144524135E+03  0.41191353075E+03  0.00000000000E+00 0.  1.
         12    1    4    4    0    0 -0.18782942656E+02 -0.12330478356E+02 -0.28687367103E+02  0.36439054085E+02  0.00000000000E+00 0. -1.
         -5    1    5    5    0  501 -0.46275276986E+02 -0.27466152386E+02 -0.14781589296E+03  0.15737667870E+03  0.47000000000E+01 0.  1.
         11    1    6    6    0    0  0.16708403476E+02  0.47656415667E+02 -0.57391397566E+03  0.57613154415E+03  0.00000000000E+00 0. -1.
        -12    1    6    6    0    0  0.47660182247E+01  0.43126153006E+02 -0.96766805995E+02  0.10604902048E+03  0.00000000000E+00 0.  1.
</event>
<event>
12    1  0.1345781E-002  0.2080591E+03  0.7818608E-02  0.1143112E+00
          2   -1    0    0  502    0  0.00000000000E+00  0.00000000000E+00  0.81470552308E+03  0.81470552308E+03  0.00000000000E+00 0.  1.
         -2   -1    0    0    0  501 -0.00000000000E+00 -0.00000000000E+00 -0.62616438115E+02  0.62616438115E+02  0.00000000000E+00 0. -1.
          6    2    1    2  502    0  0.50444797282E+02 -0.10719968156E+03  0.20585547355E+03  0.29292430104E+03  0.17144013781E+03 0.  0.
         24    2    3    3    0    0  0.62743437688E+02 -0.13670892065E+03  0.14237626483E+03  0.22169402878E+03  0.79064363982E+02 0.  0.
         -6    2    1    2    0  501 -0.50444797282E+02  0.10719968156E+03  0.54623361141E+03  0.58439766015E+03  0.17062537224E+03 0.  0.
        -24    2    5    5    0    0 -0.79556740346E+02  0.10675269552E+03  0.52414914455E+03  0.54755313949E+03  0.85771218397E+02 0.  0.
          5    1    3    3  502    0 -0.12298640406E+02  0.29509239085E+02  0.63479208718E+02  0.71230272264E+02  0.47000000000E+01 0. -1.
        -13    1    4    4    0    0  0.10735117148E+02 -0.42553482820E+02  0.94023215823E+02  0.10376129699E+03  0.00000000000E+00 0.  1.
         14    1    4    4    0    0  0.52008320541E+02 -0.94155437828E+02  0.48353049008E+02  0.11793273179E+03  0.00000000000E+00 0. -1.
         -5    1    5    5    0  501  0.29111943064E+02  0.44698603998E+00  0.22084466865E+02  0.36844520654E+02  0.47000000000E+01 0.  1.
         13    1    6    6    0    0 -0.94345931926E+01 -0.11959262359E+02  0.11016713470E+03  0.11121525558E+03  0.00000000000E+00 0. -1.
        -14    1    6    6    0    0 -0.70122147153E+02  0.11871195788E+03  0.41398200984E+03  0.43633788391E+03  0.00000000000E+00 0.  1.
</event>
<event>
12    1  0.1345781E-002  0.1915793E+03  0.7818608E-02  0.1157045E+00
          1   -1    0    0  502    0  0.00000000000E+00  0.00000000000E+00  0.92438694365E+03  0.92438694365E+03  0.00000000000E+00 0.  1.
         -1   -1    0    0    0  501 -0.00000000000E+00 -0.00000000000E+00 -0.54681879509E+02  0.54681879509E+02  0.00000000000E+00 0. -1.
          6    2    1    2  502    0  0.52724043539E+02  0.62577521837E+02  0.18078357973E+03  0.26434621188E+03  0.17464376894E+03 0.  0.
         24    2    3    3    0    0  0.86288305717E+02  0.18245234097E+02  0.69011337155E+02  0.13941808998E+03  0.83043837140E+02 0.  0.
         -6    2    1    2    0  501 -0.52724043539E+02 -0.62577521837E+02  0.68892148441E+03  0.71472261127E+03  0.17181335332E+03 0.  0.
        -24    2    5    5    0    0 -0.70110218946E+02 -0.91136874919E+02  0.39907190023E+03  0.42291310630E+03  0.79848238290E+02 0.  0.
          5    1    3    3  502    0 -0.33564262178E+02  0.44332287740E+02  0.11177224258E+03  0.12492812191E+03  0.47000000000E+01 0. -1.
        -13    1    4    4    0    0  0.32890016280E+01 -0.94966763818E+01 -0.15033679746E+02  0.18083581524E+02  0.00000000000E+00 0.  1.
         14    1    4    4    0    0  0.82999304089E+02  0.27741910479E+02  0.84045016901E+02  0.12133450846E+03  0.00000000000E+00 0. -1.
         -5    1    5    5    0  501  0.17386175407E+02  0.28559353082E+02  0.28984958418E+03  0.29180950497E+03  0.47000000000E+01 0.  1.
         13    1    6    6    0    0  0.88658717520E+01 -0.27335806256E+02  0.36845543937E+02  0.46727337755E+02  0.00000000000E+00 0. -1.
        -14    1    6    6    0    0 -0.78976090698E+02 -0.63801068663E+02  0.36222635629E+03  0.37618576854E+03  0.00000000000E+00 0.  1.
</event>
<event>
12    1  0.1345781E-002  0.1804366E+03  0.7818608E-02  0.1167381E+00
          1   -1    0    0  502    0  0.00000000000E+00  0.00000000000E+00  0.10184779942E+03  0.10184779942E+03  0.00000000000E+00 0.  1.
         -1   -1    0    0    0  501 -0.00000000000E+00 -0.00000000000E+00 -0.36002039945E+03  0.36002039945E+03  0.00000000000E+00 0. -1.
          6    2    1    2  502    0 -0.51757737111E+02 -0.11981134541E+02 -0.51720496680E+02  0.18762637109E+03  0.17235496633E+03 0.  0.
         24    2    3    3    0    0 -0.73583017851E+02  0.48841326348E+01 -0.89194384613E+02  0.14085926307E+03  0.80295569477E+02 0.  0.
         -6    2    1    2    0  501  0.51757737111E+02  0.11981134541E+02 -0.20645210336E+03  0.27424182778E+03  0.17252158759E+03 0.  0.
        -24    2    5    5    0    0 -0.22294160276E+02 -0.33923443119E+02 -0.13331751649E+03  0.16039249070E+03  0.79400008145E+02 0.  0.
          5    1    3    3  502    0  0.21825280741E+02 -0.16865267176E+02  0.37473887934E+02  0.46767108027E+02  0.47000000000E+01 0. -1.
        -13    1    4    4    0    0  0.51940629587E+01  0.89493495709E+01  0.98194739659E+01  0.14265034761E+02  0.00000000000E+00 0.  1.
         14    1    4    4    0    0 -0.78777080810E+02 -0.40652169361E+01 -0.99013858579E+02  0.12659422831E+03  0.00000000000E+00 0. -1.
         -5    1    5    5    0  501  0.74051897387E+02  0.45904577660E+02 -0.73134586866E+02  0.11384933708E+03  0.47000000000E+01 0.  1.
         11    1    6    6    0    0 -0.37350757434E+02 -0.38164065263E+02 -0.42529117827E+02  0.68266395990E+02  0.00000000000E+00 0. -1.
        -12    1    6    6    0    0  0.15056597158E+02  0.42406221443E+01 -0.90788398664E+02  0.92126094708E+02  0.00000000000E+00 0.  1.
</event>
<event>
12    1  0.1345781E-002  0.2369043E+03  0.7818608E-02  0.1121872E+00
         -2   -1    0    0    0  501 -0.00000000000E+00  0.00000000000E+00  0.10528475948E+03  0.10528475948E+03  0.00000000000E+00 0.  1.
          2   -1    0    0  502    0  0.00000000000E+00 -0.00000000000E+00 -0.57162060653E+03  0.57162060653E+03  0.00000000000E+00 0. -1.
          6    2    1    2  502    0  0.91326008533E+02 -0.13427926785E+03 -0.32103044199E+03  0.39895514405E+03  0.17243346736E+03 0.  0.
         24    2    3    3    0    0  0.13078849815E+03 -0.93713260624E+02 -0.23172395869E+03  0.29312212941E+03  0.79603914802E+02 0.  0.
         -6    2    1    2    0  501 -0.91326008533E+02  0.13427926785E+03 -0.14530540507E+03  0.27795022197E+03  0.17254362794E+03 0.  0.
        -24    2    5    5    0    0  0.13254739847E+02  0.77931608312E+02 -0.41110866345E+02  0.11986548657E+03  0.80178599612E+02 0.  0.
          5    1    3    3  502    0 -0.39462489612E+02 -0.40566007227E+02 -0.89306483296E+02  0.10583301464E+03  0.47000000000E+01 0. -1.
        -11    1    4    4    0    0  0.86558677936E+02 -0.29878699572E+02 -0.75584717632E+02  0.11873580317E+03  0.00000000000E+00 0.  1.
         12    1    4    4    0    0  0.44229820210E+02 -0.63834561052E+02 -0.15613924106E+03  0.17438632624E+03  0.00000000000E+00 0. -1.
         -5    1    5    5    0  501 -0.10458074838E+03  0.56347659539E+02 -0.10419453872E+03  0.15808473540E+03  0.47000000000E+01 0.  1.
         11    1    6    6    0    0 -0.72764651346E+01  0.73674363332E+02 -0.57101693461E+02  0.93495786821E+02  0.00000000000E+00 0. -1.
        -12    1    6    6    0    0  0.20531204982E+02  0.42572449804E+01  0.15990827116E+02  0.26369699746E+02  0.00000000000E+00 0.  1.
</event>
<event>
12    1  0.1345781E-002  0.2523155E+03  0.7818608E-02  0.1111850E+00
         -2   -1    0    0    0  501 -0.00000000000E+00  0.00000000000E+00  0.55463647709E+02  0.55463647709E+02  0.00000000000E+00 0. -1.
          2   -1    0    0  502    0  0.00000000000E+00 -0.00000000000E+00 -0.15042796470E+04  0.15042796470E+04  0.00000000000E+00 0.  1.
          6    2    1    2  502    0  0.18299810885E+03  0.54177076225E+01 -0.11056990764E+04  0.11342927674E+04  0.17473401224E+03 0.  0.
         24    2    3    3    0    0  0.15651126485E+03 -0.49504687912E+02 -0.94585509869E+03  0.96314893995E+03  0.77894304373E+02 0.  0.
         -6    2    1    2    0  501 -0.18299810885E+03 -0.54177076225E+01 -0.34311692287E+03  0.42545052737E+03  0.17251454745E+03 0.  0.
        -24    2    5    5    0    0 -0.17521600652E+03  0.53020676608E+01 -0.18854058862E+03  0.27023645646E+03  0.82167073581E+02 0.  0.
          5    1    3    3  502    0  0.26486844003E+02  0.54922395535E+02 -0.15984397774E+03  0.17114382740E+03  0.47000000000E+01 0. -1.
        -13    1    4    4    0    0  0.15390569482E+03 -0.24592151102E+02 -0.84307557746E+03  0.85736116433E+03  0.00000000000E+00 0.  1.
         14    1    4    4    0    0  0.26055700284E+01 -0.24912536811E+02 -0.10277952124E+03  0.10578777562E+03  0.00000000000E+00 0. -1.
         -5    1    5    5    0  501 -0.77821023339E+01 -0.10719775283E+02 -0.15457633425E+03  0.15521407091E+03  0.47000000000E+01 0.  1.
         13    1    6    6    0    0 -0.11742235946E+03 -0.35012004868E+01 -0.17408759343E+03  0.21001609246E+03  0.00000000000E+00 0. -1.
        -14    1    6    6    0    0 -0.57793647060E+02  0.88032681477E+01 -0.14452995193E+02  0.60220364003E+02  0.00000000000E+00 0.  1.
</event>
<event>
12    1  0.1345781E-002  0.2629382E+03  0.7818608E-02  0.1105391E+00
          2   -1    0    0  502    0  0.00000000000E+00  0.00000000000E+00  0.68199479797E+03  0.68199479797E+03  0.00000000000E+00 0. -1.
         -2   -1    0    0    0  501 -0.00000000000E+00 -0.00000000000E+00 -0.10137524545E+03  0.10137524545E+03  0.00000000000E+00 0.  1.
          6    2    1    2  502    0 -0.18892990192E+03 -0.63575478275E+02  0.29041925219E+03  0.39229535950E+03  0.17267297926E+03 0.  0.
         24    2    3    3    0    0 -0.11355167294E+03 -0.40558130874E+02  0.27731287106E+03  0.31226072380E+03  0.77880593005E+02 0.  0.
         -6    2    1    2    0  501  0.18892990192E+03  0.63575478275E+02  0.29020030033E+03  0.39107468392E+03  0.17025523431E+03 0.  0.
        -24    2    5    5    0    0  0.14549165915E+03  0.48034087200E+02  0.29952927378E+03  0.34377208867E+03  0.70614210199E+02 0.  0.
          5    1    3    3  502    0 -0.75378228977E+02 -0.23017347401E+02  0.13106381129E+02  0.80034635698E+02  0.47000000000E+01 0. -1.
        -11    1    4    4    0    0 -0.15849089777E+02  0.20795102433E+02  0.74167425954E+02  0.78641191526E+02  0.00000000000E+00 0.  1.
         12    1    4    4    0    0 -0.97702583164E+02 -0.61353233307E+02  0.20314544510E+03  0.23361953227E+03  0.00000000000E+00 0. -1.
         -5    1    5    5    0  501  0.43438242772E+02  0.15541391075E+02 -0.93289734470E+01  0.47302595249E+02  0.47000000000E+01 0.  1.
         13    1    6    6    0    0  0.12734059055E+03  0.60636490078E+02  0.22081189899E+03  0.26201203153E+03  0.00000000000E+00 0. -1.
        -14    1    6    6    0    0  0.18151068593E+02 -0.12602402878E+02  0.78717374787E+02  0.81760057135E+02  0.00000000000E+00 0.  1.
</event>
<event>
12    1  0.1345781E-002  0.1845626E+03  0.7818608E-02  0.1163459E+00
         -1   -1    0    0    0  501 -0.00000000000E+00  0.00000000000E+00  0.11887871840E+03  0.11887871840E+03  0.00000000000E+00 0. -1.
          1   -1    0    0  502    0  0.00000000000E+00 -0.00000000000E+00 -0.29259544094E+03  0.29259544094E+03  0.00000000000E+00 0.  1.
          6    2    1    2  502    0 -0.46382729809E+02  0.44456656680E+02 -0.11692692773E+03  0.21938867823E+03  0.17416008084E+03 0.  0.
         24    2    3    3    0    0 -0.46380376892E+02 -0.57020596624E+01  0.89944120365E+00  0.91244072230E+02  0.78364653241E+02 0.  0.
         -6    2    1    2    0  501  0.46382729809E+02 -0.44456656680E+02 -0.56789794803E+02  0.19208548111E+03  0.17188367960E+03 0.  0.
        -24    2    5    5    0    0 -0.37659562764E+02 -0.27513519108E+02 -0.43951487780E+01  0.91499866912E+02  0.78598167351E+02 0.  0.
          5    1    3    3  502    0 -0.23529176764E-02  0.50158716343E+02 -0.11782636893E+03  0.12814460600E+03  0.47000000000E+01 0. -1.
        -11    1    4    4    0    0  0.36403066941E+01  0.18519611865E+02 -0.23842592804E+02  0.30408832403E+02  0.00000000000E+00 0.  1.
         12    1    4    4    0    0 -0.50020683586E+02 -0.24221671528E+02  0.24742034008E+02  0.60835239827E+02  0.00000000000E+00 0. -1.
         -5    1    5    5    0  501  0.84042292573E+02 -0.16943137573E+02 -0.52394646025E+02  0.10058561420E+03  0.47000000000E+01 0.  1.
         11    1    6    6    0    0 -0.47644011122E+02 -0.38065535143E+02 -0.25316746150E+02  0.66029344970E+02  0.00000000000E+00 0. -1.
        -12    1    6    6    0    0  0.99844483578E+01  0.10552016035E+02  0.20921597372E+02  0.25470521943E+02  0.00000000000E+00 0.  1.
</event>
<event>
12    1  0.1345781E-002  0.1863110E+03  0.7818608E-02  0.1161831E+00
         -1   -1    0    0    0  501 -0.00000000000E+00  0.00000000000E+00  0.10927582035E+03  0.10927582035E+03  0.00000000000E+00 0.  1.
          1   -1    0    0  502    0  0.00000000000E+00 -0.00000000000E+00 -0.33083632086E+03  0.33083632086E+03  0.00000000000E+00 0. -1.
          6    2    1    2  502    0  0.53077978725E+02  0.52398649227E+02 -0.15429132212E+03  0.24135450394E+03  0.16995085827E+03 0.  0.
         24    2    3    3    0    0 -0.91746070981E+01 -0.13454667091E+02 -0.24114335740E+02  0.82671859980E+02  0.77381740497E+02 0.  0.
         -6    2    1    2    0  501 -0.53077978725E+02 -0.52398649227E+02 -0.67269178391E+02  0.19875763726E+03  0.17151258188E+03 0.  0.
        -24    2    5    5    0    0 -0.26710865762E+01 -0.92650115918E+02 -0.42692242465E+02  0.12956839586E+03  0.79838355163E+02 0.  0.
          5    1    3    3  502    0  0.62252585823E+02  0.65853316318E+02 -0.13017698638E+03  0.15868264397E+03  0.47000000000E+01 0. -1.
        -13    1    4    4    0    0 -0.15254712261E+02  0.12006287240E+02  0.22188405261E+02  0.29481901355E+02  0.00000000000E+00 0.  1.
         14    1    4    4    0    0  0.60801051628E+01 -0.25460954332E+02 -0.46302741001E+02  0.53189958625E+02  0.00000000000E+00 0. -1.
         -5    1    5    5    0  501 -0.50406892149E+02  0.40251466692E+02 -0.24576935926E+02  0.69189241407E+02  0.47000000000E+01 0.  1.
         13    1    6    6    0    0 -0.14731766860E+02 -0.13239877377E+02 -0.45050947927E+02  0.49212876535E+02  0.00000000000E+00 0. -1.
        -14    1    6    6    0    0  0.12060680284E+02 -0.79410238541E+02  0.23587054617E+01  0.80355519322E+02  0.00000000000E+00 0.  1.
</event>
<event>
12    1  0.1345781E-002  0.2042055E+03  0.7818608E-02  0.1146239E+00
         -2   -1    0    0    0  501 -0.00000000000E+00  0.00000000000E+00  0.16950592437E+03  0.16950592437E+03  0.00000000000E+00 0.  1.
          2   -1    0    0  502    0  0.00000000000E+00 -0.00000000000E+00 -0.53383860966E+03  0.53383860966E+03  0.00000000000E+00 0. -1.
          6    2    1    2  502    0 -0.95568815043E+01  0.10711275467E+03 -0.44025584972E+03  0.48516938758E+03  0.17320405663E+03 0.  0.
         24    2    3    3    0    0  0.18545850823E+01  0.23955152221E+02 -0.82233401137E+02  0.11740917752E+03  0.80282587771E+02 0.  0.
         -6    2    1    2    0  501  0.95568815043E+01 -0.10711275467E+03  0.75923164430E+02  0.21817514645E+03  0.17398733125E+03 0.  0.
        -24    2    5    5    0    0 -0.46703098290E+02 -0.22330604878E+02  0.15123321634E+02  0.99550068436E+02  0.83675958101E+02 0.  0.
          5    1    3    3  502    0 -0.11411466587E+02  0.83157602447E+02 -0.35802244858E+03  0.36776021006E+03  0.47000000000E+01 0. -1.
        -11    1    4    4    0    0  0.20161404945E+01  0.53857306837E+02 -0.52394255188E+02  0.75165366353E+02  0.00000000000E+00 0.  1.
         12    1    4    4    0    0 -0.16155541217E+00 -0.29902154616E+02 -0.29839145949E+02  0.42243811165E+02  0.00000000000E+00 0. -1.
         -5    1    5    5    0  501  0.56259979794E+02 -0.84782149789E+02  0.60799842796E+02  0.11862507801E+03  0.47000000000E+01 0.  1.
         11    1    6    6    0    0 -0.14080482058E+01 -0.40932280951E+02  0.27138183515E+02  0.49131611291E+02  0.00000000000E+00 0. -1.
        -12    1    6    6    0    0 -0.45295050084E+02  0.18601676072E+02 -0.12014861881E+02  0.50418457145E+02  0.00000000000E+00 0.  1.
</event>
<event>
12    1  0.1345781E-002  0.1967465E+03  0.7818608E-02  0.1152513E+00
         -2   -1    0    0    0  501 -0.00000000000E+00  0.00000000000E+00  0.34441531203E+02  0.34441531203E+02  0.00000000000E+00 0. -1.
          2   -1    0    0  502    0  0.00000000000E+00 -0.00000000000E+00 -0.17653308553E+04  0.17653308553E+04  0.00000000000E+00 0.  1.
          6    2    1    2  502    0 -0.66234540307E+02  0.69779338096E+02 -0.32302560160E+03  0.37822833183E+03  0.17162447774E+03 0.  0.
         24    2    3    3    0    0  0.27450225576E+02  0.19976808318E+02 -0.18547952309E+03  0.20445220849E+03  0.79028250117E+02 0.  0.
         -6    2    1    2    0  501  0.66234540307E+02 -0.69779338096E+02 -0.14078637225E+04  0.14215440547E+04  0.17161313436E+03 0.  0.
        -24    2    5    5    0    0  0.80621654329E+01  0.16943584738E+02 -0.39965918688E+03  0.40793497510E+03  0.79570061439E+02 0.  0.
          5    1    3    3  502    0 -0.93684765883E+02  0.49802529779E+02 -0.13754607851E+03  0.17377612335E+03  0.47000000000E+01 0. -1.
        -11    1    4    4    0    0  0.43497237161E+02  0.36641574900E+02 -0.16109312962E+03  0.17083796727E+03  0.00000000000E+00 0.  1.
         12    1    4    4    0    0 -0.16047011585E+02 -0.16664766582E+02 -0.24386393467E+02  0.33614241214E+02  0.00000000000E+00 0. -1.
         -5    1    5    5    0  501  0.58172374874E+02 -0.86722922835E+02 -0.10082045356E+04  0.10136090796E+04  0.47000000000E+01 0.  1.
         13    1    6    6    0    0  0.17738671710E+02 -0.29432105693E+02 -0.16434475804E+03  0.16789910308E+03  0.00000000000E+00 0. -1.
        -14    1    6    6    0    0 -0.96765062772E+01  0.46375690432E+02 -0.23531442885E+03  0.24003587203E+03  0.00000000000E+00 0.  1.
</event>
<event>
12    1  0.1345781E-002  0.1719934E+03  0.7818608E-02  0.1175785E+00
          3   -1    0    0  502    0  0.00000000000E+00  0.00000000000E+00  0.72758919632E+02  0.72758919632E+02  0.00000000000E+00 0. -1.
         -3   -1    0    0    0  501 -0.00000000000E+00 -0.00000000000E+00 -0.41503649774E+03  0.41503649774E+03  0.00000000000E+00 0.  1.
          6    2    1    2  502    0  0.65031148795E+00  0.49322264663E+01 -0.20534147641E+03  0.26745067080E+03  0.17128919877E+03 0.  0.
         24    2    3    3    0    0  0.66807826054E+02  0.10342420693E+02 -0.11608046859E+03  0.15611467279E+03  0.79541590285E+02 0.  0.
         -6    2    1    2    0  501 -0.65031148795E+00 -0.49322264663E+01 -0.13693610169E+03  0.22034474657E+03  0.17255596666E+03 0.  0.
        -24    2    5    5    0    0  0.38410883187E+02 -0.54647181992E+02 -0.10895081217E+03  0.15104380745E+03  0.80512370796E+02 0.  0.
          5    1    3    3  502    0 -0.66157514566E+02 -0.54101942262E+01 -0.89261007828E+02  0.11133599801E+03  0.47000000000E+01 0. -1.
        -11    1    4    4    0    0 -0.19748547404E+01  0.59358487073E-01 -0.75637388886E+02  0.75663189017E+02  0.00000000000E+00 0.  1.
         12    1    4    4    0    0  0.68782680794E+02  0.10283062205E+02 -0.40443079699E+02  0.80451483772E+02  0.00000000000E+00 0. -1.
         -5    1    5    5    0  501 -0.39061194675E+02  0.49714955525E+02 -0.27985289524E+02  0.69300939114E+02  0.47000000000E+01 0.  1.
         11    1    6    6    0    0 -0.23910709977E+00  0.19089233986E+02 -0.94292183903E+01  0.21292397371E+02  0.00000000000E+00 0. -1.
        -12    1    6    6    0    0  0.38649990286E+02 -0.73736415977E+02 -0.99521593777E+02  0.12975141008E+03  0.00000000000E+00 0.  1.
</event>
<event>
12    1  0.1345781E-002  0.2216226E+03  0.7818608E-02  0.1132679E+00
          2   -1    0    0  502    0  0.00000000000E+00  0.00000000000E+00  0.85265259626E+03  0.85265259626E+03  0.00000000000E+00 0.  1.
         -2   -1    0    0    0  501 -0.00000000000E+00 -0.00000000000E+00 -0.61967774445E+02  0.61967774445E+02  0.00000000000E+00 0. -1.
          6    2    1    2  502    0 -0.13930834788E+03  0.34628370766E+01  0.27408834291E+03  0.35251443282E+03  0.17240417221E+03 0.  0.
         24    2    3    3    0    0 -0.50515456320E+02  0.46422326152E+02  0.64106294353E+02  0.12047080328E+03  0.75476842638E+02 0.  0.
         -6    2    1    2    0  501  0.13930834788E+03 -0.34628370766E+01  0.51659647890E+03  0.56210593788E+03  0.17225665840E+03 0.  0.
        -24    2    5    5    0    0  0.58405458478E+02  0.56815875723E+02  0.20270479094E+03  0.23236530875E+03  0.79152783445E+02 0.  0.
          5    1    3    3  502    0 -0.88792891556E+02 -0.42959489075E+02  0.20998204856E+03  0.23204362954E+03  0.47000000000E+01 0. -1.
        -13    1    4    4    0    0 -0.47888946616E+02  0.18416528224E+02  0.74521018758E+02  0.90475974471E+02  0.00000000000E+00 0.  1.
         14    1    4    4    0    0 -0.26265097047E+01  0.28005797928E+02 -0.10414724405E+02  0.29994828808E+02  0.00000000000E+00 0. -1.
         -5    1    5    5    0  501  0.80902889398E+02 -0.60278712799E+02  0.31389168796E+03  0.32974062913E+03  0.47000000000E+01 0.  1.
         11    1    6    6    0    0 -0.14623601383E+02 -0.23559894310E+01  0.97441335056E+01  0.17729877083E+02  0.00000000000E+00 0. -1.
        -12    1    6    6    0    0  0.73029059862E+02  0.59171865154E+02  0.19296065743E+03  0.21463543167E+03  0.00000000000E+00 0.  1.
</event>
<event>
12    1  0.1345781E-002  0.1798069E+03  0.7818608E-02  0.1167990E+00
          2   -1    0    0  502    0  0.00000000000E+00  0.00000000000E+00  0.61630302639E+02  0.61630302639E+02  0.00000000000E+00 0.  1.
         -2   -1    0    0    0  501 -0.00000000000E+00 -0.00000000000E+00 -0.52507887903E+03  0.52507887903E+03  0.00000000000E+00 0. -1.
          6    2    1    2  502    0 -0.48260218811E+02  0.18970318407E+02 -0.22540717427E+03  0.28941372269E+03  0.17396260220E+03 0.  0.
         24    2    3    3    0    0 -0.17409879974E+02  0.10737330217E+02 -0.24018505481E+03  0.25391722632E+03  0.79791622921E+02 0.  0.
         -6    2    1    2    0  501  0.48260218811E+02 -0.18970318407E+02 -0.23804140212E+03  0.29729545898E+03  0.17038767300E+03 0.  0.
        -24    2    5    5    0    0  0.16275791977E+02 -0.77048192266E+02 -0.14782240596E+03  0.18523475999E+03  0.79114646352E+02 0.  0.
          5    1    3    3  502    0 -0.30850338837E+02  0.82329881908E+01  0.14777880537E+02  0.35496496363E+02  0.47000000000E+01 0. -1.
        -13    1    4    4    0    0  0.22194306817E+02 -0.10720623028E+02 -0.29362160827E+02  0.38336086154E+02  0.00000000000E+00 0.  1.
         14    1    4    4    0    0 -0.39604186791E+02  0.21457953244E+02 -0.21082289398E+03  0.21558114017E+03  0.00000000000E+00 0. -1.
         -5    1    5    5    0  501  0.31984426834E+02  0.58077873858E+02 -0.90218996158E+02  0.11206069900E+03  0.47000000000E+01 0.  1.
         11    1    6    6    0    0 -0.63257946268E+01  0.66426795334E+01 -0.63979290455E+02  0.64633508926E+02  0.00000000000E+00 0. -1.
        -12    1    6    6    0    0  0.22601586604E+02 -0.83690871799E+02 -0.83843115505E+02  0.12060125106E+03  0.00000000000E+00 0.  1.
</event>
<event>
12    1  0.1345781E-002  0.4233907E+03  0.7818608E-02  0.1035968E+00
         -1   -1    0    0    0  501 -0.00000000000E+00  0.00000000000E+00  0.23150818071E+03  0.23150818071E+03  0.00000000000E+00 0.  1.
          1   -1    0    0  502    0  0.00000000000E+00 -0.00000000000E+00 -0.79849412910E+03  0.79849412910E+03  0.00000000000E+00 0. -1.
          6    2    1    2  502    0  0.16745928930E+03 -0.34797652981E+03 -0.19345150448E+03  0.46490054805E+03  0.17198475548E+03 0.  0.
         24    2    3    3    0    0  0.16969112260E+03 -0.31837591364E+03 -0.21521456263E+03  0.42779396835E+03  0.80821234257E+02 0.  0.
         -6    2    1    2    0  501 -0.16745928930E+03  0.34797652981E+03 -0.37353444391E+03  0.56510176175E+03  0.17516204349E+03 0.  0.
        -24    2    5    5    0    0 -0.17780682327E+03  0.28317744639E+03 -0.35951657960E+03  0.49783673970E+03  0.82368172531E+02 0.  0.
          5    1    3    3  502    0 -0.22318332974E+01 -0.29600616170E+02  0.21763058149E+02  0.37106579706E+02  0.47000000000E+01 0. -1.
        -11    1    4    4    0    0  0.15248136755E+03 -0.31770433700E+03 -0.20311800351E+03  0.40674750958E+03  0.00000000000E+00 0.  1.
         12    1    4    4    0    0  0.17209755045E+02 -0.67157664149E+00 -0.12096559126E+02  0.21046458766E+02  0.00000000000E+00 0. -1.
         -5    1    5    5    0  501  0.10347533968E+02  0.64799083428E+02 -0.14017864309E+02  0.67265022055E+02  0.47000000000E+01 0.  1.
         13    1    6    6    0    0 -0.76666326772E+02  0.10629399977E+03 -0.85952232637E+02  0.15672883060E+03  0.00000000000E+00 0. -1.
        -14    1    6    6    0    0 -0.10114049650E+03  0.17688344662E+03 -0.27356434696E+03  0.34110790910E+03  0.00000000000E+00 0.  1.
</event>
<event>
12    1  0.1345781E-002  0.1782573E+03  0.7818608E-02  0.1169500E+00
          2   -1    0    0  502    0  0.00000000000E+00  0.00000000000E+00  0.97291117399E+03  0.97291117399E+03  0.00000000000E+00 0. -1.
         -2   -1    0    0    0  501 -0.00000000000E+00 -0.00000000000E+00 -0.47332574907E+02  0.47332574907E+02  0.00000000000E+00 0.  1.
          6    2    1    2  502    0  0.76959251023E+01 -0.45870558950E+02  0.17898712985E+03  0.25269428963E+03  0.17220533069E+03 0.  0.
         24    2    3    3    0    0 -0.20740150279E+02  0.37265489340E+02  0.90408628425E+02  0.12784055992E+03  0.79690765693E+02 0.  0.
         -6    2    1    2    0  501 -0.76959251023E+01  0.45870558950E+02  0.74659146923E+03  0.76754945926E+03  0.17195934127E+03 0.  0.
        -24    2    5    5    0    0  0.96977034372E+01  0.68406339381E+02  0.27284773471E+03  0.29292790928E+03  0.81162805396E+02 0.  0.
          5    1    3    3  502    0  0.28436075381E+02 -0.83136048290E+02  0.88578501430E+02  0.12485372972E+03  0.47000000000E+01 0. -1.
        -13    1    4    4    0    0 -0.16576263550E+02  0.20323419863E+02 -0.83728192917E+01  0.27530310770E+02  0.00000000000E+00 0.  1.
         14    1    4    4    0    0 -0.41638867291E+01  0.16942069477E+02  0.98781447716E+02  0.10031024915E+03  0.00000000000E+00 0. -1.
         -5    1    5    5    0  501 -0.17393628539E+02 -0.22535780431E+02  0.47374373452E+03  0.47462154999E+03  0.47000000000E+01 0.  1.
         13    1    6    6    0    0 -0.32141136213E+02  0.21544421785E+02  0.63527172965E+02  0.74383576494E+02  0.00000000000E+00 0. -1.
        -14    1    6    6    0    0  0.41838839650E+02  0.46861917596E+02  0.20932056174E+03  0.21854433278E+03  0.00000000000E+00 0.  1.
</event>
<event>
12    1  0.1345781E-002  0.2915868E+03  0.7818608E-02  0.1089524E+00
         -2   -1    0    0    0  501 -0.00000000000E+00  0.00000000000E+00  0.78349099459E+02  0.78349099459E+02  0.00000000000E+00 0. -1.
          2   -1    0    0  502    0  0.00000000000E+00 -0.00000000000E+00 -0.10862782522E+04  0.10862782522E+04  0.00000000000E+00 0.  1.
          6    2    1    2  502    0  0.23138561985E+03 -0.50883256298E+02 -0.52382243050E+03  0.59990976667E+03  0.17138663486E+03 0.  0.
         24    2    3    3    0    0  0.79567394750E+02 -0.66931020791E+02 -0.29634814931E+03  0.32591534553E+03  0.87108294654E+02 0.  0.
         -6    2    1    2    0  501 -0.23138561985E+03  0.50883256298E+02 -0.48410672224E+03  0.56471758498E+03  0.16857704895E+03 0.  0.
        -24    2    5    5    0    0 -0.15088968838E+03  0.62537614412E+02 -0.20547279754E+03  0.27441709749E+03  0.80043872914E+02 0.  0.
          5    1    3    3  502    0  0.15181822510E+03  0.16047764493E+02 -0.22747428119E+03  0.27399442115E+03  0.47000000000E+01 0. -1.
        -11    1    4    4    0    0 -0.15972605846E+02 -0.13595914634E+02 -0.89327122922E+02  0.91756786789E+02  0.00000000000E+00 0.  1.
         12    1    4    4    0    0  0.95540000596E+02 -0.53335106157E+02 -0.20702102639E+03  0.23415855874E+03  0.00000000000E+00 0. -1.
         -5    1    5    5    0  501 -0.80495931464E+02 -0.11654358114E+02 -0.27863392470E+03  0.29030048749E+03  0.47000000000E+01 0.  1.
         13    1    6    6    0    0  0.36836194906E+01  0.11260540087E+01  0.49021939359E+01  0.62344651388E+01  0.00000000000E+00 0. -1.
        -14    1    6    6    0    0 -0.15457330787E+03  0.61411560403E+02 -0.21037499147E+03  0.26818263235E+03  0.00000000000E+00 0.  1.
</event>
<event>
12    1  0.1345781E-002  0.2399632E+03  0.7818608E-02  0.1119817E+00
          2   -1    0    0  502    0  0.00000000000E+00  0.00000000000E+00  0.12324134354E+04  0.12324134354E+04  0.00000000000E+00 0.  1.
         -2   -1    0    0    0  501 -0.00000000000E+00 -0.00000000000E+00 -0.47689222658E+02  0.47689222658E+02  0.00000000000E+00 0. -1.
          6    2    1    2  502    0  0.14299265126E+03 -0.88589028229E+02  0.50214512847E+03  0.55669153945E+03  0.17164156202E+03 0.  0.
         24    2    3    3    0    0  0.48172547086E+02 -0.67537275797E+02  0.39720390767E+03  0.41362240141E+03  0.80191450698E+02 0.  0.
         -6    2    1    2    0  501 -0.14299265126E+03  0.88589028229E+02  0.68257908426E+03  0.72341111860E+03  0.17062979225E+03 0.  0.
        -24    2    5    5    0    0 -0.15169938647E+02  0.62662186086E+02  0.23532158733E+03  0.25750103546E+03  0.82303445845E+02 0.  0.
          5    1    3    3  502    0  0.94820104176E+02 -0.21051752433E+02  0.10494122080E+03  0.14306913804E+03  0.47000000000E+01 0. -1.
        -13    1    4    4    0    0 -0.21000199244E+02 -0.92733507610E+01  0.53474871788E+02  0.58194203452E+02  0.00000000000E+00 0.  1.
         14    1    4    4    0    0  0.69172746331E+02 -0.58263925036E+02  0.34372903589E+03  0.35542819796E+03  0.00000000000E+00 0. -1.
         -5    1    5    5    0  501 -0.12782271262E+03  0.25926842143E+02  0.44725749693E+03  0.46591008313E+03  0.47000000000E+01 0.  1.
         11    1    6    6    0    0  0.52121957057E+01 -0.19035260076E+02  0.56483321228E+02  0.59832045654E+02  0.00000000000E+00 0. -1.
        -12    1    6    6    0    0 -0.20382134352E+02  0.81697446162E+02  0.17883826610E+03  0.19766898981E+03  0.00000000000E+00 0.  1.
</event>
<event>
12    1  0.1345781E-002  0.1753476E+03  0.7818608E-02  0.1172383E+00
          1   -1    0    0  502    0  0.00000000000E+00  0.00000000000E+00  0.61858947816E+03  0.61858947816E+03  0.00000000000E+00 0. -1.
         -1   -1    0    0    0  501 -0.00000000000E+00 -0.00000000000E+00 -0.91743179535E+02  0.91743179535E+02  0.00000000000E+00 0.  1.
          6    2    1    2  502    0 -0.31458227368E+02  0.62712722827E+01  0.50338282496E+03  0.53286466774E+03  0.17181832480E+03 0.  0.
         24    2    3    3    0    0  0.88505223856E+01 -0.10019955803E+02  0.11949995481E+03  0.14649910585E+03  0.83684034049E+02 0.  0.
         -6    2    1    2    0  501  0.31458227368E+02 -0.62712722827E+01  0.23463473664E+02  0.17746798995E+03  0.17296070055E+03 0.  0.
        -24    2    5    5    0    0  0.24553115023E+01 -0.54440422828E+02 -0.29448972369E+02  0.10011649909E+03  0.78652928903E+02 0.  0.
          5    1    3    3  502    0 -0.40308749753E+02  0.16291228086E+02  0.38388287015E+03  0.38636556189E+03  0.47000000000E+01 0. -1.
        -11    1    4    4    0    0 -0.57870682048E+01  0.45250231842E+01 -0.11629787213E+02  0.13755651342E+02  0.00000000000E+00 0.  1.
         12    1    4    4    0    0  0.14637590590E+02 -0.14544978988E+02  0.13112974202E+03  0.13274345451E+03  0.00000000000E+00 0. -1.
         -5    1    5    5    0  501  0.29002915865E+02  0.48169150545E+02  0.52912446033E+02  0.77351490859E+02  0.47000000000E+01 0.  1.
         13    1    6    6    0    0 -0.36136034428E+02 -0.16113431153E+02 -0.31186515427E+01  0.39688557988E+02  0.00000000000E+00 0. -1.
        -14    1    6    6    0    0  0.38591345930E+02 -0.38326991675E+02 -0.26330320826E+02  0.60427941106E+02  0.00000000000E+00 0.  1.
</event>
<event>
12    1  0.1345781E-002  0.2775803E+03  0.7818608E-02  0.1097018E+00
         -2   -1    0    0    0  501 -0.00000000000E+00  0.00000000000E+00  0.87644277436E+02  0.87644277436E+02  0.00000000000E+00 0. -1.
          2   -1    0    0  502    0  0.00000000000E+00 -0.00000000000E+00 -0.13398825045E+04  0.13398825045E+04  0.00000000000E+00 0.  1.
          6    2    1    2  502    0  0.33228067928E+02  0.20784108162E+03 -0.10538532915E+04  0.10914617352E+04  0.19073526052E+03 0.  0.
         24    2    3    3    0    0  0.79887792578E+02  0.19561295365E+03 -0.73126835610E+03  0.76525660405E+03  0.78852865282E+02 0.  0.
         -6    2    1    2    0  501 -0.33228067928E+02 -0.20784108162E+03 -0.19838493555E+03  0.33606504677E+03  0.17111725015E+03 0.  0.
        -24    2    5    5    0    0 -0.19113490858E+02 -0.13438092785E+03 -0.43359988954E+02  0.16387201687E+03  0.80934479475E+02 0.  0.
          5    1    3    3  502    0 -0.46659724651E+02  0.12228127970E+02 -0.32258493542E+03  0.32620513114E+03  0.47000000000E+01 0. -1.
        -13    1    4    4    0    0  0.20453114694E+02  0.11547023306E+03 -0.49658871065E+03  0.51024705013E+03  0.00000000000E+00 0.  1.
         14    1    4    4    0    0  0.59434677884E+02  0.80142720588E+02 -0.23467964546E+03  0.25500955392E+03  0.00000000000E+00 0. -1.
         -5    1    5    5    0  501 -0.14114577070E+02 -0.73460153768E+02 -0.15502494660E+03  0.17219302990E+03  0.47000000000E+01 0.  1.
         11    1    6    6    0    0  0.95428908889E+01 -0.11266672088E+03 -0.78562965007E+01  0.11334274637E+03  0.00000000000E+00 0. -1.
        -12    1    6    6    0    0 -0.28656381747E+02 -0.21714206970E+02 -0.35503692454E+02  0.50529270497E+02  0.00000000000E+00 0.  1.
</event>
<event>
12    1  0.1345781E-002  0.2057471E+03  0.7818608E-02  0.1144979E+00
          2   -1    0    0  502    0  0.00000000000E+00  0.00000000000E+00  0.36051709159E+02  0.36051709159E+02  0.00000000000E+00 0. -1.
         -2   -1    0    0    0  501 -0.00000000000E+00 -0.00000000000E+00 -0.12574486127E+04  0.12574486127E+04  0.00000000000E+00 0.  1.
          6    2    1    2  502    0 -0.49692214700E+01  0.11242491880E+03 -0.77770013973E+03  0.80451062176E+03  0.17249863086E+03 0.  0.
         24    2    3    3    0    0 -0.52907724942E+02  0.11883282818E+03 -0.50851836781E+03  0.53097803183E+03  0.80164028536E+02 0.  0.
         -6    2    1    2    0  501  0.49692214700E+01 -0.11242491880E+03 -0.44369676383E+03  0.48898970012E+03  0.17198852598E+03 0.  0.
        -24    2    5    5    0    0  0.34275414501E+02 -0.92975855029E+02 -0.16681606804E+03  0.20984434599E+03  0.79923309066E+02 0.  0.
          5    1    3    3  502    0  0.47938503472E+02 -0.64079093810E+01 -0.26918177192E+03  0.27353258993E+03  0.47000000000E+01 0. -1.
        -13    1    4    4    0    0  0.12739657793E+02  0.56830627801E+02 -0.26324431824E+03  0.26961007069E+03  0.00000000000E+00 0.  1.
         14    1    4    4    0    0 -0.65647382734E+02  0.62002200375E+02 -0.24527404958E+03  0.26136796113E+03  0.00000000000E+00 0. -1.
         -5    1    5    5    0  501 -0.29306193031E+02 -0.19449063766E+02 -0.27688069579E+03  0.27914535413E+03  0.47000000000E+01 0.  1.
         13    1    6    6    0    0  0.36348669590E+02 -0.53489193800E+01 -0.30353716609E+02  0.47656949457E+02  0.00000000000E+00 0. -1.
        -14    1    6    6    0    0 -0.20732550894E+01 -0.87626935649E+02 -0.13646235143E+03  0.16218739654E+03  0.00000000000E+00 0.  1.
</event>
<event>
12    1  0.1345781E-002  0.3562743E+03  0.7818608E-02  0.1060069E+00
          1   -1    0    0  502    0  0.00000000000E+00  0.00000000000E+00  0.68897201158E+03  0.68897201158E+03  0.00000000000E+00 0.  1.
         -1   -1    0    0    0  501 -0.00000000000E+00 -0.00000000000E+00 -0.20910332627E+03  0.20910332627E+03  0.00000000000E+00 0. -1.
          6    2    1    2  502    0  0.11370503413E+02 -0.31157071493E+03  0.85120081041E+02  0.36637888355E+03  0.17257595244E+03 0.  0.
         24    2    3    3    0    0  0.64630376731E+02 -0.13132264419E+03  0.15737479786E+02  0.16597425169E+03  0.76661995023E+02 0.  0.
         -6    2    1    2    0  501 -0.11370503413E+02  0.31157071493E+03  0.39474860427E+03  0.53169645429E+03  0.17224709049E+03 0.  0.
        -24    2    5    5    0    0 -0.21756197576E+02  0.55168254182E+02  0.13902037334E+03  0.16938567248E+03  0.76472043491E+02 0.  0.
          5    1    3    3  502    0 -0.53259873319E+02 -0.18024807075E+03  0.69382601255E+02  0.20040463186E+03  0.47000000000E+01 0. -1.
        -11    1    4    4    0    0  0.55990058520E+02 -0.82621075863E+02  0.43925493538E+02  0.10904392607E+03  0.00000000000E+00 0.  1.
         12    1    4    4    0    0  0.86403182112E+01 -0.48701568322E+02 -0.28188013751E+02  0.56930325619E+02  0.00000000000E+00 0. -1.
         -5    1    5    5    0  501  0.10385694163E+02  0.25640246075E+03  0.25572823093E+03  0.36231078182E+03  0.47000000000E+01 0.  1.
         11    1    6    6    0    0  0.48695052703E+01 -0.11975624725E+02  0.23576012035E+00  0.12929936270E+02  0.00000000000E+00 0. -1.
        -12    1    6    6    0    0 -0.26625702846E+02  0.67143878906E+02  0.13878461322E+03  0.15645573621E+03  0.00000000000E+00 0.  1.
</event>
<event>
12    1  0.1345781E-002  0.3405296E+03  0.7818608E-02  0.1066571E+00
          2   -1    0    0  502    0  0.00000000000E+00  0.00000000000E+00  0.17180617700E+03  0.17180617700E+03  0.00000000000E+00 0. -1.
         -2   -1    0    0    0  501 -0.00000000000E+00 -0.00000000000E+00 -0.68984482307E+03  0.68984482307E+03  0.00000000000E+00 0.  1.
          6    2    1    2  502    0 -0.89833824077E+02 -0.27836857762E+03 -0.32343804630E+03  0.47076682904E+03  0.17734163802E+03 0.  0.
         24    2    3    3    0    0  0.88414015649E+01 -0.20086120257E+03 -0.21188395111E+03  0.30280671622E+03  0.79835490695E+02 0.  0.
         -6    2    1    2    0  501  0.89833824077E+02  0.27836857762E+03 -0.19460059977E+03  0.39088417103E+03  0.17135302967E+03 0.  0.
        -24    2    5    5    0    0  0.12569357275E+03  0.21272115249E+03 -0.17597354099E+03  0.31365358564E+03  0.79766670427E+02 0.  0.
          5    1    3    3  502    0 -0.98675225642E+02 -0.77507375045E+02 -0.11155409520E+03  0.16796011282E+03  0.47000000000E+01 0. -1.
        -11    1    4    4    0    0  0.33809557767E+02 -0.74279659998E+02 -0.49667007518E+02  0.95537247823E+02  0.00000000000E+00 0.  1.
         12    1    4    4    0    0 -0.24968156202E+02 -0.12658154257E+03 -0.16221694359E+03  0.20726946840E+03  0.00000000000E+00 0. -1.
         -5    1    5    5    0  501 -0.35859748668E+02  0.65647425129E+02 -0.18627058785E+02  0.77230585389E+02  0.47000000000E+01 0.  1.
         11    1    6    6    0    0  0.11455787193E+03  0.16961101657E+03 -0.17472641793E+03  0.26911098841E+03  0.00000000000E+00 0. -1.
        -12    1    6    6    0    0  0.11135700817E+02  0.43110135918E+02 -0.12471230571E+01  0.44542597224E+02  0.00000000000E+00 0.  1.
</event>
<event>
12    1  0.1345781E-002  0.1905527E+03  0.7818608E-02  0.1157964E+00
         -1   -1    0    0    0  501 -0.00000000000E+00  0.00000000000E+00  0.53933077104E+02  0.53933077104E+02  0.00000000000E+00 0.  1.
          1   -1    0    0  502    0  0.00000000000E+00 -0.00000000000E+00 -0.74329123528E+03  0.74329123528E+03  0.00000000000E+00 0. -1.
          6    2    1    2  502    0  0.83036984410E+02  0.37885401022E+01 -0.46748740598E+03  0.50493425307E+03  0.17176912225E+03 0.  0.
         24    2    3    3    0    0 -0.19036673429E+02  0.22953618433E+02 -0.19026196771E+03  0.20885594337E+03  0.80820326582E+02 0.  0.
         -6    2    1    2    0  501 -0.83036984410E+02 -0.37885401022E+01 -0.22187075219E+03  0.29229005931E+03  0.17116469928E+03 0.  0.
        -24    2    5    5    0    0 -0.81130824931E+02  0.57684285095E+02 -0.16808784860E+03  0.21045343914E+03  0.78277951556E+02 0.  0.
          5    1    3    3  502    0  0.10207365784E+03 -0.19165078331E+02 -0.27722543827E+03  0.29607830970E+03  0.47000000000E+01 0. -1.
        -11    1    4    4    0    0 -0.53879264975E+01 -0.32112308034E+01  0.69998394534E+01  0.93989099149E+01  0.00000000000E+00 0.  1.
         12    1    4    4    0    0 -0.13648746932E+02  0.26164849236E+02 -0.19726180717E+03  0.19945703346E+03  0.00000000000E+00 0. -1.
         -5    1    5    5    0  501 -0.19061594790E+01 -0.61472825197E+02 -0.53782903599E+02  0.81836620172E+02  0.47000000000E+01 0.  1.
         11    1    6    6    0    0  0.13287747108E+02  0.20000127623E+02 -0.22662451801E+02  0.33017511260E+02  0.00000000000E+00 0. -1.
        -12    1    6    6    0    0 -0.94418572039E+02  0.37684157472E+02 -0.14542539679E+03  0.17743592788E+03  0.00000000000E+00 0.  1.
</event>
<event>
12    1  0.1345781E-002  0.2007539E+03  0.7818608E-02  0.1149104E+00
          2   -1    0    0  502    0  0.00000000000E+00  0.00000000000E+00  0.61689149474E+03  0.61689149474E+03  0.00000000000E+00 0.  1.
         -2   -1    0    0    0  501 -0.00000000000E+00 -0.00000000000E+00 -0.65409762330E+02  0.65409762330E+02  0.00000000000E+00 0. -1.
          6    2    1    2  502    0 -0.84562633678E+02  0.69161428704E+02  0.27062523848E+03  0.33915447979E+03  0.17278194126E+03 0.  0.
         24    2    3    3    0    0 -0.85842242449E+01 -0.10569762936E+02  0.17113687146E+03  0.19066270630E+03  0.82939918065E+02 0.  0.
         -6    2    1    2    0  501  0.84562633678E+02 -0.69161428704E+02  0.28085649393E+03  0.34314677728E+03  0.16411946362E+03 0.  0.
        -24    2    5    5    0    0  0.48589680592E+02 -0.60398195691E+02  0.75534747298E+02  0.13446051217E+03  0.79782405202E+02 0.  0.
          5    1    3    3  502    0 -0.75978409433E+02  0.79731191640E+02  0.99488367020E+02  0.14849177348E+03  0.47000000000E+01 0. -1.
        -13    1    4    4    0    0  0.33843820251E+02  0.77531728552E+01  0.99767489673E+02  0.10563648922E+03  0.00000000000E+00 0.  1.
         14    1    4    4    0    0 -0.42428044496E+02 -0.18322935791E+02  0.71369381785E+02  0.85026217087E+02  0.00000000000E+00 0. -1.
         -5    1    5    5    0  501  0.35972953086E+02 -0.87632330135E+01  0.20532174664E+03  0.20868626512E+03  0.47000000000E+01 0.  1.
         13    1    6    6    0    0 -0.18933427298E+02 -0.32730463990E+02  0.20114611698E+02  0.42829377138E+02  0.00000000000E+00 0. -1.
        -14    1    6    6    0    0  0.67523107890E+02 -0.27667731701E+02  0.55420135600E+02  0.91631135028E+02  0.00000000000E+00 0.  1.
</event>
<event>
12    1  0.1345781E-002  0.2241236E+03  0.7818608E-02  0.1130846E+00
         -2   -1    0    0    0  501 -0.00000000000E+00  0.00000000000E+00  0.60878438214E+02  0.60878438214E+02  0.00000000000E+00 0.  1.
          2   -1    0    0  502    0  0.00000000000E+00 -0.00000000000E+00 -0.96886535241E+03  0.96886535241E+03  0.00000000000E+00 0. -1.
          6    2    1    2  502    0  0.12587061225E+03  0.35485274594E+02 -0.66702099790E+03  0.70669589299E+03  0.19338939423E+03 0.  0.
         24    2    3    3    0    0  0.13856283265E+03  0.66871849149E+02 -0.64001303339E+03  0.66313295384E+03  0.80356261472E+02 0.  0.
         -6    2    1    2    0  501 -0.12587061225E+03 -0.35485274594E+02 -0.24096591630E+03  0.32304789763E+03  0.17085887629E+03 0.  0.
        -24    2    5    5    0    0  0.61007742127E+01 -0.24697731581E+02 -0.91980426011E+02  0.12366990425E+03  0.78655254478E+02 0.  0.
          5    1    3    3  502    0 -0.12692220400E+02 -0.31386574554E+02 -0.27007964502E+02  0.43562939151E+02  0.47000000000E+01 0. -1.
        -11    1    4    4    0    0  0.10287223607E+03  0.10783424731E+02 -0.32053172390E+03  0.33680790553E+03  0.00000000000E+00 0.  1.
         12    1    4    4    0    0  0.35690596572E+02  0.56088424417E+02 -0.31948130950E+03  0.32632504831E+03  0.00000000000E+00 0. -1.
         -5    1    5    5    0  501 -0.13197138646E+03 -0.10787543013E+02 -0.14898549029E+03  0.19937799338E+03  0.47000000000E+01 0.  1.
         11    1    6    6    0    0  0.29029252440E+02  0.15124139268E+02 -0.20271894797E+02  0.38501776640E+02  0.00000000000E+00 0. -1.
        -12    1    6    6    0    0 -0.22928478227E+02 -0.39821870849E+02 -0.71708531215E+02  0.85168127610E+02  0.00000000000E+00 0.  1.
</event>
<event>
12    1  0.1345781E-002  0.1724954E+03  0.7818608E-02  0.1175270E+00
          1   -1    0    0  502    0  0.00000000000E+00  0.00000000000E+00  0.11093990992E+04  0.11093990992E+04  0.00000000000E+00 0. -1.
         -1   -1    0    0    0  501 -0.00000000000E+00 -0.00000000000E+00 -0.41646972830E+02  0.41646972830E+02  0.00000000000E+00 0.  1.
          6    2    1    2  502    0  0.55930843666E+01  0.85763876868E+01  0.87818267556E+03  0.89505242004E+03  0.17265336937E+03 0.  0.
         24    2    3    3    0    0  0.16871483538E+02 -0.42951954214E+02  0.29562552528E+03  0.31009319442E+03  0.81448270070E+02 0.  0.
         -6    2    1    2    0  501 -0.55930843666E+01 -0.85763876868E+01  0.18956945080E+03  0.25599365198E+03  0.17173041710E+03 0.  0.
        -24    2    5    5    0    0  0.34479394135E+02 -0.58051175807E+02  0.97539039767E+02  0.14398809520E+03  0.81608453296E+02 0.  0.
          5    1    3    3  502    0 -0.11278399172E+02  0.51528341900E+02  0.58255715028E+03  0.58495922563E+03  0.47000000000E+01 0. -1.
        -13    1    4    4    0    0 -0.46225759350E+01 -0.34356266854E+02  0.28006057962E+03  0.28219789074E+03  0.00000000000E+00 0.  1.
         14    1    4    4    0    0  0.21494059473E+02 -0.85956873595E+01  0.15564945664E+02  0.27895303679E+02  0.00000000000E+00 0. -1.
         -5    1    5    5    0  501 -0.40072478502E+02  0.49474788120E+02  0.92030411033E+02  0.11200555677E+03  0.47000000000E+01 0.  1.
         11    1    6    6    0    0  0.15561974606E+02 -0.11642216284E+02  0.91462516158E+02  0.93504588741E+02  0.00000000000E+00 0. -1.
        -12    1    6    6    0    0  0.18917419529E+02 -0.46408959523E+02  0.60765236090E+01  0.50483506463E+02  0.00000000000E+00 0.  1.
</event>
<event>
12    1  0.1345781E-002  0.2627408E+03  0.7818608E-02  0.1105508E+00
          2   -1    0    0  502    0  0.00000000000E+00  0.00000000000E+00  0.11232974772E+04  0.11232974772E+04  0.00000000000E+00 0.  1.
         -2   -1    0    0    0  501 -0.00000000000E+00 -0.00000000000E+00 -0.13461186048E+03  0.13461186048E+03  0.00000000000E+00 0. -1.
          6    2    1    2  502    0 -0.10267706421E+03 -0.16972931739E+03  0.31039592561E+02  0.26498518099E+03  0.17292503908E+03 0.  0.
         24    2    3    3    0    0 -0.10920900239E+02 -0.17277261381E+02  0.23722911248E+02  0.86837919337E+02  0.80995542432E+02 0.  0.
         -6    2    1    2    0  501  0.10267706421E+03  0.16972931739E+03  0.95764602414E+03  0.99292415667E+03  0.17164455321E+03 0.  0.
        -24    2    5    5    0    0  0.35231714842E+02  0.55836822341E+02  0.21734308024E+03  0.24086637011E+03  0.80122214526E+02 0.  0.
          5    1    3    3  502    0 -0.91756163973E+02 -0.15245205601E+03  0.73166813131E+01  0.17814726165E+03  0.47000000000E+01 0. -1.
        -13    1    4    4    0    0 -0.34130641399E+02 -0.37540516252E+02  0.23766965499E+02  0.56027312016E+02  0.00000000000E+00 0.  1.
         14    1    4    4    0    0  0.23209741160E+02  0.20263254872E+02 -0.44054251122E-01  0.30810607321E+02  0.00000000000E+00 0. -1.
         -5    1    5    5    0  501  0.67445349370E+02  0.11389249505E+03  0.74030294390E+03  0.75205778656E+03  0.47000000000E+01 0.  1.
         13    1    6    6    0    0  0.60712007407E+02  0.47109540362E+02  0.15793209972E+03  0.17563543138E+03  0.00000000000E+00 0. -1.
        -14    1    6    6    0    0 -0.25480292565E+02  0.87272819787E+01  0.59410980528E+02  0.65230938727E+02  0.00000000000E+00 0.  1.
</event>
<event>
12    1  0.1345781E-002  0.1704268E+03  0.7818608E-02  0.1177404E+00
         -2   -1    0    0    0  501 -0.00000000000E+00  0.00000000000E+00  0.22140347364E+02  0.22140347364E+02  0.00000000000E+00 0.  1.
          2   -1    0    0  502    0  0.00000000000E+00 -0.00000000000E+00 -0.29578094687E+04  0.29578094687E+04  0.00000000000E+00 0. -1.
          6    2    1    2  502    0 -0.11792810933E+01 -0.35921460657E+02 -0.25654769792E+04  0.25709015223E+04  0.16300541146E+03 0.  0.
         24    2    3    3    0    0  0.22423627272E+02  0.34810482282E+02 -0.11297519259E+04  0.11332337499E+04  0.78515788315E+02 0.  0.
         -6    2    1    2    0  501  0.11792810933E+01  0.35921460657E+02 -0.37019214210E+03  0.40904829380E+03  0.17025434663E+03 0.  0.
        -24    2    5    5    0    0 -0.43254069750E+02  0.72000954329E+02 -0.26217132658E+03  0.28671007771E+03  0.80086279743E+02 0.  0.
          5    1    3    3  502    0 -0.23602908366E+02 -0.70731942940E+02 -0.14357250533E+04  0.14376677724E+04  0.47000000000E+01 0. -1.
        -13    1    4    4    0    0 -0.69158740675E+01  0.44028565146E+01 -0.11179196301E+02  0.13863220749E+02  0.00000000000E+00 0.  1.
         14    1    4    4    0    0  0.29339501340E+02  0.30407625768E+02 -0.11185727296E+04  0.11193705291E+04  0.00000000000E+00 0. -1.
         -5    1    5    5    0  501  0.44433350843E+02 -0.36079493672E+02 -0.10802081552E+03  0.12233821609E+03  0.47000000000E+01 0.  1.
         11    1    6    6    0    0 -0.23146932986E+02 -0.87216887024E+01 -0.11522563218E+03  0.11785073047E+03  0.00000000000E+00 0. -1.
        -12    1    6    6    0    0 -0.20107136764E+02  0.80722643031E+02 -0.14694569440E+03  0.16885934724E+03  0.00000000000E+00 0.  1.
</event>
<event>
12    1  0.1345781E-002  0.2926560E+03  0.7818608E-02  0.1088970E+00
          2   -1    0    0  502    0  0.00000000000E+00  0.00000000000E+00  0.14542052108E+04  0.14542052108E+04  0.00000000000E+00 0.  1.
         -2   -1    0    0    0  501 -0.00000000000E+00 -0.00000000000E+00 -0.59150610707E+02  0.59150610707E+02  0.00000000000E+00 0. -1.
          6    2    1    2  502    0 -0.15441993814E+03  0.17972225317E+03  0.74761204394E+03  0.80292717771E+03  0.17211240187E+03 0.  0.
         24    2    3    3    0    0 -0.63830207049E+02  0.28717969810E+02  0.38674598822E+03  0.40136125143E+03  0.81359557687E+02 0.  0.
         -6    2    1    2    0  501  0.15441993814E+03 -0.17972225317E+03  0.64744255614E+03  0.71042864379E+03  0.17141000215E+03 0.  0.
        -24    2    5    5    0    0  0.14413194566E+03 -0.67061413160E+02  0.42948031112E+03  0.46481118123E+03  0.79528898267E+02 0.  0.
          5    1    3    3  502    0 -0.90589731087E+02  0.15100428336E+03  0.36086605572E+03  0.40156592628E+03  0.47000000000E+01 0. -1.
        -11    1    4    4    0    0 -0.80087953761E+02  0.15235229814E+02  0.34590426642E+03  0.35538142057E+03  0.00000000000E+00 0.  1.
         12    1    4    4    0    0  0.16257746712E+02  0.13482739996E+02  0.40841721805E+02  0.45979830860E+02  0.00000000000E+00 0. -1.
         -5    1    5    5    0  501  0.10287992475E+02 -0.11266084001E+03  0.21796224502E+03  0.24561746256E+03  0.47000000000E+01 0.  1.
         13    1    6    6    0    0  0.37770764474E+02  0.14428594384E+02  0.14190402992E+03  0.14755191863E+03  0.00000000000E+00 0. -1.
        -14    1    6    6    0    0  0.10636118119E+03 -0.81490007545E+02  0.28757628120E+03  0.31725926259E+03  0.00000000000E+00 0.  1.
</event>
<event>
12    1  0.1345781E-002  0.2120046E+03  0.7818608E-02  0.1139988E+00
          1   -1    0    0  502    0  0.00000000000E+00  0.00000000000E+00  0.12703327541E+04  0.12703327541E+04  0.00000000000E+00 0. -1.
         -1   -1    0    0    0  501 -0.00000000000E+00 -0.00000000000E+00 -0.41997383397E+02  0.41997383397E+02  0.00000000000E+00 0.  1.
          6    2    1    2  502    0  0.13799419512E+03 -0.16612734064E+02  0.37132676863E+03  0.43108479296E+03  0.16921036847E+03 0.  0.
         24    2    3    3    0    0  0.84568155813E+02  0.33935012460E+02  0.13919228035E+03  0.18753207381E+03  0.86547268874E+02 0.  0.
         -6    2    1    2    0  501 -0.13799419512E+03  0.16612734064E+02  0.85700860208E+03  0.88124534455E+03  0.15103387841E+03 0.  0.
        -24    2    5    5    0    0 -0.65122070658E+02  0.50517498819E+02  0.63285613924E+03  0.64307251613E+03  0.79009279579E+02 0.  0.
          5    1    3    3  502    0  0.53426039310E+02 -0.50547746525E+02  0.23213448829E+03  0.24355271915E+03  0.47000000000E+01 0. -1.
        -13    1    4    4    0    0  0.25898223299E+02 -0.28388154566E+02  0.29770405605E+02  0.48609488165E+02  0.00000000000E+00 0.  1.
         14    1    4    4    0    0  0.58669932514E+02  0.62323167026E+02  0.10942187474E+03  0.13892258564E+03  0.00000000000E+00 0. -1.
         -5    1    5    5    0  501 -0.72872124465E+02 -0.33904764755E+02  0.22415246284E+03  0.23817282842E+03  0.47000000000E+01 0.  1.
         11    1    6    6    0    0 -0.73213404053E+02  0.14189099839E+02  0.47949885413E+03  0.48526352037E+03  0.00000000000E+00 0. -1.
        -12    1    6    6    0    0  0.80913333955E+01  0.36328398980E+02  0.15335728511E+03  0.15780899576E+03  0.00000000000E+00 0.  1.
</event>
<event>
12    1  0.1345781E-002  0.3019689E+03  0.7818608E-02  0.1084261E+00
          1   -1    0    0  502    0  0.00000000000E+00  0.00000000000E+00  0.29673837210E+03  0.29673837210E+03  0.00000000000E+00 0.  1.
         -1   -1    0    0    0  501 -0.00000000000E+00 -0.00000000000E+00 -0.60482864400E+03  0.60482864400E+03  0.00000000000E+00 0. -1.
          6    2    1    2  502    0 -0.22643063477E+03 -0.10115181056E+03  0.16220833367E+03  0.34249778358E+03  0.17172846911E+03 0.  0.
         24    2    3    3    0    0 -0.10242386715E+03 -0.75925060383E+01  0.19855944237E+02  0.13174362667E+03  0.80086390460E+02 0.  0.
         -6    2    1    2    0  501  0.22643063477E+03  0.10115181056E+03 -0.47029860557E+03  0.55906923251E+03  0.17284417028E+03 0.  0.
        -24    2    5    5    0    0  0.21708073158E+03  0.11419321668E+03 -0.33907721363E+03  0.42678679730E+03  0.83722630090E+02 0.  0.
          5    1    3    3  502    0 -0.12400676763E+03 -0.93559304519E+02  0.14235238943E+03  0.21075415691E+03  0.47000000000E+01 0. -1.
        -13    1    4    4    0    0 -0.93575089802E+02 -0.17103703937E+02  0.43628445897E+02  0.10465311945E+03  0.00000000000E+00 0.  1.
         14    1    4    4    0    0 -0.88487773436E+01  0.95111978983E+01 -0.23772501660E+02  0.27090507214E+02  0.00000000000E+00 0. -1.
         -5    1    5    5    0  501  0.93499031943E+01 -0.13041406123E+02 -0.13122139194E+03  0.13228243521E+03  0.47000000000E+01 0.  1.
         11    1    6    6    0    0  0.60277431111E+02 -0.48575678760E+01 -0.59421057935E+02  0.84781052088E+02  0.00000000000E+00 0. -1.
        -12    1    6    6    0    0  0.15680330047E+03  0.11905078456E+03 -0.27965615570E+03  0.34200574521E+03  0.00000000000E+00 0.  1.
</event>
<event>
12    1  0.1345781E-002  0.2720854E+03  0.7818608E-02  0.1100092E+00
          2   -1    0    0  502    0  0.00000000000E+00  0.00000000000E+00  0.15666363364E+03  0.15666363364E+03  0.00000000000E+00 0. -1.
         -2   -1    0    0    0  501 -0.00000000000E+00 -0.00000000000E+00 -0.47654373421E+03  0.47654373421E+03  0.00000000000E+00 0.  1.
          6    2    1    2  502    0 -0.20910885880E+03  0.29634436272E+02 -0.18885083142E+03  0.33106969347E+03  0.17128278012E+03 0.  0.
         24    2    3    3    0    0 -0.23287110973E+03  0.27543953546E+02 -0.17336550529E+03  0.30224435717E+03  0.79425624899E+02 0.  0.
         -6    2    1    2    0  501  0.20910885880E+03 -0.29634436272E+02 -0.13102926915E+03  0.30213767437E+03  0.17179578068E+03 0.  0.
        -24    2    5    5    0    0  0.18616563578E+03  0.32724233176E+02 -0.97124604818E+02  0.22739403651E+03  0.80909453075E+02 0.  0.
          5    1    3    3  502    0  0.23762250936E+02  0.20904827255E+01 -0.15485326130E+02  0.28825336302E+02  0.47000000000E+01 0. -1.
        -13    1    4    4    0    0 -0.11424558672E+03  0.21340288236E+02 -0.13337063305E+03  0.17690445937E+03  0.00000000000E+00 0.  1.
         14    1    4    4    0    0 -0.11862552301E+03  0.62036653102E+01 -0.39994872243E+02  0.12533989779E+03  0.00000000000E+00 0. -1.
         -5    1    5    5    0  501  0.22943223020E+02 -0.62358669447E+02 -0.33904664334E+02  0.74743637865E+02  0.47000000000E+01 0.  1.
         11    1    6    6    0    0  0.11778175865E+03 -0.15111972715E+02 -0.77065289210E+02  0.14156261227E+03  0.00000000000E+00 0. -1.
        -12    1    6    6    0    0  0.68383877124E+02  0.47836205891E+02 -0.20059315608E+02  0.85831424241E+02  0.00000000000E+00 0.  1.
</event>
<event>
12    1  0.1345781E-002  0.1776032E+03  0.7818608E-02  0.1170143E+00
          2   -1    0    0  502    0  0.00000000000E+00  0.00000000000E+00  0.18351323968E+03  0.18351323968E+03  0.00000000000E+00 0.  1.
         -2   -1    0    0    0  501 -0.00000000000E+00 -0.00000000000E+00 -0.17397203934E+03  0.17397203934E+03  0.00000000000E+00 0. -1.
          6    2    1    2  502    0 -0.40524381800E+02 -0.11022508926E+02  0.24331057572E+02  0.17868883371E+03  0.17197086296E+03 0.  0.
         24    2    3    3    0    0 -0.10732129816E+02  0.42717685031E+02 -0.30742327379E+02  0.96040455292E+02  0.79615947744E+02 0.  0.
         -6    2    1    2    0  501  0.40524381800E+02  0.11022508926E+02 -0.14789857233E+02  0.17879644532E+03  0.17316381769E+03 0.  0.
        -24    2    5    5    0    0  0.91015184440E+02  0.18524078547E+02  0.10150944895E+02  0.12179005700E+03  0.78120874400E+02 0.  0.
          5    1    3    3  502    0 -0.29792251983E+02 -0.53740193957E+02  0.55073384951E+02  0.82648378416E+02  0.47000000000E+01 0. -1.
        -13    1    4    4    0    0 -0.10891816582E+02  0.63986672691E+02 -0.88335589854E+01  0.65505402181E+02  0.00000000000E+00 0.  1.
         14    1    4    4    0    0  0.15968676574E+00 -0.21268987660E+02 -0.21908768394E+02  0.30535053111E+02  0.00000000000E+00 0. -1.
         -5    1    5    5    0  501 -0.50490802641E+02 -0.75015696207E+01 -0.24940802128E+02  0.57006388316E+02  0.47000000000E+01 0.  1.
         11    1    6    6    0    0  0.17331543868E+02  0.32630805815E+02  0.25914519181E+02  0.45129970146E+02  0.00000000000E+00 0. -1.
        -12    1    6    6    0    0  0.73683640572E+02 -0.14106727268E+02 -0.15763574286E+02  0.76660086854E+02  0.00000000000E+00 0.  1.
</event>
<event>
12    1  0.1345781E-002  0.2860810E+03  0.7818608E-02  0.1092413E+00
         -2   -1    0    0    0  501 -0.00000000000E+00  0.00000000000E+00  0.11862752371E+03  0.11862752371E+03  0.00000000000E+00 0. -1.
          2   -1    0    0  502    0  0.00000000000E+00 -0.00000000000E+00 -0.35542908687E+04  0.35542908687E+04  0.00000000000E+00 0.  1.
          6    2    1    2  502    0 -0.22641665794E+02  0.22456225989E+03 -0.33702196540E+04  0.33826199648E+04  0.18109792082E+03 0.  0.
         24    2    3    3    0    0  0.20558760243E+01  0.23226480014E+03 -0.32643077753E+04  0.32734929116E+04  0.78098825904E+02 0.  0.
         -6    2    1    2    0  501  0.22641665794E+02 -0.22456225989E+03 -0.65443691016E+02  0.29029842756E+03  0.17043898250E+03 0.  0.
        -24    2    5    5    0    0  0.40881709425E+02 -0.23018924027E+03 -0.28819565993E+02  0.24873187089E+03  0.79865985949E+02 0.  0.
          5    1    3    3  502    0 -0.24697541819E+02 -0.77025402554E+01 -0.10591187866E+03  0.10912705320E+03  0.47000000000E+01 0. -1.
        -11    1    4    4    0    0  0.25442420501E+02  0.25617929752E+02 -0.59635731121E+03  0.59744927628E+03  0.00000000000E+00 0.  1.
         12    1    4    4    0    0 -0.23386544477E+02  0.20664687039E+03 -0.26679504641E+04  0.26760436353E+04  0.00000000000E+00 0. -1.
         -5    1    5    5    0  501 -0.18240043630E+02  0.56269803824E+01 -0.36624125022E+02  0.41566556671E+02  0.47000000000E+01 0.  1.
         13    1    6    6    0    0 -0.23364583636E+02 -0.65733479608E+02  0.44271469541E+00  0.69763816597E+02  0.00000000000E+00 0. -1.
        -14    1    6    6    0    0  0.64246293060E+02 -0.16445576066E+03 -0.29262280689E+02  0.17896805429E+03  0.00000000000E+00 0.  1.
</event>
<event>
12    1  0.1345781E-002  0.1885717E+03  0.7818608E-02  0.1159756E+00
          1   -1    0    0  502    0  0.00000000000E+00  0.00000000000E+00  0.12856762567E+04  0.12856762567E+04  0.00000000000E+00 0.  1.
         -1   -1    0    0    0  501 -0.00000000000E+00 -0.00000000000E+00 -0.29153135194E+02  0.29153135194E+02  0.00000000000E+00 0. -1.
          6    2    1    2  502    0  0.66954938236E+02  0.95271167706E+01  0.76349328267E+03  0.78547338611E+03  0.17167620075E+03 0.  0.
         24    2    3    3    0    0  0.88394411378E+02  0.14886277553E+02  0.74884661747E+03  0.75854781436E+03  0.81168694405E+02 0.  0.
         -6    2    1    2    0  501 -0.66954938236E+02 -0.95271167706E+01  0.49302983887E+03  0.52935600582E+03  0.18045949453E+03 0.  0.
        -24    2    5    5    0    0  0.26308854563E+01  0.55339274544E+02  0.26066901935E+03  0.27823158242E+03  0.79969487538E+02 0.  0.
          5    1    3    3  502    0 -0.21439473142E+02 -0.53591607827E+01  0.14646665204E+02  0.26925571758E+02  0.47000000000E+01 0. -1.
        -11    1    4    4    0    0  0.33419069132E+02  0.45006683102E+02  0.28261506327E+03  0.28812099836E+03  0.00000000000E+00 0.  1.
         12    1    4    4    0    0  0.54975342246E+02 -0.30120405548E+02  0.46623155420E+03  0.47042681600E+03  0.00000000000E+00 0. -1.
         -5    1    5    5    0  501 -0.69585823692E+02 -0.64866391315E+02  0.23236081952E+03  0.25112442340E+03  0.47000000000E+01 0.  1.
         11    1    6    6    0    0  0.24418116759E+02  0.21293436221E+01  0.16348751651E+03  0.16531468957E+03  0.00000000000E+00 0. -1.
        -12    1    6    6    0    0 -0.21787231302E+02  0.53209930922E+02  0.97181502839E+02  0.11291689285E+03  0.00000000000E+00 0.  1.
</event>
<event>
12    1  0.1345781E-002  0.3462844E+03  0.7818608E-02  0.1064150E+00
          2   -1    0    0  502    0  0.00000000000E+00  0.00000000000E+00  0.14999287417E+04  0.14999287417E+04  0.00000000000E+00 0. -1.
         -2   -1    0    0    0  501 -0.00000000000E+00 -0.00000000000E+00 -0.10051075363E+03  0.10051075363E+03  0.00000000000E+00 0.  1.
          6    2    1    2  502    0 -0.10863420250E+03 -0.27958855580E+03  0.10576269045E+04  0.11121036779E+04  0.16801419777E+03 0.  0.
         24    2    3    3    0    0 -0.91561782769E+01 -0.66070339536E+02  0.34598662363E+03  0.36247718062E+03  0.85051968646E+02 0.  0.
         -6    2    1    2    0  501  0.10863420250E+03  0.27958855580E+03  0.34179108358E+03  0.48833581750E+03  0.17798757077E+03 0.  0.
        -24    2    5    5    0    0  0.12631830636E+03  0.28157299078E+03  0.34493688746E+03  0.46966360302E+03  0.79767035889E+02 0.  0.
          5    1    3    3  502    0 -0.99478024225E+02 -0.21351821626E+03  0.71164028088E+03  0.74962649724E+03  0.47000000000E+01 0. -1.
        -11    1    4    4    0    0  0.21958157899E+02 -0.58929223095E+02  0.29984523574E+03  0.30636902492E+03  0.00000000000E+00 0.  1.
         12    1    4    4    0    0 -0.31114336176E+02 -0.71411164417E+01  0.46141387891E+02  0.56108155701E+02  0.00000000000E+00 0. -1.
         -5    1    5    5    0  501 -0.17684103860E+02 -0.19844349792E+01 -0.31458038768E+01  0.18672214479E+02  0.47000000000E+01 0.  1.
         11    1    6    6    0    0  0.69558317527E+01  0.32980747416E+02  0.81913379084E+02  0.88577169567E+02  0.00000000000E+00 0. -1.
        -12    1    6    6    0    0  0.11936247461E+03  0.24859224336E+03  0.26302350837E+03  0.38108643345E+03  0.00000000000E+00 0.  1.
</event>
<event>
12    1  0.1345781E-002  0.1963797E+03  0.7818608E-02  0.1152830E+00
         -2   -1    0    0    0  501 -0.00000000000E+00  0.00000000000E+00  0.86138559911E+02  0.86138559911E+02  0.00000000000E+00 0.  1.
          2   -1    0    0  502    0  0.00000000000E+00 -0.00000000000E+00 -0.52805708823E+03  0.52805708823E+03  0.00000000000E+00 0. -1.
          6    2    1    2  502    0  0.94712115494E+02  0.22842208207E+02 -0.10149938462E+03  0.22136668706E+03  0.17090621336E+03 0.  0.
         24    2    3    3    0    0  0.11140073173E+03 -0.24923179874E+02 -0.98277290412E+02  0.17044995011E+03  0.79771371786E+02 0.  0.
         -6    2    1    2    0  501 -0.94712115494E+02 -0.22842208207E+02 -0.34041914370E+03  0.39282896108E+03  0.17010951758E+03 0.  0.
        -24    2    5    5    0    0 -0.95460003384E+02  0.32533056239E+02 -0.29244381476E+03  0.31940756477E+03  0.79541156957E+02 0.  0.
          5    1    3    3  502    0 -0.16688616239E+02  0.47765388081E+02 -0.32220942107E+01  0.50916736950E+02  0.47000000000E+01 0. -1.
        -11    1    4    4    0    0  0.42208992235E+02 -0.28786989950E+02 -0.11111951720E+01  0.51103077897E+02  0.00000000000E+00 0.  1.
         12    1    4    4    0    0  0.69191739497E+02  0.38638100768E+01 -0.97166095240E+02  0.11934687221E+03  0.00000000000E+00 0. -1.
         -5    1    5    5    0  501  0.74788789054E+00 -0.55375264446E+02 -0.47975328938E+02  0.73421396306E+02  0.47000000000E+01 0.  1.
         13    1    6    6    0    0 -0.65041725418E+02  0.46325294839E+02 -0.12260736372E+03  0.14631823067E+03  0.00000000000E+00 0. -1.
        -14    1    6    6    0    0 -0.30418277966E+02 -0.13792238601E+02 -0.16983645104E+03  0.17308933411E+03  0.00000000000E+00 0.  1.
</event>
<event>
12    1  0.1345781E-002  0.1770410E+03  0.7818608E-02  0.1170698E+00
          1   -1    0    0  502    0  0.00000000000E+00  0.00000000000E+00  0.27926184472E+03  0.27926184472E+03  0.00000000000E+00 0. -1.
         -1   -1    0    0    0  501 -0.00000000000E+00 -0.00000000000E+00 -0.11499476974E+03  0.11499476974E+03  0.00000000000E+00 0.  1.
          6    2    1    2  502    0 -0.10541462560E+02  0.38025496597E+02  0.51685871290E+02  0.18459933935E+03  0.17276697014E+03 0.  0.
         24    2    3    3    0    0  0.33035074000E+01  0.28253154215E+02 -0.38454629354E+02  0.92759360443E+02  0.79475697838E+02 0.  0.
         -6    2    1    2    0  501  0.10541462560E+02 -0.38025496597E+02  0.11258120368E+03  0.20965727511E+03  0.17240819226E+03 0.  0.
        -24    2    5    5    0    0 -0.85287313424E+01  0.45750918703E+01  0.13527689963E+03  0.15754521271E+03  0.80168471058E+02 0.  0.
          5    1    3    3  502    0 -0.13844969960E+02  0.97723423823E+01  0.90140500644E+02  0.91839978904E+02  0.47000000000E+01 0. -1.
        -11    1    4    4    0    0 -0.35784978623E+02  0.97499288460E+01 -0.36912095666E+01  0.37272655334E+02  0.00000000000E+00 0.  1.
         12    1    4    4    0    0  0.39088486023E+02  0.18503225369E+02 -0.34763419787E+02  0.55486705110E+02  0.00000000000E+00 0. -1.
         -5    1    5    5    0  501  0.19070193903E+02 -0.42600588467E+02 -0.22695695941E+02  0.52112062399E+02  0.47000000000E+01 0.  1.
         13    1    6    6    0    0 -0.10546039783E+02 -0.30760021181E+02  0.23020089386E+02  0.39841214508E+02  0.00000000000E+00 0. -1.
        -14    1    6    6    0    0  0.20173084406E+01  0.35335113051E+02  0.11225681024E+03  0.11770399820E+03  0.00000000000E+00 0.  1.
</event>
<event>
12    1  0.1345781E-002  0.2052078E+03  0.7818608E-02  0.1145418E+00
         -2   -1    0    0    0  501 -0.00000000000E+00  0.00000000000E+00  0.16459106450E+03  0.16459106450E+03  0.00000000000E+00 0. -1.
          2   -1    0    0  502    0  0.00000000000E+00 -0.00000000000E+00 -0.26443500946E+03  0.26443500946E+03  0.00000000000E+00 0.  1.
          6    2    1    2  502    0 -0.18933321675E+02  0.11175119622E+03 -0.87980014524E+02  0.22122633098E+03  0.16838588431E+03 0.  0.
         24    2    3    3    0    0 -0.24279710192E+02  0.12866298723E+03 -0.25681621570E+02  0.15628195239E+03  0.81368509549E+02 0.  0.
         -6    2    1    2    0  501  0.18933321675E+02 -0.11175119622E+03 -0.11863930435E+02  0.20779974298E+03  0.17376184797E+03 0.  0.
        -24    2    5    5    0    0  0.66345877972E+02 -0.53888522806E+02  0.24438966795E+02  0.12451691272E+03  0.87186295026E+02 0.  0.
          5    1    3    3  502    0  0.53463885167E+01 -0.16911791006E+02 -0.62298392954E+02  0.64944378586E+02  0.47000000000E+01 0. -1.
        -11    1    4    4    0    0 -0.54343583151E+00 -0.99169908166E+01 -0.11154508942E+02  0.14935364043E+02  0.00000000000E+00 0.  1.
         12    1    4    4    0    0 -0.23736274360E+02  0.13857997805E+03 -0.14527112628E+02  0.14134658835E+03  0.00000000000E+00 0. -1.
         -5    1    5    5    0  501 -0.47412556297E+02 -0.57862673419E+02 -0.36302897230E+02  0.83282830266E+02  0.47000000000E+01 0.  1.
         13    1    6    6    0    0  0.15114933367E+02 -0.35340144561E+02  0.51032312334E+02  0.63888057807E+02  0.00000000000E+00 0. -1.
        -14    1    6    6    0    0  0.51230944605E+02 -0.18548378245E+02 -0.26593345539E+02  0.60628854909E+02  0.00000000000E+00 0.  1.
</event>
<event>
12    1  0.1345781E-002  0.2811152E+03  0.7818608E-02  0.1095081E+00
          1   -1    0    0  502    0  0.00000000000E+00  0.00000000000E+00  0.77107054353E+03  0.77107054353E+03  0.00000000000E+00 0.  1.
         -1   -1    0    0    0  501 -0.00000000000E+00 -0.00000000000E+00 -0.15363434671E+03  0.15363434671E+03  0.00000000000E+00 0. -1.
          6    2    1    2  502    0  0.17216444257E+03 -0.13422544102E+03  0.57761652910E+03  0.64369937389E+03  0.18179924355E+03 0.  0.
         24    2    3    3    0    0  0.11583344144E+03 -0.10319886674E+03  0.54343750513E+03  0.57071906367E+03  0.79552092378E+02 0.  0.
         -6    2    1    2    0  501 -0.17216444257E+03  0.13422544102E+03  0.39819667713E+02  0.28100551635E+03  0.17239904287E+03 0.  0.
        -24    2    5    5    0    0 -0.19545837379E+03  0.93254952042E+02  0.34511137291E+02  0.23334569372E+03  0.79741659223E+02 0.  0.
          5    1    3    3  502    0  0.56331001136E+02 -0.31026574284E+02  0.34179023972E+02  0.72980310225E+02  0.47000000000E+01 0. -1.
        -13    1    4    4    0    0  0.76883863101E+02 -0.17831377852E+02  0.21042672155E+03  0.22474094328E+03  0.00000000000E+00 0.  1.
         14    1    4    4    0    0  0.38949578334E+02 -0.85367488883E+02  0.33301078358E+03  0.34597812039E+03  0.00000000000E+00 0. -1.
         -5    1    5    5    0  501  0.23293931215E+02  0.40970488978E+02  0.53085304218E+01  0.47659822636E+02  0.47000000000E+01 0.  1.
         11    1    6    6    0    0 -0.53142098922E+02  0.58720317616E+02 -0.11076395295E+02  0.79967774206E+02  0.00000000000E+00 0. -1.
        -12    1    6    6    0    0 -0.14231627486E+03  0.34534634426E+02  0.45587532587E+02  0.15337791951E+03  0.00000000000E+00 0.  1.
</event>
<event>
12    1  0.1345781E-002  0.2604142E+03  0.7818608E-02  0.1106895E+00
         -1   -1    0    0    0  501 -0.00000000000E+00  0.00000000000E+00  0.17155808956E+03  0.17155808956E+03  0.00000000000E+00 0. -1.
          1   -1    0    0  502    0  0.00000000000E+00 -0.00000000000E+00 -0.42404045812E+03  0.42404045812E+03  0.00000000000E+00 0.  1.
          6    2    1    2  502    0 -0.16631954436E+03  0.10404385331E+03 -0.48842916723E+02  0.26526180436E+03  0.17172908924E+03 0.  0.
         24    2    3    3    0    0 -0.13966662703E+03  0.12177641863E+03  0.46476349380E+01  0.20274659828E+03  0.82148157382E+02 0.  0.
         -6    2    1    2    0  501  0.16631954436E+03 -0.10404385331E+03 -0.20363945183E+03  0.33033674331E+03  0.17078062944E+03 0.  0.
        -24    2    5    5    0    0  0.17718488802E+03 -0.74390028097E+02 -0.11858308622E+03  0.23948477375E+03  0.79766206478E+02 0.  0.
          5    1    3    3  502    0 -0.26652917331E+02 -0.17732565322E+02 -0.53490551661E+02  0.62515206088E+02  0.47000000000E+01 0. -1.
        -11    1    4    4    0    0 -0.67768950296E+02  0.48791989584E+02 -0.38035853400E+02  0.91760639795E+02  0.00000000000E+00 0.  1.
         12    1    4    4    0    0 -0.71897676736E+02  0.72984429049E+02  0.42683488338E+02  0.11098595848E+03  0.00000000000E+00 0. -1.
         -5    1    5    5    0  501 -0.10865343663E+02 -0.29653825213E+02 -0.85056365606E+02  0.90851969559E+02  0.47000000000E+01 0.  1.
         13    1    6    6    0    0  0.72554285908E+02  0.50600613547E+01 -0.65198199934E+02  0.97675656635E+02  0.00000000000E+00 0. -1.
        -14    1    6    6    0    0  0.10463060212E+03 -0.79450089452E+02 -0.53384886291E+02  0.14180911712E+03  0.00000000000E+00 0.  1.
</event>
<event>
12    1  0.1345781E-002  0.2517403E+03  0.7818608E-02  0.1112210E+00
          1   -1    0    0  502    0  0.00000000000E+00  0.00000000000E+00  0.33805467396E+03  0.33805467396E+03  0.00000000000E+00 0.  1.
         -1   -1    0    0    0  501 -0.00000000000E+00 -0.00000000000E+00 -0.20425531251E+03  0.20425531251E+03  0.00000000000E+00 0. -1.
          6    2    1    2  502    0  0.42663236495E+01  0.18461737960E+03 -0.10992081162E+02  0.25136547859E+03  0.17018225410E+03 0.  0.
         24    2    3    3    0    0 -0.22305501636E+02  0.14862861332E+03  0.48302486572E+02  0.17693975078E+03  0.79915862603E+02 0.  0.
         -6    2    1    2    0  501 -0.42663236495E+01 -0.18461737960E+03  0.14479144261E+03  0.29094450789E+03  0.17199525124E+03 0.  0.
        -24    2    5    5    0    0 -0.64340321589E+02 -0.14993643519E+03  0.91411106054E+02  0.20329062341E+03  0.79689871857E+02 0.  0.
          5    1    3    3  502    0  0.26571825285E+02  0.35988766275E+02 -0.59294567734E+02  0.74425727808E+02  0.47000000000E+01 0. -1.
        -11    1    4    4    0    0 -0.41788619389E+02  0.12459126711E+03  0.16290675590E+02  0.13241849818E+03  0.00000000000E+00 0.  1.
         12    1    4    4    0    0  0.19483117753E+02  0.24037346213E+02  0.32011810981E+02  0.44521252595E+02  0.00000000000E+00 0. -1.
         -5    1    5    5    0  501  0.60073997940E+02 -0.34680944408E+02  0.53380336558E+02  0.87653884481E+02  0.47000000000E+01 0.  1.
         13    1    6    6    0    0 -0.18173731030E+02 -0.82880446603E+02  0.87352087575E+02  0.12177783104E+03  0.00000000000E+00 0. -1.
        -14    1    6    6    0    0 -0.46166590559E+02 -0.67055988584E+02  0.40590184791E+01  0.81512792370E+02  0.00000000000E+00 0.  1.
</event>
<event>
12    1  0.1345781E-002  0.2198003E+03  0.7818608E-02  0.1134032E+00
         -2   -1    0    0    0  501 -0.00000000000E+00  0.00000000000E+00  0.14657391929E+02  0.14657391929E+02  0.00000000000E+00 0.  1.
          2   -1    0    0  502    0  0.00000000000E+00 -0.00000000000E+00 -0.35226917352E+04  0.35226917352E+04  0.00000000000E+00 0. -1.
          6    2    1    2  502    0 -0.13128142806E+03  0.43679345951E+02 -0.21970002412E+04  0.22078941013E+04  0.16983404827E+03 0.  0.
         24    2    3    3    0    0 -0.87535575290E+02  0.38051937873E+02 -0.75091427998E+03  0.76112803012E+03  0.79581376281E+02 0.  0.
         -6    2    1    2    0  501  0.13128142806E+03 -0.43679345951E+02 -0.13110341021E+04  0.13294550258E+04  0.17174850912E+03 0.  0.
        -24    2    5    5    0    0  0.14675248510E+03  0.82665077127E+01 -0.95185565209E+03  0.96617968367E+03  0.76611824672E+02 0.  0.
          5    1    3    3  502    0 -0.43745852766E+02  0.56274080779E+01 -0.14460859613E+04  0.14467660712E+04  0.47000000000E+01 0. -1.
        -11    1    4    4    0    0 -0.69794442127E+02  0.40021159812E+02 -0.72619169919E+03  0.73063488923E+03  0.00000000000E+00 0.  1.
         12    1    4    4    0    0 -0.17741133163E+02 -0.19692219392E+01 -0.24722580784E+02  0.30493140893E+02  0.00000000000E+00 0. -1.
         -5    1    5    5    0  501 -0.15471057041E+02 -0.51945853664E+02 -0.35917844996E+03  0.36327534218E+03  0.47000000000E+01 0.  1.
         13    1    6    6    0    0  0.94947684331E+02  0.34078718545E+02 -0.46007209465E+03  0.47100186209E+03  0.00000000000E+00 0. -1.
        -14    1    6    6    0    0  0.51804800765E+02 -0.25812210832E+02 -0.49178355745E+03  0.49517782158E+03  0.00000000000E+00 0.  1.
</event>
<event>
12    1  0.1345781E-002  0.2641890E+03  0.7818608E-02  0.1104652E+00
         -2   -1    0    0    0  501 -0.00000000000E+00  0.00000000000E+00  0.21351529178E+03  0.21351529178E+03  0.00000000000E+00 0. -1.
          2   -1    0    0  502    0  0.00000000000E+00 -0.00000000000E+00 -0.33804848619E+03  0.33804848619E+03  0.00000000000E+00 0.  1.
          6    2    1    2  502    0 -0.40212792235E+02 -0.19567382284E+03 -0.11221326771E+03  0.28640668638E+03  0.17184777842E+03 0.  0.
         24    2    3    3    0    0  0.42442703002E+02 -0.92814915965E+02 -0.47633111291E+02  0.13942174763E+03  0.82179795309E+02 0.  0.
         -6    2    1    2    0  501  0.40212792235E+02  0.19567382284E+03 -0.12319926694E+02  0.26515709159E+03  0.17392868948E+03 0.  0.
        -24    2    5    5    0    0 -0.86152990095E+01  0.10449498178E+03 -0.67180159312E+02  0.14798414815E+03  0.79954422673E+02 0.  0.
          5    1    3    3  502    0 -0.82655495237E+02 -0.10285890687E+03 -0.64580156421E+02  0.14698493875E+03  0.47000000000E+01 0. -1.
        -11    1    4    4    0    0  0.16157505215E+02 -0.42737599937E+02 -0.65721468715E+02  0.80042981411E+02  0.00000000000E+00 0.  1.
         12    1    4    4    0    0  0.26285197787E+02 -0.50077316028E+02  0.18088357424E+02  0.59378766218E+02  0.00000000000E+00 0. -1.
         -5    1    5    5    0  501  0.48828091245E+02  0.91178841057E+02  0.54860232618E+02  0.11717294344E+03  0.47000000000E+01 0.  1.
         13    1    6    6    0    0 -0.18824434130E+02  0.28740203649E+01  0.85143629800E+01  0.20859378953E+02  0.00000000000E+00 0. -1.
        -14    1    6    6    0    0  0.10209135120E+02  0.10162096141E+03 -0.75694522292E+02  0.12712476920E+03  0.00000000000E+00 0.  1.
</event>
<event>
12    1  0.1345781E-002  0.1934180E+03  0.7818608E-02  0.1155414E+00
         -1   -1    0    0    0  501 -0.00000000000E+00  0.00000000000E+00  0.23376633287E+02  0.23376633287E+02  0.00000000000E+00 0.  1.
          1   -1    0    0  502    0  0.00000000000E+00 -0.00000000000E+00 -0.16071285300E+04  0.16071285300E+04  0.00000000000E+00 0. -1.
          6    2    1    2  502    0 -0.89605540719E+02  0.11682108966E+02 -0.73665203184E+03  0.76147918247E+03  0.17037812277E+03 0.  0.
         24    2    3    3    0    0 -0.25720594528E+02 -0.31091530009E+02 -0.58139636698E+03  0.58816651123E+03  0.79308745868E+02 0.  0.
         -6    2    1    2    0  501  0.89605540719E+02 -0.11682108966E+02 -0.84709986486E+03  0.86902598081E+03  0.17164600104E+03 0.  0.
        -24    2    5    5    0    0  0.16217708892E+02 -0.56797178744E+02 -0.58004551002E+03  0.58838161186E+03  0.79064491958E+02 0.  0.
          5    1    3    3  502    0 -0.63884946191E+02  0.42773638975E+02 -0.15525566486E+03  0.17331267124E+03  0.47000000000E+01 0. -1.
        -13    1    4    4    0    0  0.28643628086E+02 -0.81254593594E+01 -0.21369459454E+03  0.21575880110E+03  0.00000000000E+00 0.  1.
         14    1    4    4    0    0 -0.54364222614E+02 -0.22966070650E+02 -0.36770177245E+03  0.37240771013E+03  0.00000000000E+00 0. -1.
         -5    1    5    5    0  501  0.73387831827E+02  0.45115069778E+02 -0.26705435484E+03  0.28064436895E+03  0.47000000000E+01 0.  1.
         11    1    6    6    0    0  0.69167378157E+01  0.20006914786E+02 -0.13882710271E+03  0.14043177115E+03  0.00000000000E+00 0. -1.
        -12    1    6    6    0    0  0.93009710762E+01 -0.76804093529E+02 -0.44121840731E+03  0.44794984071E+03  0.00000000000E+00 0.  1.
</event>
<event>
12    1  0.1345781E-002  0.2297749E+03  0.7818608E-02  0.1126798E+00
          2   -1    0    0  502    0  0.00000000000E+00  0.00000000000E+00  0.11679656109E+04  0.11679656109E+04  0.00000000000E+00 0. -1.
         -2   -1    0    0    0  501 -0.00000000000E+00 -0.00000000000E+00 -0.69175542609E+02  0.69175542609E+02  0.00000000000E+00 0.  1.
          6    2    1    2  502    0 -0.28525158979E+02 -0.14933715108E+03  0.91530659175E+03  0.94398680249E+03  0.17380925462E+03 0.  0.
         24    2    3    3    0    0 -0.22827054663E+02 -0.46156812849E+02  0.20510879906E+03  0.22629491502E+03  0.80549632639E+02 0.  0.
         -6    2    1    2    0  501  0.28525158979E+02  0.14933715108E+03  0.18348347658E+03  0.29315435106E+03  0.17075719012E+03 0.  0.
        -24    2    5    5    0    0 -0.17302536998E+02  0.13870437904E+03  0.18567132266E+03  0.24582454829E+03  0.80109836668E+02 0.  0.
          5    1    3    3  502    0 -0.56981043158E+01 -0.10318033823E+03  0.71019779269E+03  0.71769188747E+03  0.47000000000E+01 0. -1.
        -13    1    4    4    0    0  0.23346363223E+00 -0.56124066217E+02  0.74407385027E+02  0.93200988517E+02  0.00000000000E+00 0.  1.
         14    1    4    4    0    0 -0.23060518296E+02  0.99672533678E+01  0.13070141403E+03  0.13309392651E+03  0.00000000000E+00 0. -1.
         -5    1    5    5    0  501  0.45827695977E+02  0.10632772045E+02 -0.21878460797E+01  0.47329802772E+02  0.47000000000E+01 0.  1.
         11    1    6    6    0    0 -0.46614242514E+02  0.53280057421E+02  0.82185598023E+02  0.10847176889E+03  0.00000000000E+00 0. -1.
        -12    1    6    6    0    0  0.29311705516E+02  0.85424321614E+02  0.10348572464E+03  0.13735277939E+03  0.00000000000E+00 0.  1.
</event>
<event>
12    1  0.1345781E-002  0.2155963E+03  0.7818608E-02  0.1137209E+00
         -1   -1    0    0    0  501 -0.00000000000E+00  0.00000000000E+00  0.12327802461E+03  0.12327802461E+03  0.00000000000E+00 0. -1.
          1   -1    0    0  502    0  0.00000000000E+00 -0.00000000000E+00 -0.40246227165E+03  0.40246227165E+03  0.00000000000E+00 0.  1.
          6    2    1    2  502    0 -0.40996944259E+02 -0.12208344719E+03 -0.20626925300E+03  0.29913368634E+03  0.17420918475E+03 0.  0.
         24    2    3    3    0    0  0.79596609093E+01 -0.11249494595E+03 -0.20808930904E+03  0.24899297284E+03  0.77316692392E+02 0.  0.
         -6    2    1    2    0  501  0.40996944259E+02  0.12208344719E+03 -0.72914994041E+02  0.22660660992E+03  0.17160664844E+03 0.  0.
        -24    2    5    5    0    0 -0.27912252402E+02  0.61906354179E+02  0.37834777644E+01  0.10713064797E+03  0.82771797780E+02 0.  0.
          5    1    3    3  502    0 -0.48956605168E+02 -0.95885012381E+01  0.18200560403E+01  0.50140713493E+02  0.47000000000E+01 0. -1.
        -13    1    4    4    0    0 -0.22177080925E+02 -0.73930658714E+02 -0.76829099309E+02  0.10890489299E+03  0.00000000000E+00 0.  1.
         14    1    4    4    0    0  0.30136741835E+02 -0.38564287234E+02 -0.13126020973E+03  0.14008807985E+03  0.00000000000E+00 0. -1.
         -5    1    5    5    0  501  0.68909196661E+02  0.60177093007E+02 -0.76698471805E+02  0.11947596195E+03  0.47000000000E+01 0.  1.
         11    1    6    6    0    0  0.14947968777E+02  0.28252382428E+02  0.32457141600E+02  0.45553319574E+02  0.00000000000E+00 0. -1.
        -12    1    6    6    0    0 -0.42860221179E+02  0.33653971752E+02 -0.28673663835E+02  0.61577328392E+02  0.00000000000E+00 0.  1.
</event>
<event>
12    1  0.1345781E-002  0.3274643E+03  0.7818608E-02  0.1072264E+00
          1   -1    0    0  502    0  0.00000000000E+00  0.00000000000E+00  0.70103679173E+03  0.70103679173E+03  0.00000000000E+00 0. -1.
         -1   -1    0    0    0  501 -0.00000000000E+00 -0.00000000000E+00 -0.16273222255E+03  0.16273222255E+03  0.00000000000E+00 0.  1.
          6    2    1    2  502    0  0.24348950778E+03 -0.13605573482E+03  0.37486769624E+03  0.49766709985E+03  0.17131389089E+03 0.  0.
         24    2    3    3    0    0  0.19596799472E+03 -0.37815887038E+02  0.21181512092E+03  0.30140810206E+03  0.78407284529E+02 0.  0.
         -6    2    1    2    0  501 -0.24348950778E+03  0.13605573482E+03  0.16343687294E+03  0.36610191443E+03  0.17181588092E+03 0.  0.
        -24    2    5    5    0    0 -0.13465659622E+03  0.14883089734E+03  0.12686394897E+03  0.25048411224E+03  0.79779659246E+02 0.  0.
          5    1    3    3  502    0  0.47521513052E+02 -0.98239847783E+02  0.16305257532E+03  0.19625899779E+03  0.47000000000E+01 0. -1.
        -11    1    4    4    0    0  0.31205539757E+02  0.72400259694E+01  0.78321842760E+02  0.84619824751E+02  0.00000000000E+00 0.  1.
         12    1    4    4    0    0  0.16476245497E+03 -0.45055913007E+02  0.13349327816E+03  0.21678827731E+03  0.00000000000E+00 0. -1.
         -5    1    5    5    0  501 -0.10883291156E+03 -0.12775162515E+02  0.36572923977E+02  0.11561780219E+03  0.47000000000E+01 0.  1.
         13    1    6    6    0    0 -0.15476834929E+02  0.75359964565E+01  0.45266554121E+02  0.48429170796E+02  0.00000000000E+00 0. -1.
        -14    1    6    6    0    0 -0.11917976129E+03  0.14129490088E+03  0.81597394846E+02  0.20205494144E+03  0.00000000000E+00 0.  1.
</event>
<event>
12    1  0.1345781E-002  0.2429827E+03  0.7818608E-02  0.1117822E+00
          1   -1    0    0  502    0  0.00000000000E+00  0.00000000000E+00  0.60240297808E+03  0.60240297808E+03  0.00000000000E+00 0. -1.
         -1   -1    0    0    0  501 -0.00000000000E+00 -0.00000000000E+00 -0.10304742060E+03  0.10304742060E+03  0.00000000000E+00 0.  1.
          6    2    1    2  502    0  0.16603151962E+03  0.39911151891E+02  0.32677510787E+03  0.40667143905E+03  0.17158182498E+03 0.  0.
         24    2    3    3    0    0  0.48157551347E+02  0.48884845130E+02  0.23924118025E+03  0.25950120411E+03  0.73455120802E+02 0.  0.
         -6    2    1    2    0  501 -0.16603151962E+03 -0.39911151891E+02  0.17258044960E+03  0.29877895963E+03  0.17414215336E+03 0.  0.
        -24    2    5    5    0    0 -0.74918654664E+02  0.40533815885E+02  0.53691066655E+02  0.12869156333E+03  0.80143576083E+02 0.  0.
          5    1    3    3  502    0  0.11787396828E+03 -0.89736932386E+01  0.87533927619E+02  0.14717023494E+03  0.47000000000E+01 0. -1.
        -13    1    4    4    0    0 -0.18465255870E+02  0.19628236015E+02  0.50917149847E+02  0.57608935696E+02  0.00000000000E+00 0.  1.
         14    1    4    4    0    0  0.66622807217E+02  0.29256609115E+02  0.18832403040E+03  0.20189226842E+03  0.00000000000E+00 0. -1.
         -5    1    5    5    0  501 -0.91112864960E+02 -0.80444967777E+02  0.11888938295E+03  0.17008739630E+03  0.47000000000E+01 0.  1.
         13    1    6    6    0    0  0.16632095495E+02  0.71000868186E+01  0.16153514443E+02  0.24248172349E+02  0.00000000000E+00 0. -1.
        -14    1    6    6    0    0 -0.91550750159E+02  0.33433729067E+02  0.37537552212E+02  0.10444339098E+03  0.00000000000E+00 0.  1.
</event>
<event>
12    1  0.1345781E-002  0.2630174E+03  0.7818608E-02  0.1105344E+00
          2   -1    0    0  502    0  0.00000000000E+00  0.00000000000E+00  0.34334537563E+03  0.34334537563E+03  0.00000000000E+00 0. -1.
         -2   -1    0    0    0  501 -0.00000000000E+00 -0.00000000000E+00 -0.20750311159E+03  0.20750311159E+03  0.00000000000E+00 0.  1.
          6    2    1    2  502    0 -0.18371751497E+03 -0.77410219407E+02  0.21082012861E+02  0.26415453065E+03  0.17201365475E+03 0.  0.
         24    2    3    3    0    0 -0.18404726314E+03 -0.11058557946E+03  0.24372051732E+02  0.23048514390E+03  0.80167569477E+02 0.  0.
         -6    2    1    2    0  501  0.18371751497E+03  0.77410219407E+02  0.11476025118E+03  0.28669395657E+03  0.17111119807E+03 0.  0.
        -24    2    5    5    0    0  0.94955601241E+02  0.98585249989E+02  0.28664383187E+02  0.16114855548E+03  0.80072419391E+02 0.  0.
          5    1    3    3  502    0  0.32974816836E+00  0.33175360058E+02 -0.32900388717E+01  0.33669386757E+02  0.47000000000E+01 0. -1.
        -13    1    4    4    0    0 -0.68878045238E+02 -0.69810292573E+02 -0.20756992883E+02  0.10024228059E+03  0.00000000000E+00 0.  1.
         14    1    4    4    0    0 -0.11516921790E+03 -0.40775286892E+02  0.45129044616E+02  0.13024286330E+03  0.00000000000E+00 0. -1.
         -5    1    5    5    0  501  0.88761913731E+02 -0.21175030582E+02  0.86095867991E+02  0.12554540109E+03  0.47000000000E+01 0.  1.
         11    1    6    6    0    0 -0.72116015532E+00  0.37444193017E+01  0.26130378738E+02  0.26407147534E+02  0.00000000000E+00 0. -1.
        -12    1    6    6    0    0  0.95676761396E+02  0.94840830687E+02  0.25340044497E+01  0.13474140795E+03  0.00000000000E+00 0.  1.
</event>
<event>
12    1  0.1345781E-002  0.2425419E+03  0.7818608E-02  0.1118111E+00
         -2   -1    0    0    0  501 -0.00000000000E+00  0.00000000000E+00  0.47089210158E+02  0.47089210158E+02  0.00000000000E+00 0.  1.
          2   -1    0    0  502    0  0.00000000000E+00 -0.00000000000E+00 -0.17213091952E+04  0.17213091952E+04  0.00000000000E+00 0. -1.
          6    2    1    2  502    0 -0.12532883944E+03  0.11593558041E+03 -0.12989958447E+04  0.13213610049E+04  0.17162844785E+03 0.  0.
         24    2    3    3    0    0 -0.11873492802E+03  0.13577500311E+03 -0.89276678837E+03  0.91456717689E+03  0.82871877139E+02 0.  0.
         -6    2    1    2    0  501  0.12532883944E+03 -0.11593558041E+03 -0.37522414043E+03  0.44703740047E+03  0.17291878169E+03 0.  0.
        -24    2    5    5    0    0  0.68570695362E+02 -0.10171380924E+03 -0.13090901476E+03  0.19576918456E+03  0.78363028448E+02 0.  0.
          5    1    3    3  502    0 -0.65939114180E+01 -0.19839422708E+02 -0.40622905629E+03  0.40679382805E+03  0.47000000000E+01 0. -1.
        -13    1    4    4    0    0 -0.89190437538E+02  0.85396162883E+02 -0.40747621528E+03  0.42577494619E+03  0.00000000000E+00 0.  1.
         14    1    4    4    0    0 -0.29544490480E+02  0.50378840231E+02 -0.48529057309E+03  0.48879223069E+03  0.00000000000E+00 0. -1.
         -5    1    5    5    0  501  0.56758144074E+02 -0.14221771165E+02 -0.24431512567E+03  0.25126821591E+03  0.47000000000E+01 0.  1.
         13    1    6    6    0    0 -0.13326746869E+02  0.16026603141E+01 -0.86594031836E+01  0.15973602151E+02  0.00000000000E+00 0. -1.
        -14    1    6    6    0    0  0.81897442231E+02 -0.10331646956E+03 -0.12224961157E+03  0.17979558241E+03  0.00000000000E+00 0.  1.
</event>
<event>
12    1  0.1345781E-002  0.1894391E+03  0.7818608E-02  0.1158968E+00
         -2   -1    0    0    0  501 -0.00000000000E+00  0.00000000000E+00  0.91134139216E+02  0.91134139216E+02  0.00000000000E+00 0. -1.
          2   -1    0    0  502    0  0.00000000000E+00 -0.00000000000E+00 -0.48023388714E+03  0.48023388714E+03  0.00000000000E+00 0.  1.
          6    2    1    2  502    0 -0.77288369583E+02  0.17752127083E+02 -0.73488758133E+02  0.20335956831E+03  0.17223787725E+03 0.  0.
         24    2    3    3    0    0 -0.94015778286E+02 -0.19394861350E+02 -0.59871193924E+01  0.12437687283E+03  0.78858313979E+02 0.  0.
         -6    2    1    2    0  501  0.77288369583E+02 -0.17752127083E+02 -0.31561098979E+03  0.36800845804E+03  0.17184672889E+03 0.  0.
        -24    2    5    5    0    0  0.45176734245E+02 -0.65126713403E+02 -0.27679341324E+03  0.29869465854E+03  0.79507731141E+02 0.  0.
          5    1    3    3  502    0  0.16727408703E+02  0.37146988434E+02 -0.67501638740E+02  0.78982695474E+02  0.47000000000E+01 0. -1.
        -11    1    4    4    0    0 -0.21747678265E+02  0.18298170559E+02 -0.28054149961E+02  0.39935196077E+02  0.00000000000E+00 0.  1.
         12    1    4    4    0    0 -0.72268100021E+02 -0.37693031909E+02  0.22067030568E+02  0.84441676755E+02  0.00000000000E+00 0. -1.
         -5    1    5    5    0  501  0.32111635338E+02  0.47374586320E+02 -0.38817576548E+02  0.69313799507E+02  0.47000000000E+01 0.  1.
         13    1    6    6    0    0  0.53415835248E+02 -0.39381200928E+02 -0.10110905967E+03  0.12094284762E+03  0.00000000000E+00 0. -1.
        -14    1    6    6    0    0 -0.82391010029E+01 -0.25745512474E+02 -0.17568435356E+03  0.17775181092E+03  0.00000000000E+00 0.  1.
</event>
<event>
12    1  0.1345781E-002  0.2274167E+03  0.7818608E-02  0.1128471E+00
          1   -1    0    0  502    0  0.00000000000E+00  0.00000000000E+00  0.57201171660E+03  0.57201171660E+03  0.00000000000E+00 0. -1.
         -1   -1    0    0    0  501 -0.00000000000E+00 -0.00000000000E+00 -0.93209164347E+02  0.93209164347E+02  0.00000000000E+00 0.  1.
          6    2    1    2  502    0  0.14368804725E+03  0.42787079881E+02  0.29742192371E+03  0.37466248995E+03  0.17156687194E+03 0.  0.
         24    2    3    3    0    0  0.14849679070E+03  0.57178983275E+02  0.16970225783E+03  0.24595874506E+03  0.79850579098E+02 0.  0.
         -6    2    1    2    0  501 -0.14368804725E+03 -0.42787079881E+02  0.18138062855E+03  0.29055839099E+03  0.17043549231E+03 0.  0.
        -24    2    5    5    0    0 -0.58815627334E+02  0.39421777396E+02  0.10748619197E+03  0.15111628246E+03  0.79180141490E+02 0.  0.
          5    1    3    3  502    0 -0.48087434516E+01 -0.14391903394E+02  0.12771966588E+03  0.12870374489E+03  0.47000000000E+01 0. -1.
        -13    1    4    4    0    0  0.69053682454E+01  0.11067804115E+02  0.58953227522E+02  0.60379329524E+02  0.00000000000E+00 0.  1.
         14    1    4    4    0    0  0.14159142246E+03  0.46111179159E+02  0.11074903031E+03  0.18557941554E+03  0.00000000000E+00 0. -1.
         -5    1    5    5    0  501 -0.84872419918E+02 -0.82208857277E+02  0.73894436571E+02  0.13944210854E+03  0.47000000000E+01 0.  1.
         13    1    6    6    0    0 -0.48202409672E+02  0.30510662099E+02  0.11972883820E+03  0.13262491280E+03  0.00000000000E+00 0. -1.
        -14    1    6    6    0    0 -0.10613217662E+02  0.89111152969E+01 -0.12242646225E+02  0.18491369651E+02  0.00000000000E+00 0.  1.
</event>
<event>
12    1  0.1345781E-002  0.1902810E+03  0.7818608E-02  0.1158208E+00
         -1   -1    0    0    0  501 -0.00000000000E+00  0.00000000000E+00  0.11478744476E+03  0.11478744476E+03  0.00000000000E+00 0.  1.
          1   -1    0    0  502    0  0.00000000000E+00 -0.00000000000E+00 -0.33520366676E+03  0.33520366676E+03  0.00000000000E+00 0. -1.
          6    2    1    2  502    0 -0.10183711158E+02  0.83097086632E+02 -0.16565251961E+03  0.25342603918E+03  0.17255482115E+03 0.  0.
         24    2    3    3    0    0 -0.24705787058E+01  0.12349659356E+03 -0.12764222511E+03  0.19722563830E+03  0.85719906616E+02 0.  0.
         -6    2    1    2    0  501  0.10183711158E+02 -0.83097086632E+02 -0.54763702387E+02  0.19656507234E+03  0.16920381433E+03 0.  0.
        -24    2    5    5    0    0  0.14277401746E+02  0.34020202521E+01  0.18482718318E+02  0.83048633261E+02  0.79624409999E+02 0.  0.
          5    1    3    3  502    0 -0.77131324522E+01 -0.40399506926E+02 -0.38010294497E+02  0.56200400887E+02  0.47000000000E+01 0. -1.
        -13    1    4    4    0    0 -0.29491619413E+02  0.55054750439E+02 -0.17671873856E+02  0.64908214327E+02  0.00000000000E+00 0.  1.
         14    1    4    4    0    0  0.27021040708E+02  0.68441843119E+02 -0.10997035126E+03  0.13231742397E+03  0.00000000000E+00 0. -1.
         -5    1    5    5    0  501 -0.40936905884E+01 -0.86499106884E+02 -0.73246420705E+02  0.11351643908E+03  0.47000000000E+01 0.  1.
         11    1    6    6    0    0 -0.48924864524E+01  0.17629576463E+02 -0.26453898810E+02  0.32164377069E+02  0.00000000000E+00 0. -1.
        -12    1    6    6    0    0  0.19169888199E+02 -0.14227556211E+02  0.44936617128E+02  0.50884256192E+02  0.00000000000E+00 0.  1.
</event>
<event>
12    1  0.1345781E-002  0.1784179E+03  0.7818608E-02  0.1169343E+00
          2   -1    0    0  502    0  0.00000000000E+00  0.00000000000E+00  0.12150820770E+03  0.12150820770E+03  0.00000000000E+00 0. -1.
         -2   -1    0    0    0  501 -0.00000000000E+00 -0.00000000000E+00 -0.26971562065E+03  0.26971562065E+03  0.00000000000E+00 0.  1.
          6    2    1    2  502    0  0.24278433335E+02 -0.41508265650E+02 -0.10699166192E+03  0.20755181830E+03  0.17122547449E+03 0.  0.
         24    2    3    3    0    0 -0.37585602793E+02 -0.57559463223E+02 -0.96023281694E+02  0.14253493376E+03  0.79812075353E+02 0.  0.
         -6    2    1    2    0  501 -0.24278433335E+02  0.41508265650E+02 -0.41215751026E+02  0.18367201005E+03  0.17240733947E+03 0.  0.
        -24    2    5    5    0    0  0.24146978531E+02  0.80825674234E+02 -0.37607237106E+02  0.12101428503E+03  0.78193904566E+02 0.  0.
          5    1    3    3  502    0  0.61864036128E+02  0.16051197573E+02 -0.10968380223E+02  0.65016884532E+02  0.47000000000E+01 0. -1.
        -13    1    4    4    0    0 -0.76880540194E+01 -0.69307623532E+02 -0.47616137654E+02  0.84439027821E+02  0.00000000000E+00 0.  1.
         14    1    4    4    0    0 -0.29897548773E+02  0.11748160309E+02 -0.48407144040E+02  0.58095905944E+02  0.00000000000E+00 0. -1.
         -5    1    5    5    0  501 -0.48425411865E+02 -0.39317408584E+02 -0.36085139202E+01  0.62657725021E+02  0.47000000000E+01 0.  1.
         13    1    6    6    0    0  0.86849348740E+01 -0.60794770131E+00  0.18823903849E+02  0.20739745666E+02  0.00000000000E+00 0. -1.
        -14    1    6    6    0    0  0.15462043657E+02  0.81433621936E+02 -0.56431140954E+02  0.10027453937E+03  0.00000000000E+00 0.  1.
</event>
<event>
12    1  0.1345781E-002  0.2541415E+03  0.7818608E-02  0.1110715E+00
         -2   -1    0    0    0  501 -0.00000000000E+00  0.00000000000E+00  0.29954412136E+02  0.29954412136E+02  0.00000000000E+00 0.  1.
          2   -1    0    0  502    0  0.00000000000E+00 -0.00000000000E+00 -0.21921149371E+04  0.21921149371E+04  0.00000000000E+00 0. -1.
          6    2    1    2  502    0 -0.18577939428E+03  0.31068641302E+02 -0.12271794596E+04  0.12534115756E+04  0.17202298658E+03 0.  0.
         24    2    3    3    0    0 -0.46928769667E+02  0.14409107613E+02 -0.26264467564E+03  0.27878011934E+03  0.79537396811E+02 0.  0.
         -6    2    1    2    0  501  0.18577939428E+03 -0.31068641302E+02 -0.93498106531E+03  0.96865777360E+03  0.16920119996E+03 0.  0.
        -24    2    5    5    0    0  0.11419944456E+03 -0.86978018455E+02 -0.55384885570E+03  0.57682439210E+03  0.73288031329E+02 0.  0.
          5    1    3    3  502    0 -0.13885062462E+03  0.16659533689E+02 -0.96453478400E+03  0.97463145628E+03  0.47000000000E+01 0. -1.
        -13    1    4    4    0    0  0.77811980308E+01  0.32214408027E+02 -0.13071586167E+03  0.13485159109E+03  0.00000000000E+00 0.  1.
         14    1    4    4    0    0 -0.54709967698E+02 -0.17805300414E+02 -0.13192881398E+03  0.14392852825E+03  0.00000000000E+00 0. -1.
         -5    1    5    5    0  501  0.71579949726E+02  0.55909377153E+02 -0.38113220961E+03  0.39183338150E+03  0.47000000000E+01 0.  1.
         11    1    6    6    0    0 -0.27087216818E+01  0.24354379677E+01  0.11241880874E+00  0.36443338531E+01  0.00000000000E+00 0. -1.
        -12    1    6    6    0    0  0.11690816624E+03 -0.89413456423E+02 -0.55396127451E+03  0.57318005825E+03  0.00000000000E+00 0.  1.
</event>
<event>
12    1  0.1345781E-002  0.1979363E+03  0.7818608E-02  0.1151492E+00
         -2   -1    0    0    0  501 -0.00000000000E+00  0.00000000000E+00  0.17500080665E+02  0.17500080665E+02  0.00000000000E+00 0. -1.
          2   -1    0    0  502    0  0.00000000000E+00 -0.00000000000E+00 -0.33974637640E+04  0.33974637640E+04  0.00000000000E+00 0.  1.
          6    2    1    2  502    0  0.41528212298E+02 -0.88941400865E+02 -0.69280666313E+03  0.72052638320E+03  0.17187795439E+03 0.  0.
         24    2    3    3    0    0  0.93826180192E+02 -0.83897530464E+02 -0.49968355520E+03  0.52032862374E+03  0.72222390174E+02 0.  0.
         -6    2    1    2    0  501 -0.41528212298E+02  0.88941400865E+02 -0.26871570202E+04  0.26944374615E+04  0.17188722266E+03 0.  0.
        -24    2    5    5    0    0 -0.56881634770E+02  0.30803748005E+02 -0.97658232883E+03  0.98279977228E+03  0.89431292906E+02 0.  0.
          5    1    3    3  502    0 -0.52297967893E+02 -0.50438704015E+01 -0.19312310793E+03  0.20019775946E+03  0.47000000000E+01 0. -1.
        -11    1    4    4    0    0  0.62974602263E+02 -0.67078930181E+02 -0.22026194957E+03  0.23870632550E+03  0.00000000000E+00 0.  1.
         12    1    4    4    0    0  0.30851577929E+02 -0.16818600282E+02 -0.27942160563E+03  0.28162229825E+03  0.00000000000E+00 0. -1.
         -5    1    5    5    0  501  0.15353422471E+02  0.58137652860E+02 -0.17105746914E+04  0.17116376892E+04  0.47000000000E+01 0.  1.
         13    1    6    6    0    0 -0.34745457349E+02 -0.28105806069E+02 -0.51716265173E+03  0.51908996474E+03  0.00000000000E+00 0. -1.
        -14    1    6    6    0    0 -0.22136177420E+02  0.58909554074E+02 -0.45941967710E+03  0.46370980755E+03  0.00000000000E+00 0.  1.
</event>
<event>
12    1  0.1345781E-002  0.2092151E+03  0.7818608E-02  0.1142189E+00
         -3   -1    0    0    0  501 -0.00000000000E+00  0.00000000000E+00  0.57107249942E+03  0.57107249942E+03  0.00000000000E+00 0.  1.
          3   -1    0    0  502    0  0.00000000000E+00 -0.00000000000E+00 -0.79290663039E+02  0.79290663039E+02  0.00000000000E+00 0. -1.
          6    2    1    2  502    0 -0.10076398389E+03 -0.61654639496E+02  0.18643606536E+03  0.28018019459E+03  0.17259159873E+03 0.  0.
         24    2    3    3    0    0 -0.12062024324E+03 -0.70215082526E+01  0.11010843553E+03  0.18412267464E+03  0.84727487163E+02 0.  0.
         -6    2    1    2    0  501  0.10076398389E+03  0.61654639496E+02  0.30534577102E+03  0.37018296787E+03  0.17275622941E+03 0.  0.
        -24    2    5    5    0    0  0.37854465104E+02  0.91287248109E+02  0.25189390297E+03  0.28234851424E+03  0.80646282873E+02 0.  0.
          5    1    3    3  502    0  0.19856259354E+02 -0.54633131244E+02  0.76327629829E+02  0.96057519957E+02  0.47000000000E+01 0. -1.
        -13    1    4    4    0    0 -0.55213690387E+02 -0.44875095360E+02  0.63281031685E+02  0.95219823361E+02  0.00000000000E+00 0.  1.
         14    1    4    4    0    0 -0.65406552857E+02  0.37853587108E+02  0.46827403849E+02  0.88902851275E+02  0.00000000000E+00 0. -1.
         -5    1    5    5    0  501  0.62909518786E+02 -0.29632608613E+02  0.53451868048E+02  0.87834453633E+02  0.47000000000E+01 0.  1.
         13    1    6    6    0    0  0.50714124013E+02  0.78472194635E+02  0.13576333702E+03  0.16480743728E+03  0.00000000000E+00 0. -1.
        -14    1    6    6    0    0 -0.12859658909E+02  0.12815053475E+02  0.11613056595E+03  0.11754107695E+03  0.00000000000E+00 0.  1.
</event>
<event>
12    1  0.1345781E-002  0.1954114E+03  0.7818608E-02  0.1153669E+00
          2   -1    0    0  502    0  0.00000000000E+00  0.00000000000E+00  0.24174861422E+03  0.24174861422E+03  0.00000000000E+00 0. -1.
         -2   -1    0    0    0  501 -0.00000000000E+00 -0.00000000000E+00 -0.17631424461E+03  0.17631424461E+03  0.00000000000E+00 0.  1.
          6    2    1    2  502    0  0.47549826096E+02 -0.81298711318E+02  0.10014422546E+03  0.21944077523E+03  0.17104070135E+03 0.  0.
         24    2    3    3    0    0 -0.14893179235E+02 -0.20130662941E+02 -0.35424220883E+01  0.83743796866E+02  0.79833729596E+02 0.  0.
         -6    2    1    2    0  501 -0.47549826096E+02  0.81298711318E+02 -0.34709855850E+02  0.19862208360E+03  0.17139279908E+03 0.  0.
        -24    2    5    5    0    0 -0.74320306514E+02  0.10331860070E+03  0.16494191525E+01  0.14816793581E+03  0.75847052724E+02 0.  0.
          5    1    3    3  502    0  0.62443005331E+02 -0.61168048376E+02  0.10368664755E+03  0.13569697836E+03  0.47000000000E+01 0. -1.
        -13    1    4    4    0    0 -0.21598287824E+02 -0.36151507758E+02  0.25987723021E+02  0.49485142194E+02  0.00000000000E+00 0.  1.
         14    1    4    4    0    0  0.67051085891E+01  0.16020844817E+02 -0.29530145109E+02  0.34258654673E+02  0.00000000000E+00 0. -1.
         -5    1    5    5    0  501  0.26770480418E+02 -0.22019889385E+02 -0.36359275003E+02  0.50454147789E+02  0.47000000000E+01 0.  1.
         11    1    6    6    0    0 -0.41654348302E+02  0.20546575282E+01  0.22210595916E+01  0.41764092899E+02  0.00000000000E+00 0. -1.
        -12    1    6    6    0    0 -0.32665958213E+02  0.10126394317E+03 -0.57164043911E+00  0.10640384291E+03  0.00000000000E+00 0.  1.
</event>
<event>
12    1  0.1345781E-002  0.1785235E+03  0.7818608E-02  0.1169240E+00
         -1   -1    0    0    0  501 -0.00000000000E+00  0.00000000000E+00  0.13504385670E+03  0.13504385670E+03  0.00000000000E+00 0. -1.
          1   -1    0    0  502    0  0.00000000000E+00 -0.00000000000E+00 -0.82060846388E+03  0.82060846388E+03  0.00000000000E+00 0.  1.
          6    2    1    2  502    0  0.49990761202E+02 -0.73770313212E+01  0.60577101242E+02  0.18842794522E+03  0.17111986602E+03 0.  0.
         24    2    3    3    0    0 -0.13086982627E+02 -0.26725699094E+02  0.84306907687E+02  0.11815443367E+03  0.77248193546E+02 0.  0.
         -6    2    1    2    0  501 -0.49990761202E+02  0.73770313212E+01 -0.74614170843E+03  0.76722437536E+03  0.17132511869E+03 0.  0.
        -24    2    5    5    0    0 -0.96978496983E+02  0.26022604735E+02 -0.54740883843E+03  0.56210892411E+03  0.78917687140E+02 0.  0.
          5    1    3    3  502    0  0.63077743829E+02  0.19348667773E+02 -0.23729806446E+02  0.70273511547E+02  0.47000000000E+01 0. -1.
        -13    1    4    4    0    0 -0.11681269688E+02  0.23360578832E+02  0.88509226575E+01  0.27577301115E+02  0.00000000000E+00 0.  1.
         14    1    4    4    0    0 -0.14057129394E+01 -0.50086277926E+02  0.75455985030E+02  0.90577132557E+02  0.00000000000E+00 0. -1.
         -5    1    5    5    0  501  0.46987735781E+02 -0.18645573414E+02 -0.19873287000E+03  0.20511545125E+03  0.47000000000E+01 0.  1.
         11    1    6    6    0    0 -0.21435995668E+02  0.28396997019E+02 -0.67673596593E+02  0.76456569540E+02  0.00000000000E+00 0. -1.
        -12    1    6    6    0    0 -0.75542501316E+02 -0.23743922840E+01 -0.47973524183E+03  0.48565235457E+03  0.00000000000E+00 0.  1.
</event>
<event>
12    1  0.1345781E-002  0.2615823E+03  0.7818608E-02  0.1106196E+00
          2   -1    0    0  502    0  0.00000000000E+00  0.00000000000E+00  0.10781018189E+04  0.10781018189E+04  0.00000000000E+00 0. -1.
         -2   -1    0    0    0  501 -0.00000000000E+00 -0.00000000000E+00 -0.64733053632E+02  0.64733053632E+02  0.00000000000E+00 0.  1.
          6    2    1    2  502    0  0.18511694678E+03 -0.74418894076E+02  0.58864730925E+03  0.64460840574E+03  0.17090314884E+03 0.  0.
         24    2    3    3    0    0  0.20785541128E+03 -0.53567628505E+02  0.54204163255E+03  0.58851926112E+03  0.80451392004E+02 0.  0.
         -6    2    1    2    0  501 -0.18511694678E+03  0.74418894076E+02  0.42472145603E+03  0.49822646680E+03  0.16743608102E+03 0.  0.
        -24    2    5    5    0    0 -0.18897096191E+03  0.87570670930E+02  0.42856016666E+03  0.48323819250E+03  0.80477868977E+02 0.  0.
          5    1    3    3  502    0 -0.22738464494E+02 -0.20851265571E+02  0.46605676701E+02  0.56089144620E+02  0.47000000000E+01 0. -1.
        -13    1    4    4    0    0  0.12339185660E+03  0.44005766807E+01  0.34518438671E+03  0.36660220427E+03  0.00000000000E+00 0.  1.
         14    1    4    4    0    0  0.84463554677E+02 -0.57968205186E+02  0.19685724584E+03  0.22191705685E+03  0.00000000000E+00 0. -1.
         -5    1    5    5    0  501  0.38540151244E+01 -0.13151776855E+02 -0.38387106337E+01  0.14988274295E+02  0.47000000000E+01 0.  1.
         13    1    6    6    0    0 -0.98095415612E+02  0.31626738926E+02  0.29372226787E+03  0.31128079257E+03  0.00000000000E+00 0. -1.
        -14    1    6    6    0    0 -0.90875546295E+02  0.55943932004E+02  0.13483789879E+03  0.17195739994E+03  0.00000000000E+00 0.  1.
</event>
<event>
12    1  0.1345781E-002  0.2337132E+03  0.7818608E-02  0.1124053E+00
         -2   -1    0    0    0  501 -0.00000000000E+00  0.00000000000E+00  0.49015455190E+02  0.49015455190E+02  0.00000000000E+00 0. -1.
          2   -1    0    0  502    0  0.00000000000E+00 -0.00000000000E+00 -0.12884163960E+04  0.12884163960E+04  0.00000000000E+00 0.  1.
          6    2    1    2  502    0 -0.86315732339E+02 -0.13356788136E+03 -0.86448824629E+03  0.89541163630E+03  0.17067889694E+03 0.  0.
         24    2    3    3    0    0 -0.80869236885E+02 -0.10896016037E+03 -0.85287888000E+03  0.86726786912E+03  0.79617980596E+02 0.  0.
         -6    2    1    2    0  501  0.86315732339E+02  0.13356788136E+03 -0.37491269449E+03  0.44202021486E+03  0.17184748260E+03 0.  0.
        -24    2    5    5    0    0  0.89943247027E+02  0.15178514663E+03 -0.25145306120E+03  0.31708263577E+03  0.78639923049E+02 0.  0.
          5    1    3    3  502    0 -0.54464954549E+01 -0.24607720992E+02 -0.11609366286E+02  0.28143767174E+02  0.47000000000E+01 0. -1.
        -13    1    4    4    0    0 -0.16635634366E+02 -0.86958204570E+02 -0.43633405163E+03  0.44522564873E+03  0.00000000000E+00 0.  1.
         14    1    4    4    0    0 -0.64233602519E+02 -0.22001955802E+02 -0.41654482837E+03  0.42204222039E+03  0.00000000000E+00 0. -1.
         -5    1    5    5    0  501 -0.36275146879E+01 -0.18217265270E+02 -0.12345963329E+03  0.12493757909E+03  0.47000000000E+01 0.  1.
         13    1    6    6    0    0  0.33524931697E+02  0.78783965169E+02 -0.59975686031E+02  0.10453667839E+03  0.00000000000E+00 0. -1.
        -14    1    6    6    0    0  0.56418315331E+02  0.73001181465E+02 -0.19147737517E+03  0.21254595739E+03  0.00000000000E+00 0.  1.
</event>
<event>
12    1  0.1345781E-002  0.1899986E+03  0.7818608E-02  0.1158463E+00
          2   -1    0    0  502    0  0.00000000000E+00  0.00000000000E+00  0.78390748942E+03  0.78390748942E+03  0.00000000000E+00 0. -1.
         -2   -1    0    0    0  501 -0.00000000000E+00 -0.00000000000E+00 -0.60493812952E+02  0.60493812952E+02  0.00000000000E+00 0.  1.
          6    2    1    2  502    0 -0.46328777514E+02 -0.66118188184E+02  0.56909638421E+03  0.60021610448E+03  0.17283144136E+03 0.  0.
         24    2    3    3    0    0 -0.81801651627E+01 -0.29564966082E+01  0.46800708418E+03  0.47497293107E+03  0.80579143856E+02 0.  0.
         -6    2    1    2    0  501  0.46328777514E+02  0.66118188184E+02  0.15431729226E+03  0.24418519790E+03  0.17115669355E+03 0.  0.
        -24    2    5    5    0    0  0.19782659277E+02  0.62110327928E+02  0.17972986592E+03  0.20692062709E+03  0.79147171571E+02 0.  0.
          5    1    3    3  502    0 -0.38148612352E+02 -0.63161691576E+02  0.10108930002E+03  0.12524317341E+03  0.47000000000E+01 0. -1.
        -11    1    4    4    0    0 -0.12234273484E+02 -0.37013241591E+02  0.14495432033E+03  0.15010467176E+03  0.00000000000E+00 0.  1.
         12    1    4    4    0    0  0.40541083214E+01  0.34056744983E+02  0.32305276385E+03  0.32486825931E+03  0.00000000000E+00 0. -1.
         -5    1    5    5    0  501  0.26546118238E+02  0.40078602558E+01 -0.25412573660E+02  0.37264570806E+02  0.47000000000E+01 0.  1.
         13    1    6    6    0    0  0.38770252739E+02  0.66283792057E+02  0.16664539801E+03  0.18348668144E+03  0.00000000000E+00 0. -1.
        -14    1    6    6    0    0 -0.18987593462E+02 -0.41734641290E+01  0.13084467912E+02  0.23433945653E+02  0.00000000000E+00 0.  1.
</event>
<event>
12    1  0.1345781E-002  0.1936705E+03  0.7818608E-02  0.1155192E+00
         -1   -1    0    0    0  501 -0.00000000000E+00  0.00000000000E+00  0.37557278699E+02  0.37557278699E+02  0.00000000000E+00 0. -1.
          1   -1    0    0  502    0  0.00000000000E+00 -0.00000000000E+00 -0.10212808579E+04  0.10212808579E+04  0.00000000000E+00 0.  1.
          6    2    1    2  502    0 -0.88873500409E+02 -0.10540541935E+02 -0.41071139043E+03  0.45366217321E+03  0.17063387436E+03 0.  0.
         24    2    3    3    0    0 -0.37045915927E+02 -0.46408233009E+02 -0.11726690572E+03  0.15348831463E+03  0.79252833203E+02 0.  0.
         -6    2    1    2    0  501  0.88873500409E+02  0.10540541935E+02 -0.57301218873E+03  0.60517596334E+03  0.17287387332E+03 0.  0.
        -24    2    5    5    0    0  0.83727889424E+02 -0.53221708293E+02 -0.38159367653E+03  0.40329669576E+03  0.84803190642E+02 0.  0.
          5    1    3    3  502    0 -0.51827584482E+02  0.35867691074E+02 -0.29344448470E+03  0.30017385859E+03  0.47000000000E+01 0. -1.
        -13    1    4    4    0    0 -0.35829996472E+02  0.10199106845E+02 -0.71734961494E+02  0.80831399395E+02  0.00000000000E+00 0.  1.
         14    1    4    4    0    0 -0.12159194544E+01 -0.56607339854E+02 -0.45531944230E+02  0.72656915230E+02  0.00000000000E+00 0. -1.
         -5    1    5    5    0  501  0.51456109851E+01  0.63762250229E+02 -0.19141851220E+03  0.20187926758E+03  0.47000000000E+01 0.  1.
         11    1    6    6    0    0  0.84024216281E+01 -0.12081662926E+02 -0.29006878511E+01  0.14999375263E+02  0.00000000000E+00 0. -1.
        -12    1    6    6    0    0  0.75325467796E+02 -0.41140045368E+02 -0.37869298868E+03  0.38829732050E+03  0.00000000000E+00 0.  1.
</event>
<event>
12    1  0.1345781E-002  0.3040872E+03  0.7818608E-02  0.1083215E+00
          4   -1    0    0  502    0  0.00000000000E+00  0.00000000000E+00  0.13489390992E+03  0.13489390992E+03  0.00000000000E+00 0.  1.
         -4   -1    0    0    0  501 -0.00000000000E+00 -0.00000000000E+00 -0.68864645376E+03  0.68864645376E+03  0.00000000000E+00 0. -1.
          6    2    1    2  502    0 -0.24071397787E+03 -0.92892762636E+02 -0.25341393945E+03  0.39909686769E+03  0.16878210984E+03 0.  0.
         24    2    3    3    0    0 -0.50712861820E+02 -0.67063834468E+02 -0.11047635823E+03  0.15988817271E+03  0.79308573288E+02 0.  0.
         -6    2    1    2    0  501  0.24071397787E+03  0.92892762636E+02 -0.30033860440E+03  0.42444349599E+03  0.15289447177E+03 0.  0.
        -24    2    5    5    0    0  0.83296510349E+02 -0.69317489539E+01 -0.12750543260E+03  0.17020229659E+03  0.75662597381E+02 0.  0.
          5    1    3    3  502    0 -0.19000111605E+03 -0.25828928167E+02 -0.14293758122E+03  0.23920869498E+03  0.47000000000E+01 0. -1.
        -13    1    4    4    0    0 -0.27871393281E+02 -0.43348610675E+01  0.28608418136E+01  0.28351190447E+02  0.00000000000E+00 0.  1.
         14    1    4    4    0    0 -0.22841468540E+02 -0.62728973401E+02 -0.11333720004E+03  0.13153698226E+03  0.00000000000E+00 0. -1.
         -5    1    5    5    0  501  0.15741746753E+03  0.99824511589E+02 -0.17283317180E+03  0.25424119940E+03  0.47000000000E+01 0.  1.
         13    1    6    6    0    0  0.91467927077E+02  0.86315191586E+01 -0.89184088808E+02  0.12804173735E+03  0.00000000000E+00 0. -1.
        -14    1    6    6    0    0 -0.81714167277E+01 -0.15563268113E+02 -0.38321343788E+02  0.42160559240E+02  0.00000000000E+00 0.  1.
</event>
<event>
12    1  0.1345781E-002  0.1811149E+03  0.7818608E-02  0.1166728E+00
          2   -1    0    0  502    0  0.00000000000E+00  0.00000000000E+00  0.98126180112E+03  0.98126180112E+03  0.00000000000E+00 0.  1.
         -2   -1    0    0    0  501 -0.00000000000E+00 -0.00000000000E+00 -0.36488661095E+02  0.36488661095E+02  0.00000000000E+00 0. -1.
          6    2    1    2  502    0  0.41635632842E+02  0.42722077998E+02  0.32382631963E+03  0.37078708582E+03  0.17047250763E+03 0.  0.
         24    2    3    3    0    0  0.41366424395E+02  0.76565529808E+02  0.31240262820E+03  0.33475872992E+03  0.83033389221E+02 0.  0.
         -6    2    1    2    0  501 -0.41635632842E+02 -0.42722077998E+02  0.62094682039E+03  0.64696337639E+03  0.17154578036E+03 0.  0.
        -24    2    5    5    0    0  0.63864049239E+01 -0.80203743820E+02  0.31738943135E+03  0.33731814418E+03  0.81080531400E+02 0.  0.
          5    1    3    3  502    0  0.26920844714E+00 -0.33843451810E+02  0.11423691427E+02  0.36028355908E+02  0.47000000000E+01 0. -1.
        -13    1    4    4    0    0  0.49726248644E+02  0.50599331424E+02  0.11248244652E+03  0.13298606288E+03  0.00000000000E+00 0.  1.
         14    1    4    4    0    0 -0.83598242487E+01  0.25966198384E+02  0.19992018168E+03  0.20177266703E+03  0.00000000000E+00 0. -1.
         -5    1    5    5    0  501 -0.48022037766E+02  0.37481665822E+02  0.30355738904E+03  0.30964523221E+03  0.47000000000E+01 0.  1.
         13    1    6    6    0    0 -0.26151439215E+02  0.99324774384E+00  0.59617432072E+02  0.65108544147E+02  0.00000000000E+00 0. -1.
        -14    1    6    6    0    0  0.32537844139E+02 -0.81196991564E+02  0.25777199928E+03  0.27220960004E+03  0.00000000000E+00 0.  1.
</event>
<event>
12    1  0.1345781E-002  0.1872579E+03  0.7818608E-02  0.1160958E+00
          2   -1    0    0  502    0  0.00000000000E+00  0.00000000000E+00  0.15564227167E+03  0.15564227167E+03  0.00000000000E+00 0.  1.
         -2   -1    0    0    0  501 -0.00000000000E+00 -0.00000000000E+00 -0.25189309094E+03  0.25189309094E+03  0.00000000000E+00 0. -1.
          6    2    1    2  502    0 -0.46929331035E+02 -0.58482413568E+02 -0.11421860194E+03  0.21890564812E+03  0.17102993581E+03 0.  0.
         24    2    3    3    0    0 -0.53060286969E+02  0.42709887123E+00 -0.69092633643E+01  0.96246349974E+02  0.80000284351E+02 0.  0.
         -6    2    1    2    0  501  0.46929331035E+02  0.58482413568E+02  0.17967782667E+02  0.18862971449E+03  0.17215043760E+03 0.  0.
        -24    2    5    5    0    0 -0.22425056874E+02 -0.31409321519E+01  0.35356690604E+02  0.94120815548E+02  0.84237068553E+02 0.  0.
          5    1    3    3  502    0  0.61309559340E+01 -0.58909512439E+02 -0.10730933858E+03  0.12265929815E+03  0.47000000000E+01 0. -1.
        -13    1    4    4    0    0 -0.19186052319E+02 -0.37811349166E+02 -0.14044054616E+02  0.44665850483E+02  0.00000000000E+00 0.  1.
         14    1    4    4    0    0 -0.33874234650E+02  0.38238448037E+02  0.71347912521E+01  0.51580499490E+02  0.00000000000E+00 0. -1.
         -5    1    5    5    0  501  0.69354387909E+02  0.61623345720E+02 -0.17388907936E+02  0.94508898942E+02  0.47000000000E+01 0.  1.
         13    1    6    6    0    0 -0.10565390057E+02  0.13232019932E+02 -0.25153959400E+02  0.30322194710E+02  0.00000000000E+00 0. -1.
        -14    1    6    6    0    0 -0.11859666817E+02 -0.16372952083E+02  0.60510650004E+02  0.63798620838E+02  0.00000000000E+00 0.  1.
</event>
<event>
12    1  0.1345781E-002  0.4139343E+03  0.7818608E-02  0.1039059E+00
         -4   -1    0    0    0  501 -0.00000000000E+00  0.00000000000E+00  0.53352701896E+03  0.53352701896E+03  0.00000000000E+00 0.  1.
          4   -1    0    0  502    0  0.00000000000E+00 -0.00000000000E+00 -0.32153107698E+03  0.32153107698E+03  0.00000000000E+00 0. -1.
          6    2    1    2  502    0  0.25846147071E+03  0.27396387904E+03  0.12070977771E+03  0.43107236848E+03  0.17144677766E+03 0.  0.
         24    2    3    3    0    0  0.10866675455E+03  0.90824547882E+02 -0.62750952787E+01  0.16251004876E+03  0.79451728012E+02 0.  0.
         -6    2    1    2    0  501 -0.25846147071E+03 -0.27396387904E+03  0.91286164270E+02  0.42398572746E+03  0.17196567809E+03 0.  0.
        -24    2    5    5    0    0 -0.67154389950E+02 -0.41165428941E+02  0.39170742380E+02  0.11815632286E+03  0.78881334570E+02 0.  0.
          5    1    3    3  502    0  0.14979471616E+03  0.18313933116E+03  0.12698487299E+03  0.26856231973E+03  0.47000000000E+01 0. -1.
        -11    1    4    4    0    0  0.84019240273E+02  0.70077621065E+02  0.30538378559E+02  0.11359004479E+03  0.00000000000E+00 0.  1.
         12    1    4    4    0    0  0.24647514279E+02  0.20746926817E+02 -0.36813473837E+02  0.48920003970E+02  0.00000000000E+00 0. -1.
         -5    1    5    5    0  501 -0.19130708076E+03 -0.23279845010E+03  0.52115421890E+02  0.30582940460E+03  0.47000000000E+01 0.  1.
         11    1    6    6    0    0 -0.60934573822E+01 -0.49464735564E+02  0.18430091624E+02  0.53137167449E+02  0.00000000000E+00 0. -1.
        -12    1    6    6    0    0 -0.61060932568E+02  0.82993066220E+01  0.20740650756E+02  0.65019155410E+02  0.00000000000E+00 0.  1.
</event>
<event>
12    1  0.1345781E-002  0.3014831E+03  0.7818608E-02  0.1084502E+00
         -2   -1    0    0    0  501 -0.00000000000E+00  0.00000000000E+00  0.48757236214E+02  0.48757236214E+02  0.00000000000E+00 0.  1.
          2   -1    0    0  502    0  0.00000000000E+00 -0.00000000000E+00 -0.20947113458E+04  0.20947113458E+04  0.00000000000E+00 0. -1.
          6    2    1    2  502    0  0.41159562604E+02 -0.24459113608E+03 -0.13781980109E+04  0.14107647640E+04  0.17119733803E+03 0.  0.
         24    2    3    3    0    0  0.46567151602E+02 -0.25598680062E+03 -0.11345613821E+04  0.11667565672E+04  0.79960088011E+02 0.  0.
         -6    2    1    2    0  501 -0.41159562604E+02  0.24459113608E+03 -0.66775609867E+03  0.73270381804E+03  0.17157431105E+03 0.  0.
        -24    2    5    5    0    0  0.26108086838E+02  0.14665718205E+03 -0.49287446523E+03  0.52122882726E+03  0.81020310033E+02 0.  0.
          5    1    3    3  502    0 -0.54075889986E+01  0.11395664539E+02 -0.24363662885E+03  0.24400819680E+03  0.47000000000E+01 0. -1.
        -13    1    4    4    0    0  0.60556614825E+02 -0.11317047548E+03 -0.50648974722E+03  0.52250026235E+03  0.00000000000E+00 0.  1.
         14    1    4    4    0    0 -0.13989463223E+02 -0.14281632514E+03 -0.62807163487E+03  0.64425630484E+03  0.00000000000E+00 0. -1.
         -5    1    5    5    0  501 -0.67267649441E+02  0.97933954024E+02 -0.17488163344E+03  0.21147499078E+03  0.47000000000E+01 0.  1.
         11    1    6    6    0    0 -0.14840358075E+02  0.95396078564E+02 -0.36439190982E+03  0.37696433780E+03  0.00000000000E+00 0. -1.
        -12    1    6    6    0    0  0.40948444913E+02  0.51261103489E+02 -0.12848255542E+03  0.14426448946E+03  0.00000000000E+00 0.  1.
</event>
<event>
12    1  0.1345781E-002  0.1893672E+03  0.7818608E-02  0.1159033E+00
         -1   -1    0    0    0  501 -0.00000000000E+00  0.00000000000E+00  0.58827353504E+03  0.58827353504E+03  0.00000000000E+00 0.  1.
          1   -1    0    0  502    0  0.00000000000E+00 -0.00000000000E+00 -0.61153107341E+02  0.61153107341E+02  0.00000000000E+00 0. -1.
          6    2    1    2  502    0  0.67616613103E+02 -0.40240817858E+02  0.24544158365E+03  0.31010147660E+03  0.17242396880E+03 0.  0.
         24    2    3    3    0    0  0.77152147581E+02 -0.56369018615E+02  0.89962852267E+02  0.15342738433E+03  0.79477841803E+02 0.  0.
         -6    2    1    2    0  501 -0.67616613103E+02  0.40240817858E+02  0.28167884405E+03  0.33932516578E+03  0.17206762379E+03 0.  0.
        -24    2    5    5    0    0  0.24337059915E+02  0.46210234315E+02  0.17604004873E+03  0.19906556008E+03  0.76872102955E+02 0.  0.
          5    1    3    3  502    0 -0.95355344776E+01  0.16128200758E+02  0.15547873138E+03  0.15667409227E+03  0.47000000000E+01 0. -1.
        -11    1    4    4    0    0  0.71840686145E+02 -0.15276280237E+02  0.83974364847E+02  0.11156228249E+03  0.00000000000E+00 0.  1.
         12    1    4    4    0    0  0.53114614357E+01 -0.41092738378E+02  0.59884874196E+01  0.41865101834E+02  0.00000000000E+00 0. -1.
         -5    1    5    5    0  501 -0.91953673018E+02 -0.59694164571E+01  0.10563879532E+03  0.14025960570E+03  0.47000000000E+01 0.  1.
         11    1    6    6    0    0  0.26673336489E+01 -0.10058100943E+02 -0.24293155752E+01  0.10685580824E+02  0.00000000000E+00 0. -1.
        -12    1    6    6    0    0  0.21669726266E+02  0.56268335258E+02  0.17846936431E+03  0.18837997926E+03  0.00000000000E+00 0.  1.
</event>
<event>
12    1  0.1345781E-002  0.1767877E+03  0.7818608E-02  0.1170949E+00
          1   -1    0    0  502    0  0.00000000000E+00  0.00000000000E+00  0.34264716630E+03  0.34264716630E+03  0.00000000000E+00 0.  1.
         -1   -1    0    0    0  501 -0.00000000000E+00 -0.00000000000E+00 -0.10980367558E+03  0.10980367558E+03  0.00000000000E+00 0. -1.
          6    2    1    2  502    0  0.27180456974E+02 -0.83198386402E+01  0.21077505618E+03  0.27666477251E+03  0.17694427113E+03 0.  0.
         24    2    3    3    0    0  0.84244380321E+02  0.23915079506E+02  0.14472145553E+03  0.18349530619E+03  0.71113859828E+02 0.  0.
         -6    2    1    2    0  501 -0.27180456974E+02  0.83198386402E+01  0.22068434533E+02  0.17578606937E+03  0.17206315534E+03 0.  0.
        -24    2    5    5    0    0  0.39318421940E+02 -0.27484848292E+02 -0.10088961889E+02  0.93565240818E+02  0.79695118720E+02 0.  0.
          5    1    3    3  502    0 -0.57063923348E+02 -0.32234918146E+02  0.66053600655E+02  0.93169466324E+02  0.47000000000E+01 0. -1.
        -11    1    4    4    0    0  0.62594061724E+02  0.32377515932E+02  0.51146493065E+02  0.87076310521E+02  0.00000000000E+00 0.  1.
         12    1    4    4    0    0  0.21650318597E+02 -0.84624364266E+01  0.93574962465E+02  0.96418995669E+02  0.00000000000E+00 0. -1.
         -5    1    5    5    0  501 -0.66498878914E+02  0.35804686932E+02  0.32157396422E+02  0.82220828552E+02  0.47000000000E+01 0.  1.
         11    1    6    6    0    0 -0.58771291755E+00  0.26070276330E+02 -0.52653972816E+01  0.26603178812E+02  0.00000000000E+00 0. -1.
        -12    1    6    6    0    0  0.39906134858E+02 -0.53555124622E+02 -0.48235646074E+01  0.66962062006E+02  0.00000000000E+00 0.  1.
</event>
<event>
12    1  0.1345781E-002  0.2213478E+03  0.7818608E-02  0.1132882E+00
          2   -1    0    0  502    0  0.00000000000E+00  0.00000000000E+00  0.23704101356E+03  0.23704101356E+03  0.00000000000E+00 0.  1.
         -2   -1    0    0    0  501 -0.00000000000E+00 -0.00000000000E+00 -0.22153945985E+03  0.22153945985E+03  0.00000000000E+00 0. -1.
          6    2    1    2  502    0 -0.13536201713E+03  0.37247502729E+02  0.67096969193E+02  0.23103116984E+03  0.17077220507E+03 0.  0.
         24    2    3    3    0    0 -0.76780600424E+02  0.67105212009E+02  0.93843915020E+02  0.15989219109E+03  0.79752506578E+02 0.  0.
         -6    2    1    2    0  501  0.13536201713E+03 -0.37247502729E+02 -0.51595415478E+02  0.22754930357E+03  0.17148278781E+03 0.  0.
        -24    2    5    5    0    0  0.28925921158E+02 -0.42966737651E+02 -0.71800093491E+02  0.11895984189E+03  0.79456535903E+02 0.  0.
          5    1    3    3  502    0 -0.58581416705E+02 -0.29857709280E+02 -0.26746945827E+02  0.71138978751E+02  0.47000000000E+01 0. -1.
        -13    1    4    4    0    0 -0.40381142935E+02 -0.29916636507E+01  0.63434447739E+02  0.75256334724E+02  0.00000000000E+00 0.  1.
         14    1    4    4    0    0 -0.36399457489E+02  0.70096875660E+02  0.30409467282E+02  0.84635856368E+02  0.00000000000E+00 0. -1.
         -5    1    5    5    0  501  0.10643609597E+03  0.57192349218E+01  0.20204678014E+02  0.10858946168E+03  0.47000000000E+01 0.  1.
         11    1    6    6    0    0 -0.12127525060E+01 -0.29767957283E+02 -0.79730978369E+02  0.85115397909E+02  0.00000000000E+00 0. -1.
        -12    1    6    6    0    0  0.30138673664E+02 -0.13198780368E+02  0.79308848776E+01  0.33844443981E+02  0.00000000000E+00 0.  1.
</event>
<event>
12    1  0.1345781E-002  0.2032848E+03  0.7818608E-02  0.1146997E+00
         -2   -1    0    0    0  501 -0.00000000000E+00  0.00000000000E+00  0.76469687563E+02  0.76469687563E+02  0.00000000000E+00 0. -1.
          2   -1    0    0  502    0  0.00000000000E+00 -0.00000000000E+00 -0.56515643015E+03  0.56515643015E+03  0.00000000000E+00 0.  1.
          6    2    1    2  502    0  0.16044457710E+02 -0.10706367574E+03 -0.31082865846E+03  0.37109539083E+03  0.17139801307E+03 0.  0.
         24    2    3    3    0    0 -0.41443046379E+02 -0.10971875161E+03 -0.25148457035E+03  0.28829639719E+03  0.78195862791E+02 0.  0.
         -6    2    1    2    0  501 -0.16044457710E+02  0.10706367574E+03 -0.17785808413E+03  0.27053072689E+03  0.17272324920E+03 0.  0.
        -24    2    5    5    0    0  0.36642419116E+02  0.11922127894E+03 -0.12020056543E+03  0.19134617178E+03  0.81294534227E+02 0.  0.
          5    1    3    3  502    0  0.57487504089E+02  0.26550758641E+01 -0.59344088108E+02  0.82798993639E+02  0.47000000000E+01 0. -1.
        -13    1    4    4    0    0 -0.56859617801E+01 -0.64218762178E+02 -0.20238182388E+03  0.21240240633E+03  0.00000000000E+00 0.  1.
         14    1    4    4    0    0 -0.35757084598E+02 -0.45499989430E+02 -0.49102746471E+02  0.75893990857E+02  0.00000000000E+00 0. -1.
         -5    1    5    5    0  501 -0.52686876826E+02 -0.12157603195E+02 -0.57657518701E+02  0.79184555109E+02  0.47000000000E+01 0.  1.
         13    1    6    6    0    0 -0.15012689397E+01  0.96214932932E+02 -0.10903337991E+03  0.14542298670E+03  0.00000000000E+00 0. -1.
        -14    1    6    6    0    0  0.38143688055E+02  0.23006346007E+02 -0.11167185517E+02  0.45923185075E+02  0.00000000000E+00 0.  1.
</event>
<event>
12    1  0.1345781E-002  0.3072261E+03  0.7818608E-02  0.1081683E+00
          2   -1    0    0  502    0  0.00000000000E+00  0.00000000000E+00  0.69918607478E+03  0.69918607478E+03  0.00000000000E+00 0. -1.
         -2   -1    0    0    0  501 -0.00000000000E+00 -0.00000000000E+00 -0.14205865147E+03  0.14205865147E+03  0.00000000000E+00 0.  1.
          6    2    1    2  502    0 -0.13990736076E+03  0.21138927674E+03  0.37303248918E+03  0.48377364207E+03  0.17499772244E+03 0.  0.
         24    2    3    3    0    0 -0.30669075848E+02  0.43336797267E+02  0.63090180070E+02  0.11463821472E+03  0.79642195110E+02 0.  0.
         -6    2    1    2    0  501  0.13990736076E+03 -0.21138927674E+03  0.18409493413E+03  0.35747108418E+03  0.17214858506E+03 0.  0.
        -24    2    5    5    0    0  0.49388278964E+02 -0.10815608015E+03  0.22864788680E+02  0.14565029472E+03  0.80958446241E+02 0.  0.
          5    1    3    3  502    0 -0.10923828491E+03  0.16805247947E+03  0.30994230911E+03  0.36913542735E+03  0.47000000000E+01 0. -1.
        -11    1    4    4    0    0 -0.56584814405E+02  0.32573849682E+02  0.55173461933E+02  0.85481037699E+02  0.00000000000E+00 0.  1.
         12    1    4    4    0    0  0.25915738557E+02  0.10762947585E+02  0.79167181365E+01  0.29157177019E+02  0.00000000000E+00 0. -1.
         -5    1    5    5    0  501  0.90519081791E+02 -0.10323319659E+03  0.16123014545E+03  0.21182078946E+03  0.47000000000E+01 0.  1.
         13    1    6    6    0    0  0.26876427314E+02 -0.43576550409E+02  0.50475790492E+02  0.71896199597E+02  0.00000000000E+00 0. -1.
        -14    1    6    6    0    0  0.22511851650E+02 -0.64579529739E+02 -0.27611001811E+02  0.73754095121E+02  0.00000000000E+00 0.  1.
</event>
<event>
12    1  0.1345781E-002  0.3004747E+03  0.7818608E-02  0.1085004E+00
         -1   -1    0    0    0  501 -0.00000000000E+00  0.00000000000E+00  0.11440185221E+03  0.11440185221E+03  0.00000000000E+00 0.  1.
          1   -1    0    0  502    0  0.00000000000E+00 -0.00000000000E+00 -0.91667769494E+03  0.91667769494E+03  0.00000000000E+00 0. -1.
          6    2    1    2  502    0 -0.67393329854E+02  0.23676046538E+03 -0.59275387334E+03  0.66431052335E+03  0.17132991037E+03 0.  0.
         24    2    3    3    0    0 -0.47185545186E+02  0.10733768324E+03 -0.16942020269E+03  0.22114904284E+03  0.80348242977E+02 0.  0.
         -6    2    1    2    0  501  0.67393329854E+02 -0.23676046538E+03 -0.20952196938E+03  0.36676902380E+03  0.17327054651E+03 0.  0.
        -24    2    5    5    0    0  0.13577387313E+02 -0.95995956657E+02 -0.24656737554E+02  0.12821494916E+03  0.80196940969E+02 0.  0.
          5    1    3    3  502    0 -0.20207784668E+02  0.12942278214E+03 -0.42333367065E+03  0.44316148051E+03  0.47000000000E+01 0. -1.
        -11    1    4    4    0    0  0.29662536493E+01  0.37692966307E+02 -0.84696173220E+01  0.38746519680E+02  0.00000000000E+00 0.  1.
         12    1    4    4    0    0 -0.50151798836E+02  0.69644716937E+02 -0.16095058537E+03  0.18240252316E+03  0.00000000000E+00 0. -1.
         -5    1    5    5    0  501  0.53815942541E+02 -0.14076450873E+03 -0.18486523183E+03  0.23855407464E+03  0.47000000000E+01 0.  1.
         11    1    6    6    0    0  0.28399400013E+02 -0.68244888826E+02 -0.48785906539E+02  0.88566107789E+02  0.00000000000E+00 0. -1.
        -12    1    6    6    0    0 -0.14822012700E+02 -0.27751067831E+02  0.24129168985E+02  0.39648841372E+02  0.00000000000E+00 0.  1.
</event>
<event>
12    1  0.1345781E-002  0.2008117E+03  0.7818608E-02  0.1149056E+00
          1   -1    0    0  502    0  0.00000000000E+00  0.00000000000E+00  0.21731049596E+03  0.21731049596E+03  0.00000000000E+00 0. -1.
         -1   -1    0    0    0  501 -0.00000000000E+00 -0.00000000000E+00 -0.37769589606E+03  0.37769589606E+03  0.00000000000E+00 0.  1.
          6    2    1    2  502    0 -0.10371639011E+03 -0.15142244120E+02 -0.29244907513E+03  0.35495824830E+03  0.17170474472E+03 0.  0.
         24    2    3    3    0    0 -0.13232584909E+03 -0.29209198885E+02 -0.27874455558E+03  0.31993990718E+03  0.79370708066E+02 0.  0.
         -6    2    1    2    0  501  0.10371639011E+03  0.15142244120E+02  0.13206367502E+03  0.24004814372E+03  0.17086813602E+03 0.  0.
        -24    2    5    5    0    0  0.74343717051E+02  0.58319206099E+02  0.33732238533E+02  0.12861132139E+03  0.80466701237E+02 0.  0.
          5    1    3    3  502    0  0.28609458979E+02  0.14066954765E+02 -0.13704519545E+02  0.35018341129E+02  0.47000000000E+01 0. -1.
        -13    1    4    4    0    0 -0.17655515615E+02 -0.35538999374E+02 -0.98782668823E+02  0.10645540554E+03  0.00000000000E+00 0.  1.
         14    1    4    4    0    0 -0.11467033348E+03  0.63298004886E+01 -0.17996188676E+03  0.21348450164E+03  0.00000000000E+00 0. -1.
         -5    1    5    5    0  501  0.29372673062E+02 -0.43176961979E+02  0.98331436488E+02  0.11143682233E+03  0.47000000000E+01 0.  1.
         13    1    6    6    0    0  0.54946292502E+02  0.82869816708E+01  0.47621863208E+02  0.73182040012E+02  0.00000000000E+00 0. -1.
        -14    1    6    6    0    0  0.19397424550E+02  0.50032224429E+02 -0.13889624675E+02  0.55429281378E+02  0.00000000000E+00 0.  1.
</event>
<event>
12    1  0.1345781E-002  0.1773509E+03  0.7818608E-02  0.1170392E+00
         -2   -1    0    0    0  501 -0.00000000000E+00  0.00000000000E+00  0.22042825997E+02  0.22042825997E+02  0.00000000000E+00 0.  1.
          2   -1    0    0  502    0  0.00000000000E+00 -0.00000000000E+00 -0.21457991876E+04  0.21457991876E+04  0.00000000000E+00 0. -1.
          6    2    1    2  502    0  0.24403172441E+02 -0.35975756352E+02 -0.16881968841E+04  0.16974592160E+04  0.17166624777E+03 0.  0.
         24    2    3    3    0    0  0.56557018665E+02 -0.52926014998E+02 -0.66473728994E+03  0.67334359168E+03  0.74270238968E+02 0.  0.
         -6    2    1    2    0  501 -0.24403172441E+02  0.35975756352E+02 -0.43555947750E+03  0.47038279759E+03  0.17221541151E+03 0.  0.
        -24    2    5    5    0    0 -0.27004086492E+02 -0.41914700903E+02 -0.28884965153E+03  0.30419148879E+03  0.81315913729E+02 0.  0.
          5    1    3    3  502    0 -0.32153846224E+02  0.16950258646E+02 -0.10234595942E+04  0.10241156244E+04  0.47000000000E+01 0. -1.
        -13    1    4    4    0    0  0.67715726102E+01 -0.50716990840E+02 -0.44999648147E+03  0.45289612572E+03  0.00000000000E+00 0.  1.
         14    1    4    4    0    0  0.49785446055E+02 -0.22090241574E+01 -0.21474080847E+03  0.22044746596E+03  0.00000000000E+00 0. -1.
         -5    1    5    5    0  501  0.26009140511E+01  0.77890457255E+02 -0.14670982597E+03  0.16619130880E+03  0.47000000000E+01 0.  1.
         11    1    6    6    0    0 -0.48034353267E+02 -0.26611608712E+02 -0.25828751198E+03  0.26406043940E+03  0.00000000000E+00 0. -1.
        -12    1    6    6    0    0  0.21030266775E+02 -0.15303092191E+02 -0.30562139543E+02  0.40131049385E+02  0.00000000000E+00 0.  1.
</event>
<event>
12    1  0.1345781E-002  0.1831744E+03  0.7818608E-02  0.1164766E+00
         -2   -1    0    0    0  501 -0.00000000000E+00  0.00000000000E+00  0.42814206794E+02  0.42814206794E+02  0.00000000000E+00 0.  1.
          2   -1    0    0  502    0  0.00000000000E+00 -0.00000000000E+00 -0.78991084810E+03  0.78991084810E+03  0.00000000000E+00 0. -1.
          6    2    1    2  502    0 -0.67440036116E+02  0.14104969117E+02 -0.33642298799E+03  0.38301932602E+03  0.16963569385E+03 0.  0.
         24    2    3    3    0    0  0.15875705508E+02  0.45941985472E+02 -0.16316214050E+03  0.18809236614E+03  0.79963429476E+02 0.  0.
         -6    2    1    2    0  501  0.67440036116E+02 -0.14104969117E+02 -0.41067365331E+03  0.44970572888E+03  0.16980955342E+03 0.  0.
        -24    2    5    5    0    0  0.90160983472E+02 -0.46335366934E+02 -0.37428078702E+03  0.39583949911E+03  0.79541387676E+02 0.  0.
          5    1    3    3  502    0 -0.83315741623E+02 -0.31837016355E+02 -0.17326084749E+03  0.19492695988E+03  0.47000000000E+01 0. -1.
        -13    1    4    4    0    0 -0.18151882097E+02  0.46374603938E+02 -0.52703067036E+02  0.72510054400E+02  0.00000000000E+00 0.  1.
         14    1    4    4    0    0  0.34027587604E+02 -0.43261846594E+00 -0.11045907347E+03  0.11558231174E+03  0.00000000000E+00 0. -1.
         -5    1    5    5    0  501 -0.22720947356E+02  0.32230397818E+02 -0.36392866292E+02  0.53866229766E+02  0.47000000000E+01 0.  1.
         13    1    6    6    0    0  0.91393608567E+02 -0.10910998707E+02 -0.24267232325E+03  0.25954132243E+03  0.00000000000E+00 0. -1.
        -14    1    6    6    0    0 -0.12326250952E+01 -0.35424368227E+02 -0.13160846377E+03  0.13629817668E+03  0.00000000000E+00 0.  1.
</event>
<event>
12    1  0.1345781E-002  0.5508038E+03  0.7818608E-02  0.1001308E+00
          2   -1    0    0  502    0  0.00000000000E+00  0.00000000000E+00  0.49980406740E+03  0.49980406740E+03  0.00000000000E+00 0. -1.
         -2   -1    0    0    0  501 -0.00000000000E+00 -0.00000000000E+00 -0.64551013303E+03  0.64551013303E+03  0.00000000000E+00 0.  1.
          6    2    1    2  502    0  0.49304059770E+03  0.17345198249E+03 -0.21278529483E+03  0.59104241404E+03  0.17572402308E+03 0.  0.
         24    2    3    3    0    0  0.15579546341E+03  0.10745820636E+03 -0.61568718240E+02  0.21557203954E+03  0.82831785158E+02 0.  0.
         -6    2    1    2    0  501 -0.49304059770E+03 -0.17345198249E+03  0.67079229197E+02  0.55427178640E+03  0.17188068244E+03 0.  0.
        -24    2    5    5    0    0 -0.19618818508E+03 -0.13287850679E+03  0.48956887135E+02  0.25407506575E+03  0.77529740762E+02 0.  0.
          5    1    3    3  502    0  0.33724513430E+03  0.65993776131E+02 -0.15121657659E+03  0.37547037450E+03  0.47000000000E+01 0. -1.
        -13    1    4    4    0    0  0.54847708276E+02  0.15695192925E+02 -0.54608590317E+02  0.78972832801E+02  0.00000000000E+00 0.  1.
         14    1    4    4    0    0  0.10094775513E+03  0.91763013434E+02 -0.69601279230E+01  0.13659920674E+03  0.00000000000E+00 0. -1.
         -5    1    5    5    0  501 -0.29685241262E+03 -0.40573475699E+02  0.18122342062E+02  0.30019672065E+03  0.47000000000E+01 0.  1.
         11    1    6    6    0    0 -0.19716310804E+02 -0.51177028430E+02  0.10247295175E+02  0.55792725414E+02  0.00000000000E+00 0. -1.
        -12    1    6    6    0    0 -0.17647187428E+03 -0.81701478361E+02  0.38709591960E+02  0.19828234033E+03  0.00000000000E+00 0.  1.
</event>
<event>
12    1  0.1345781E-002  0.2671624E+03  0.7818608E-02  0.1102915E+00
         -1   -1    0    0    0  501 -0.00000000000E+00  0.00000000000E+00  0.74081844557E+02  0.74081844557E+02  0.00000000000E+00 0.  1.
          1   -1    0    0  502    0  0.00000000000E+00 -0.00000000000E+00 -0.18756305862E+04  0.18756305862E+04  0.00000000000E+00 0. -1.
          6    2    1    2  502    0  0.10183371232E+03 -0.17722188668E+03 -0.15806124654E+04  0.16030324612E+04  0.17204535457E+03 0.  0.
         24    2    3    3    0    0  0.71274418472E+02 -0.51084190531E+02 -0.10535388171E+04  0.10601942629E+04  0.79863626229E+02 0.  0.
         -6    2    1    2    0  501 -0.10183371232E+03  0.17722188668E+03 -0.22093627633E+03  0.34667996958E+03  0.17203622009E+03 0.  0.
        -24    2    5    5    0    0 -0.33715319513E+02  0.16534947786E+03 -0.11185309603E+03  0.21744259203E+03  0.79328387973E+02 0.  0.
          5    1    3    3  502    0  0.30559293847E+02 -0.12613769615E+03 -0.52707364830E+03  0.54283819833E+03  0.47000000000E+01 0. -1.
        -11    1    4    4    0    0  0.19342746774E+02  0.15766988647E+02 -0.10672300890E+03  0.10960173544E+03  0.00000000000E+00 0.  1.
         12    1    4    4    0    0  0.51931671698E+02 -0.66851179178E+02 -0.94681580816E+03  0.95059252746E+03  0.00000000000E+00 0. -1.
         -5    1    5    5    0  501 -0.68118392806E+02  0.11872408820E+02 -0.10908318031E+03  0.12923737755E+03  0.47000000000E+01 0.  1.
         13    1    6    6    0    0 -0.10625992412E+02  0.14608027196E+02  0.11401761899E+02  0.21361328322E+02  0.00000000000E+00 0. -1.
        -14    1    6    6    0    0 -0.23089327102E+02  0.15074145066E+03 -0.12325485792E+03  0.19608126370E+03  0.00000000000E+00 0.  1.
</event>
<event>
12    1  0.1345781E-002  0.1781746E+03  0.7818608E-02  0.1169581E+00
         -1   -1    0    0    0  501 -0.00000000000E+00  0.00000000000E+00  0.14288109038E+03  0.14288109038E+03  0.00000000000E+00 0.  1.
          1   -1    0    0  502    0  0.00000000000E+00 -0.00000000000E+00 -0.33962099829E+03  0.33962099829E+03  0.00000000000E+00 0. -1.
          6    2    1    2  502    0  0.27468370570E+02 -0.56915230156E+01 -0.24164789029E+03  0.30276913384E+03  0.18024577862E+03 0.  0.
         24    2    3    3    0    0  0.34270853140E+02  0.59209904508E+02 -0.95175700362E+02  0.14234886864E+03  0.80774267547E+02 0.  0.
         -6    2    1    2    0  501 -0.27468370570E+02  0.56915230156E+01  0.44907982378E+02  0.17973295483E+03  0.17175652347E+03 0.  0.
        -24    2    5    5    0    0 -0.77024207854E+02 -0.25821279258E+02  0.36416957122E+02  0.12020963818E+03  0.80775585954E+02 0.  0.
          5    1    3    3  502    0 -0.68024825704E+01 -0.64901427524E+02 -0.14647218992E+03  0.16042026519E+03  0.47000000000E+01 0. -1.
        -13    1    4    4    0    0 -0.96659102111E+01  0.48022320518E+02 -0.16766955192E+02  0.51775514237E+02  0.00000000000E+00 0.  1.
         14    1    4    4    0    0  0.43936763351E+02  0.11187583991E+02 -0.78408745169E+02  0.90573354406E+02  0.00000000000E+00 0. -1.
         -5    1    5    5    0  501  0.49555837284E+02  0.31512802274E+02  0.84910252556E+01  0.59523316658E+02  0.47000000000E+01 0.  1.
         13    1    6    6    0    0  0.13641983590E+02 -0.19125624247E+02  0.10035937957E+02  0.25546296596E+02  0.00000000000E+00 0. -1.
        -14    1    6    6    0    0 -0.90666191443E+02 -0.66956550114E+01  0.26381019166E+02  0.94663341580E+02  0.00000000000E+00 0.  1.
</event>
<event>
12    1  0.1345781E-002  0.2281782E+03  0.7818608E-02  0.1127929E+00
         -2   -1    0    0    0  501 -0.00000000000E+00  0.00000000000E+00  0.54953324769E+02  0.54953324769E+02  0.00000000000E+00 0. -1.
          2   -1    0    0  502    0  0.00000000000E+00 -0.00000000000E+00 -0.96279116253E+03  0.96279116253E+03  0.00000000000E+00 0.  1.
          6    2    1    2  502    0 -0.11698104390E+03 -0.94277056336E+02 -0.39001556691E+03  0.45194750977E+03  0.17196418573E+03 0.  0.
         24    2    3    3    0    0 -0.10149131279E+03 -0.11027852493E+02 -0.15427268881E+03  0.20141376697E+03  0.79657660700E+02 0.  0.
         -6    2    1    2    0  501  0.11698104390E+03  0.94277056336E+02 -0.51782227085E+03  0.56579697752E+03  0.17150389968E+03 0.  0.
        -24    2    5    5    0    0  0.24065462912E+02  0.69576913083E+02 -0.14644496573E+03  0.18214792563E+03  0.79445865102E+02 0.  0.
          5    1    3    3  502    0 -0.15489731116E+02 -0.83249203843E+02 -0.23574287810E+03  0.25053374281E+03  0.47000000000E+01 0. -1.
        -13    1    4    4    0    0 -0.60456150521E+02  0.33320916802E+02 -0.84682169075E+02  0.10925337245E+03  0.00000000000E+00 0.  1.
         14    1    4    4    0    0 -0.41035162268E+02 -0.44348769294E+02 -0.69590519737E+02  0.92160394517E+02  0.00000000000E+00 0. -1.
         -5    1    5    5    0  501  0.92915580993E+02  0.24700143253E+02 -0.37137730511E+03  0.38364905190E+03  0.47000000000E+01 0.  1.
         13    1    6    6    0    0  0.32533625762E+01  0.76784561752E+01 -0.10384196191E+03  0.10417627422E+03  0.00000000000E+00 0. -1.
        -14    1    6    6    0    0  0.20812100335E+02  0.61898456907E+02 -0.42603003823E+02  0.77971651404E+02  0.00000000000E+00 0.  1.
</event>
<event>
12    1  0.1345781E-002  0.2144544E+03  0.7818608E-02  0.1138086E+00
          2   -1    0    0  502    0  0.00000000000E+00  0.00000000000E+00  0.95917794703E+03  0.95917794703E+03  0.00000000000E+00 0. -1.
         -2   -1    0    0    0  501 -0.00000000000E+00 -0.00000000000E+00 -0.58537338720E+02  0.58537338720E+02  0.00000000000E+00 0.  1.
          6    2    1    2  502    0 -0.86646882676E+02  0.92838636885E+02  0.23144685063E+03  0.31455715553E+03  0.17103176504E+03 0.  0.
         24    2    3    3    0    0 -0.29918910809E+02  0.65189572498E+02  0.21525323392E+03  0.24923597385E+03  0.10314937889E+03 0.  0.
         -6    2    1    2    0  501  0.86646882676E+02 -0.92838636885E+02  0.66919375768E+03  0.70315813022E+03  0.17459775485E+03 0.  0.
        -24    2    5    5    0    0  0.69836419746E+02 -0.10633516492E+03  0.33370320170E+03  0.36694279581E+03  0.84290543697E+02 0.  0.
          5    1    3    3  502    0 -0.56727971867E+02  0.27649064387E+02  0.16193616712E+02  0.65321181678E+02  0.47000000000E+01 0. -1.
        -11    1    4    4    0    0 -0.26242021550E+02  0.26040751702E+02  0.74089103437E+01  0.37704859060E+02  0.00000000000E+00 0.  1.
         12    1    4    4    0    0 -0.36768892587E+01  0.39148820796E+02  0.20784432357E+03  0.21153111479E+03  0.00000000000E+00 0. -1.
         -5    1    5    5    0  501  0.16810462930E+02  0.13496528038E+02  0.33549055598E+03  0.33621533440E+03  0.47000000000E+01 0.  1.
         11    1    6    6    0    0  0.69978620621E+02 -0.99327801247E+02  0.20684685047E+03  0.23989297404E+03  0.00000000000E+00 0. -1.
        -12    1    6    6    0    0 -0.14220087535E+00 -0.70073636750E+01  0.12685635122E+03  0.12704982177E+03  0.00000000000E+00 0.  1.
</event>
<event>
12    1  0.1345781E-002  0.1778524E+03  0.7818608E-02  0.1169898E+00
          2   -1    0    0  502    0  0.00000000000E+00  0.00000000000E+00  0.15158769555E+04  0.15158769555E+04  0.00000000000E+00 0.  1.
         -2   -1    0    0    0  501 -0.00000000000E+00 -0.00000000000E+00 -0.22765903249E+02  0.22765903249E+02  0.00000000000E+00 0. -1.
          6    2    1    2  502    0  0.37641765867E+02 -0.31582014611E+02  0.96984843740E+03  0.98607255888E+03  0.17122725737E+03 0.  0.
         24    2    3    3    0    0  0.70124409510E+01 -0.30333821383E+02  0.93703602168E+03  0.94092327144E+03  0.79566209912E+02 0.  0.
         -6    2    1    2    0  501 -0.37641765867E+02  0.31582014611E+02  0.52326261488E+03  0.55257029990E+03  0.17063366026E+03 0.  0.
        -24    2    5    5    0    0 -0.88575767168E+02 -0.21270212609E+01  0.27845067051E+03  0.30021033933E+03  0.68856961799E+02 0.  0.
          5    1    3    3  502    0  0.30629324916E+02 -0.12481932280E+01  0.32812415716E+02  0.45149287439E+02  0.47000000000E+01 0. -1.
        -13    1    4    4    0    0 -0.21595359359E+02  0.89291576766E+01  0.10965942344E+03  0.11212171311E+03  0.00000000000E+00 0.  1.
         14    1    4    4    0    0  0.28607800310E+02 -0.39262979059E+02  0.82737659825E+03  0.82880155833E+03  0.00000000000E+00 0. -1.
         -5    1    5    5    0  501  0.50934001300E+02  0.33709035872E+02  0.24481194437E+03  0.25235996056E+03  0.47000000000E+01 0.  1.
         11    1    6    6    0    0 -0.85843049951E+02  0.30444742269E+01  0.28099580430E+03  0.29383148246E+03  0.00000000000E+00 0. -1.
        -12    1    6    6    0    0 -0.27327172169E+01 -0.51714954878E+01 -0.25451337971E+01  0.63788568735E+01  0.00000000000E+00 0.  1.
</event>
<event>
12    1  0.1345781E-002  0.1962724E+03  0.7818608E-02  0.1152923E+00
         -2   -1    0    0    0  501 -0.00000000000E+00  0.00000000000E+00  0.37881649228E+03  0.37881649228E+03  0.00000000000E+00 0.  1.
          2   -1    0    0  502    0  0.00000000000E+00 -0.00000000000E+00 -0.10180967810E+03  0.10180967810E+03  0.00000000000E+00 0. -1.
          6    2    1    2  502    0 -0.27874153013E+02 -0.92138664098E+02  0.13095732327E+03  0.23659728555E+03  0.17193589847E+03 0.  0.
         24    2    3    3    0    0 -0.57733013567E+02 -0.28584628143E+02  0.13142665345E+03  0.16621989351E+03  0.78777572573E+02 0.  0.
         -6    2    1    2    0  501  0.27874153013E+02  0.92138664098E+02  0.14604949090E+03  0.24402888483E+03  0.17015622531E+03 0.  0.
        -24    2    5    5    0    0  0.74853731267E+02  0.97921762744E+02  0.96975147474E+02  0.17568485667E+03  0.79178513062E+02 0.  0.
          5    1    3    3  502    0  0.29858860554E+02 -0.63554035955E+02 -0.46933017567E+00  0.70377392041E+02  0.47000000000E+01 0. -1.
        -13    1    4    4    0    0 -0.29773853888E+02  0.10219470111E+02  0.60827929808E+01  0.32061196408E+02  0.00000000000E+00 0.  1.
         14    1    4    4    0    0 -0.27959159680E+02 -0.38804098254E+02  0.12534386047E+03  0.13415869710E+03  0.00000000000E+00 0. -1.
         -5    1    5    5    0  501 -0.46979578253E+02 -0.57830986465E+01  0.49074343430E+02  0.68344028166E+02  0.47000000000E+01 0.  1.
         11    1    6    6    0    0  0.11860748823E+02  0.64892918217E+02  0.15948092887E+02  0.67868327400E+02  0.00000000000E+00 0. -1.
        -12    1    6    6    0    0  0.62992982444E+02  0.33028844527E+02  0.81027054587E+02  0.10781652927E+03  0.00000000000E+00 0.  1.
</event>
<event>
12    1  0.1345781E-002  0.1850681E+03  0.7818608E-02  0.1162986E+00
          1   -1    0    0  502    0  0.00000000000E+00  0.00000000000E+00  0.12845771764E+03  0.12845771764E+03  0.00000000000E+00 0. -1.
         -1   -1    0    0    0  501 -0.00000000000E+00 -0.00000000000E+00 -0.27761103544E+03  0.27761103544E+03  0.00000000000E+00 0.  1.
          6    2    1    2  502    0 -0.45947967034E+02  0.22685900004E+02 -0.11404180421E+03  0.21552728015E+03  0.17555799511E+03 0.  0.
         24    2    3    3    0    0  0.39222126649E+02  0.11117637763E+02 -0.29666268447E+02  0.94990602805E+02  0.80505590174E+02 0.  0.
         -6    2    1    2    0  501  0.45947967034E+02 -0.22685900004E+02 -0.35111513589E+02  0.19054147293E+03  0.18013153191E+03 0.  0.
        -24    2    5    5    0    0 -0.23551950888E+02 -0.61506034339E+02 -0.54425277837E+01  0.10545575063E+03  0.82180335733E+02 0.  0.
          5    1    3    3  502    0 -0.85170093684E+02  0.11568262241E+02 -0.84375535761E+02  0.12053667734E+03  0.47000000000E+01 0. -1.
        -11    1    4    4    0    0  0.82997384103E+01 -0.95064241791E+01 -0.50724416630E+02  0.52270682038E+02  0.00000000000E+00 0.  1.
         12    1    4    4    0    0  0.30922388239E+02  0.20624061942E+02  0.21058148183E+02  0.42719920766E+02  0.00000000000E+00 0. -1.
         -5    1    5    5    0  501  0.69499917922E+02  0.38820134335E+02 -0.29668985805E+02  0.85085722302E+02  0.47000000000E+01 0.  1.
         13    1    6    6    0    0 -0.32591204593E+02  0.81030229615E+01  0.66300892281E+01  0.34231618150E+02  0.00000000000E+00 0. -1.
        -14    1    6    6    0    0  0.90392537059E+01 -0.69609057301E+02 -0.12072617012E+02  0.71224132479E+02  0.00000000000E+00 0.  1.
</event>
